Title
81333
    1CHL1    C3    1   3.235   2.087  10.468  0.4076  0.2246  0.0689
    1CHL1    H3    2   3.292   1.992  10.464 -0.5561 -0.3377 -1.7885
    1CHL1    O3    3   3.182   2.097  10.601  0.1194 -0.2555 -0.1292
    1CHL1   H3'    4   3.147   2.187  10.595 -1.1897 -0.8477 -3.0967
    1CHL1    C4    5   3.331   2.204  10.436 -0.9089 -0.0553 -0.3065
    1CHL1   H4A    6   3.286   2.304  10.454 -0.6309 -0.3732  2.8163
    1CHL1   H4B    7   3.412   2.202  10.513 -0.2355 -0.8049 -1.0159
    1CHL1    C5    8   3.387   2.186  10.298  0.7023 -0.5287  0.3264
    1CHL1    C6    9   3.514   2.174  10.272 -0.3371  0.0190 -0.2344
    1CHL1    H6   10   3.584   2.179  10.356 -0.2729  0.8196 -0.3222
    1CHL1    C7   11   3.571   2.180  10.138  0.4080 -0.6773  0.1305
    1CHL1   H7A   12   3.651   2.258  10.141  0.5427 -0.6122 -2.5257
    1CHL1   H7B   13   3.614   2.079  10.121  1.8514  0.0871 -1.0111
    1CHL1    C8   14   3.472   2.230  10.021 -0.9383  0.4126 -0.8521
    1CHL1    H8   15   3.456   2.340  10.027  0.2449  0.5637 -0.1513
    1CHL1   C14   16   3.528   2.192   9.886  0.4903 -0.1349  0.9200
    1CHL1   H14   17   3.542   2.082   9.873  0.8820 -0.0349  0.4639
    1CHL1   C15   18   3.659   2.267   9.856  0.3466  0.0187 -0.0093
    1CHL1  H15A   19   3.650   2.369   9.900  1.8459  0.4532 -0.6719
    1CHL1  H15B   20   3.746   2.215   9.901 -0.3054 -1.4038 -0.3440
    1CHL1   C16   21   3.654   2.265   9.704 -0.2460 -0.4353 -0.1319
    1CHL1  H16A   22   3.673   2.366   9.663  1.1112 -1.4834 -2.3056
    1CHL1  H16B   23   3.734   2.196   9.670 -1.5609 -1.1912 -1.8449
    1CHL1   C17   24   3.515   2.217   9.653  0.1800 -0.7064  0.4863
    1CHL1   H17   25   3.513   2.108   9.632 -1.3411 -0.8976  1.4808
    1CHL1   C13   26   3.427   2.240   9.771  0.4947  0.7933 -0.4286
    1CHL1   C18   27   3.403   2.390   9.770 -0.3502 -0.1612  0.3639
    1CHL1  H18A   28   3.495   2.447   9.745  0.1152 -0.5786  1.0846
    1CHL1  H18B   29   3.335   2.409   9.685 -1.9452 -0.0438  1.6291
    1CHL1  H18C   30   3.347   2.440   9.852 -3.8375 -0.4329 -1.6637
    1CHL1   C12   31   3.297   2.160   9.791  0.0081 -0.9539 -0.3683
    1CHL1  H12A   32   3.226   2.208   9.720  0.9351  0.5296 -0.3453
    1CHL1  H12B   33   3.322   2.053   9.776 -0.8628 -1.1400 -0.5593
    1CHL1   C11   34   3.233   2.194   9.932  0.3001  0.1221  0.4542
    1CHL1  H11A   35   3.197   2.299   9.926  0.1468  0.0495  0.1158
    1CHL1  H11B   36   3.145   2.128   9.946  0.0873  0.3338  0.1037
    1CHL1    C9   37   3.335   2.163  10.047 -0.9258  0.2596 -0.1625
    1CHL1    H9   38   3.353   2.053  10.049  1.9964  0.6076 -1.8155
    1CHL1   C10   39   3.276   2.194  10.188  0.1536 -0.5731  0.0047
    1CHL1   C19   40   3.220   2.339  10.187 -0.1739 -0.0311  0.5401
    1CHL1  H19A   41   3.148   2.361  10.105 -1.1558  0.8093  1.5960
    1CHL1  H19B   42   3.159   2.348  10.279 -0.2003 -1.4508  0.6835
    1CHL1  H19C   43   3.299   2.416  10.175  0.6080 -1.1860 -2.9193
    1CHL1    C1   44   3.158   2.104  10.218 -0.2978  0.3655 -0.0499
    1CHL1   H1A   45   3.069   2.127  10.155  0.1036 -0.4654 -0.9440
    1CHL1   H1B   46   3.202   2.006  10.189 -1.6100 -0.2035 -0.1860
    1CHL1    C2   47   3.116   2.098  10.371  0.7325 -0.3638  0.5136
    1CHL1   H2A   48   3.049   2.010  10.380 -0.9915  0.8828  0.2994
    1CHL1   H2B   49   3.051   2.186  10.391  2.5051  1.1302  0.0003
    1CHL1   C20   50   3.473   2.278   9.509  0.2978  0.3966 -0.4255
    1CHL1   H20   51   3.445   2.386   9.512 -0.8905  0.1609 -1.8873
    1CHL1   C21   52   3.345   2.203   9.458 -0.1544 -0.1113  0.0729
    1CHL1  H21A   53   3.374   2.096   9.456  1.3592  0.2978 -0.9525
    1CHL1  H21B   54   3.322   2.233   9.354 -0.5813  3.4078  1.0358
    1CHL1  H21C   55   3.253   2.231   9.514 -0.0381 -0.2045  0.3146
    1CHL1   C22   56   3.586   2.266   9.408  0.1905  0.2587  0.3390
    1CHL1  H22A   57   3.683   2.305   9.446  0.2744  0.0489  0.3401
    1CHL1  H22B   58   3.590   2.156   9.393  0.2395  0.0821  1.5655
    1CHL1   C23   59   3.563   2.342   9.279  0.5114 -0.4966 -0.5414
    1CHL1  H23A   60   3.462   2.337   9.234  0.0659 -0.2610  0.4041
    1CHL1  H23B   61   3.587   2.450   9.292 -1.5940 -0.1592  0.9812
    1CHL1   C24   62   3.654   2.296   9.163  0.7586 -0.2207  0.8347
    1CHL1  H24A   63   3.761   2.316   9.188  1.1623 -0.1098 -0.8020
    1CHL1  H24B   64   3.646   2.186   9.155 -0.1006 -0.1152  0.1246
    1CHL1   C25   65   3.635   2.367   9.030  0.1250 -0.1996  0.5201
    1CHL1   H25   66   3.620   2.476   9.046 -0.8921 -0.0370 -1.2615
    1CHL1   C26   67   3.765   2.357   8.952 -0.7754 -0.2601  1.1186
    1CHL1  H26A   68   3.854   2.401   9.001  1.2277 -0.0362 -2.4242
    1CHL1  H26B   69   3.785   2.248   8.957 -1.5357 -0.3527  3.3937
    1CHL1  H26C   70   3.760   2.389   8.846 -0.9195  0.0602  1.2207
    1CHL1   C27   71   3.522   2.296   8.951 -0.1901  0.1034  0.3004
    1CHL1  H27A   72   3.526   2.330   8.845  2.3744  1.6310  0.8073
    1CHL1  H27B   73   3.541   2.188   8.964  0.9130  0.1563 -0.7879
    1CHL1  H27C   74   3.428   2.324   9.005 -1.2388 -0.3891 -1.1997
    2CHL1    C3   75   6.536   5.257  10.354  0.5469 -0.1241 -0.0549
    2CHL1    H3   76   6.425   5.258  10.345  0.5409 -1.2777 -0.2904
    2CHL1    O3   77   6.556   5.182  10.471  0.1964  0.0126  0.5214
    2CHL1   H3'   78   6.560   5.089  10.448 -1.6774  0.1574 -0.5962
    2CHL1    C4   79   6.589   5.191  10.235  0.2935 -0.5830 -0.6785
    2CHL1   H4A   80   6.698   5.183  10.253  0.0400 -1.6466  0.5941
    2CHL1   H4B   81   6.559   5.085  10.229 -0.7406 -0.5662  2.3882
    2CHL1    C5   82   6.566   5.263  10.110 -0.5032  0.3507 -0.1590
    2CHL1    C6   83   6.508   5.194  10.004 -0.8611 -0.7025 -0.2353
    2CHL1    H6   84   6.477   5.092  10.033 -1.1266 -0.6356 -0.2749
    2CHL1    C7   85   6.476   5.256   9.868 -1.1903 -0.0519 -0.0380
    2CHL1   H7A   86   6.505   5.187   9.786  0.1598 -2.2365  2.1329
    2CHL1   H7B   87   6.366   5.275   9.861 -1.1448 -0.0209 -0.6858
    2CHL1    C8   88   6.546   5.394   9.854 -0.3096  0.0289  0.4500
    2CHL1    H8   89   6.653   5.377   9.831 -0.6994  0.4890 -1.9302
    2CHL1   C14   90   6.486   5.476   9.746 -0.2137 -0.1891  0.0057
    2CHL1   H14   91   6.377   5.488   9.761 -0.0514 -0.9274  2.0850
    2CHL1   C15   92   6.499   5.408   9.608 -0.0167 -0.0718  0.3880
    2CHL1  H15A   93   6.586   5.339   9.610 -1.5746 -2.2175  3.7466
    2CHL1  H15B   94   6.412   5.340   9.592  0.4018 -1.5235  3.5672
    2CHL1   C16   95   6.514   5.524   9.510  0.6221  0.9012 -0.0169
    2CHL1  H16A   96   6.615   5.547   9.471  0.7825 -0.6017 -0.5518
    2CHL1  H16B   97   6.445   5.496   9.428 -1.3398  0.2080  1.7815
    2CHL1   C17   98   6.475   5.645   9.596 -0.1094  0.1949 -0.0653
    2CHL1   H17   99   6.364   5.650   9.603 -0.1829  2.3011 -1.6505
    2CHL1   C13  100   6.542   5.618   9.730 -0.2550 -0.6502 -0.1759
    2CHL1   C18  101   6.690   5.620   9.716 -0.3295  0.5651  0.8911
    2CHL1  H18A  102   6.733   5.544   9.647  0.4998  1.7782  0.0107
    2CHL1  H18B  103   6.718   5.720   9.675 -3.1637  0.7679 -0.8404
    2CHL1  H18C  104   6.748   5.622   9.811  1.2154 -1.9364  0.0996
    2CHL1   C12  105   6.498   5.692   9.859  0.2773 -0.1353  0.1065
    2CHL1  H12A  106   6.533   5.797   9.860  2.5440 -0.8112 -0.7426
    2CHL1  H12B  107   6.387   5.698   9.852  0.3553 -0.1486 -1.5404
    2CHL1   C11  108   6.545   5.625   9.984  0.5963 -0.2423 -0.2153
    2CHL1  H11A  109   6.655   5.641   9.981  0.8350 -1.8673 -0.9065
    2CHL1  H11B  110   6.496   5.683  10.065  0.0159  2.9649 -2.6830
    2CHL1    C9  111   6.523   5.473   9.989  0.5065 -0.7622 -0.1781
    2CHL1    H9  112   6.414   5.458  10.003  0.3195 -1.5156 -2.1631
    2CHL1   C10  113   6.595   5.413  10.113  0.9390 -0.1003 -0.3601
    2CHL1   C19  114   6.749   5.433  10.091  0.0008 -0.6483 -0.1821
    2CHL1  H19A  115   6.804   5.365  10.159 -0.1376 -0.6295 -0.0499
    2CHL1  H19B  116   6.778   5.406   9.987 -0.8155  1.7086 -1.0973
    2CHL1  H19C  117   6.772   5.538  10.120  0.0365 -0.4589 -0.8840
    2CHL1    C1  118   6.550   5.476  10.250  0.1676  0.3546  0.0282
    2CHL1   H1A  119   6.608   5.571  10.250 -0.3635  0.7166  1.5880
    2CHL1   H1B  120   6.441   5.496  10.244  0.0182 -0.0871  1.1505
    2CHL1    C2  121   6.592   5.393  10.370  0.1430 -0.5569  0.3066
    2CHL1   H2A  122   6.572   5.453  10.461 -0.1801  1.0906 -0.7975
    2CHL1   H2B  123   6.702   5.378  10.363  0.5227  1.9048  0.1443
    2CHL1   C20  124   6.510   5.779   9.514 -0.1820  0.1304  0.2902
    2CHL1   H20  125   6.619   5.781   9.490 -0.1447 -0.9537  0.2992
    2CHL1   C21  126   6.485   5.895   9.603  0.2774 -0.5088 -0.6269
    2CHL1  H21A  127   6.501   5.994   9.555  1.0587 -0.5206 -0.3958
    2CHL1  H21B  128   6.557   5.896   9.688  2.7120 -2.4900 -2.5174
    2CHL1  H21C  129   6.381   5.883   9.641 -0.1900 -0.0365 -1.7130
    2CHL1   C22  130   6.419   5.783   9.387  0.1214 -0.0904  0.3227
    2CHL1  H22A  131   6.444   5.694   9.326  0.3467 -0.3646  0.8067
    2CHL1  H22B  132   6.317   5.765   9.428  0.0173 -1.3848 -0.4531
    2CHL1   C23  133   6.428   5.912   9.306 -0.0863  0.1592  0.0222
    2CHL1  H23A  134   6.395   5.990   9.378  1.1438  1.4214 -0.7321
    2CHL1  H23B  135   6.534   5.936   9.284 -0.5789  2.7253  0.1566
    2CHL1   C24  136   6.353   5.903   9.175 -0.3409  0.1750 -0.7306
    2CHL1  H24A  137   6.378   5.809   9.121  2.7343  0.1227  0.5410
    2CHL1  H24B  138   6.245   5.900   9.198 -0.0940  0.4239  0.5349
    2CHL1   C25  139   6.390   6.016   9.076  0.3102  0.1897 -0.2739
    2CHL1   H25  140   6.412   6.114   9.123 -1.1684  1.0111 -1.2178
    2CHL1   C26  141   6.523   5.987   9.002  0.0765 -0.1904  0.6456
    2CHL1  H26A  142   6.515   5.891   8.946  3.0483 -0.3812  0.3989
    2CHL1  H26B  143   6.552   6.070   8.934 -0.5713  0.6512  1.3891
    2CHL1  H26C  144   6.601   5.969   9.078  0.7395 -2.7744 -0.5207
    2CHL1   C27  145   6.282   6.041   8.967 -0.0778 -0.0445 -0.5430
    2CHL1  H27A  146   6.253   5.943   8.923 -1.3891 -0.7401  1.7058
    2CHL1  H27B  147   6.193   6.083   9.018  0.7898  0.1093  0.8748
    2CHL1  H27C  148   6.317   6.115   8.891 -0.0071  0.3645 -0.1156
    3CHL1    C3  149   0.976   6.137  10.313  0.0579 -0.3028 -0.3159
    3CHL1    H3  150   0.926   6.046  10.271  2.3906 -1.0566 -1.6153
    3CHL1    O3  151   0.946   6.147  10.449  0.1220  0.4297  0.4351
    3CHL1   H3'  152   1.006   6.216  10.480 -1.6049  1.7044  1.0679
    3CHL1    C4  153   1.121   6.122  10.284 -0.1793 -0.3847 -0.0590
    3CHL1   H4A  154   1.179   6.209  10.321 -0.6819  0.0257 -0.2357
    3CHL1   H4B  155   1.157   6.029  10.334  1.3407  0.7187  0.9827
    3CHL1    C5  156   1.146   6.111  10.135  0.4884 -0.0629  0.0023
    3CHL1    C6  157   1.199   5.999  10.090  0.1296  0.3423 -0.5790
    3CHL1    H6  158   1.243   5.919  10.151 -1.0368  0.5714  0.6093
    3CHL1    C7  159   1.219   5.971   9.949  0.5839 -0.2237 -0.0077
    3CHL1   H7A  160   1.310   5.911   9.927  0.8782  0.5831 -1.1106
    3CHL1   H7B  161   1.136   5.905   9.917  0.2206  0.7891 -1.2487
    3CHL1    C8  162   1.209   6.097   9.860  0.0769 -0.3703 -0.1751
    3CHL1    H8  163   1.299   6.160   9.881 -0.6147  0.4707  0.3327
    3CHL1   C14  164   1.221   6.059   9.709 -0.6400 -0.5135  0.8133
    3CHL1   H14  165   1.124   6.011   9.684 -1.1269  0.8169  0.0095
    3CHL1   C15  166   1.323   5.956   9.656  0.5739  0.1130 -0.5590
    3CHL1  H15A  167   1.424   5.959   9.704  0.7244 -0.0499 -0.8613
    3CHL1  H15B  168   1.292   5.850   9.668 -0.0844  0.4786  1.2882
    3CHL1   C16  169   1.341   5.991   9.505 -0.3496  0.3537  0.0588
    3CHL1  H16A  170   1.445   6.027   9.488 -1.3043  2.0125 -2.9091
    3CHL1  H16B  171   1.320   5.900   9.446  0.5274 -1.5545  2.4892
    3CHL1   C17  172   1.238   6.113   9.481  0.3725  0.3763 -0.0910
    3CHL1   H17  173   1.141   6.063   9.457  1.3656 -0.8061 -1.8799
    3CHL1   C13  174   1.221   6.182   9.615  0.5713  0.1462  1.0464
    3CHL1   C18  175   1.349   6.259   9.635  0.3312 -0.0411  0.1779
    3CHL1  H18A  176   1.356   6.304   9.737 -0.8133  0.2711  0.1371
    3CHL1  H18B  177   1.442   6.201   9.618 -0.8092 -1.8591 -0.1138
    3CHL1  H18C  178   1.349   6.350   9.571 -2.7390  0.5663  0.8886
    3CHL1   C12  179   1.090   6.254   9.644 -0.2178  0.4682  0.5013
    3CHL1  H12A  180   1.067   6.338   9.575 -1.8988 -0.1872  0.1992
    3CHL1  H12B  181   1.012   6.181   9.612 -1.1641  0.9509  1.6172
    3CHL1   C11  182   1.067   6.286   9.792  0.7602 -0.9056 -0.1040
    3CHL1  H11A  183   1.118   6.384   9.803 -0.0560 -0.3431 -1.1574
    3CHL1  H11B  184   0.963   6.324   9.805  1.3973  0.7175  0.5459
    3CHL1    C9  185   1.085   6.177   9.891 -0.0704  0.6877  0.3348
    3CHL1    H9  186   1.009   6.098   9.870  2.3434 -1.3539 -1.2930
    3CHL1   C10  187   1.084   6.215  10.039  0.1742  0.1711 -0.5532
    3CHL1   C19  188   1.172   6.338  10.063 -0.4160  0.6453 -0.8099
    3CHL1  H19A  189   1.279   6.324  10.033 -0.9038 -2.6333 -1.4027
    3CHL1  H19B  190   1.126   6.425  10.011  0.1364  0.3619 -1.8157
    3CHL1  H19C  191   1.174   6.361  10.171  1.1184  0.7071 -0.8301
    3CHL1    C1  192   0.934   6.247  10.086  0.3160  0.6453  0.3973
    3CHL1   H1A  193   0.905   6.335  10.025 -1.2658 -0.8016 -1.0195
    3CHL1   H1B  194   0.864   6.172  10.044  1.1103 -1.7189  2.9962
    3CHL1    C2  195   0.911   6.261  10.240 -0.0889 -0.1297  0.7312
    3CHL1   H2A  196   0.802   6.262  10.263 -0.4889  2.0329 -0.9137
    3CHL1   H2B  197   0.956   6.357  10.272 -0.0051  0.6341 -1.5204
    3CHL1   C20  198   1.284   6.193   9.357  0.4020 -0.3240 -0.2615
    3CHL1   H20  199   1.376   6.252   9.373  0.1597  0.3111 -1.1329
    3CHL1   C21  200   1.165   6.292   9.327 -0.1741  0.2946 -0.2246
    3CHL1  H21A  201   1.072   6.240   9.361  1.4673 -1.2584  2.1834
    3CHL1  H21B  202   1.160   6.305   9.217  2.5999 -2.5707 -0.8352
    3CHL1  H21C  203   1.182   6.385   9.385  1.8249  0.0849 -0.4272
    3CHL1   C22  204   1.302   6.110   9.234  0.1883 -0.8254  0.3906
    3CHL1  H22A  205   1.384   6.037   9.253  2.0313  1.0933  0.2284
    3CHL1  H22B  206   1.207   6.057   9.211  0.2253 -0.8955  0.3981
    3CHL1   C23  207   1.363   6.191   9.107 -0.2391  0.6393  0.0690
    3CHL1  H23A  208   1.301   6.280   9.082  0.3183  0.7231 -1.0798
    3CHL1  H23B  209   1.465   6.219   9.141  1.2223 -0.5861 -2.9205
    3CHL1   C24  210   1.371   6.100   8.986 -0.5984  0.5937 -0.1817
    3CHL1  H24A  211   1.457   6.139   8.927  0.1493 -0.6322  0.0591
    3CHL1  H24B  212   1.397   5.995   9.012  1.1496  0.3175 -2.6494
    3CHL1   C25  213   1.243   6.083   8.900  0.0796 -0.3389  0.7103
    3CHL1   H25  214   1.156   6.068   8.968 -0.4161  3.4920  1.1381
    3CHL1   C26  215   1.230   6.201   8.796 -0.2490  0.6129  0.0432
    3CHL1  H26A  216   1.316   6.207   8.726  0.2981 -0.4651  0.6101
    3CHL1  H26B  217   1.137   6.189   8.736 -1.6520  0.4276  2.1281
    3CHL1  H26C  218   1.225   6.296   8.855 -0.9280 -0.1901  1.3283
    3CHL1   C27  219   1.255   5.954   8.817 -0.2479  0.3764  0.6627
    3CHL1  H27A  220   1.166   5.940   8.752 -0.6399 -1.3397  1.5136
    3CHL1  H27B  221   1.350   5.964   8.760 -0.7003  1.5285  0.0878
    3CHL1  H27C  222   1.262   5.864   8.881 -1.0904 -0.6299 -0.6048
    4CHL1    C3  223   3.086   1.700  10.548 -0.6186 -0.5230  0.7974
    4CHL1    H3  224   3.109   1.809  10.546 -0.0138 -0.6433 -0.6850
    4CHL1    O3  225   3.090   1.639  10.674  0.4979 -0.0308 -0.2997
    4CHL1   H3'  226   3.061   1.548  10.660 -0.2513  0.0151  0.7792
    4CHL1    C4  227   2.948   1.678  10.487  0.5516 -0.4531 -0.3821
    4CHL1   H4A  228   2.930   1.571  10.508  0.9927 -0.3015  0.8450
    4CHL1   H4B  229   2.869   1.735  10.541  0.3378  0.7690 -1.8946
    4CHL1    C5  230   2.946   1.719  10.342 -0.4435  0.3317  0.3804
    4CHL1    C6  231   2.858   1.815  10.305 -0.3576 -0.7653 -0.0166
    4CHL1    H6  232   2.790   1.865  10.375 -1.0266  2.4222 -2.7363
    4CHL1    C7  233   2.854   1.864  10.164 -0.5520  0.7308 -0.2625
    4CHL1   H7A  234   2.753   1.868  10.118 -1.0478  0.6849  0.7868
    4CHL1   H7B  235   2.904   1.962  10.153  1.5927  0.0159  2.1117
    4CHL1    C8  236   2.927   1.774  10.065 -0.1637 -0.0626 -0.1318
    4CHL1    H8  237   2.861   1.687  10.047  0.4994 -1.3709  3.0829
    4CHL1   C14  238   2.945   1.838   9.927  0.5345 -0.3294 -0.6605
    4CHL1   H14  239   3.014   1.924   9.943  0.0247  0.0591 -0.5494
    4CHL1   C15  240   2.820   1.889   9.855  0.5637 -0.0572 -0.0884
    4CHL1  H15A  241   2.745   1.808   9.847  0.4438  0.2019 -2.4877
    4CHL1  H15B  242   2.766   1.966   9.913 -0.1119 -0.4784 -0.1493
    4CHL1   C16  243   2.876   1.939   9.724 -0.0547  0.2362  0.2643
    4CHL1  H16A  244   2.798   1.903   9.655  1.6675 -1.7875 -0.7629
    4CHL1  H16B  245   2.889   2.049   9.715 -1.8590  0.4966  0.4833
    4CHL1   C17  246   3.009   1.859   9.694  0.1530 -0.6322 -0.3071
    4CHL1   H17  247   3.090   1.933   9.715 -0.6288  0.3079 -0.5512
    4CHL1   C13  248   3.021   1.768   9.818 -0.1386  0.4724  0.7529
    4CHL1   C18  249   2.947   1.635   9.770 -0.5973 -0.0330  0.2635
    4CHL1  H18A  250   2.938   1.567   9.857  1.3616  0.3186  0.7872
    4CHL1  H18B  251   2.852   1.669   9.723  0.6174  0.4169 -2.0352
    4CHL1  H18C  252   3.006   1.567   9.705  0.4137 -0.3967  1.5285
    4CHL1   C12  253   3.162   1.737   9.868 -0.1769  0.3041  0.7914
    4CHL1  H12A  254   3.223   1.683   9.792  1.5224 -0.2359  2.4587
    4CHL1  H12B  255   3.213   1.835   9.879  1.2899 -0.3477  0.0767
    4CHL1   C11  256   3.152   1.660  10.002 -0.5866  0.4820 -0.2238
    4CHL1  H11A  257   3.121   1.553   9.999 -0.2145  0.3559  0.2689
    4CHL1  H11B  258   3.258   1.646  10.035 -0.3661  0.5745 -0.8775
    4CHL1    C9  259   3.066   1.731  10.115  0.0298 -0.0744  0.3277
    4CHL1    H9  260   3.121   1.826  10.129  0.5200 -0.2155 -0.6150
    4CHL1   C10  261   3.057   1.657  10.253  0.4288  0.2750 -0.3890
    4CHL1   C19  262   3.011   1.509  10.226 -0.4227  0.1547 -0.3087
    4CHL1  H19A  263   3.081   1.445  10.168 -1.3929 -2.3763  1.1698
    4CHL1  H19B  264   2.993   1.457  10.323  1.2142 -1.8860 -1.0234
    4CHL1  H19C  265   2.914   1.502  10.172  0.3948 -0.5816 -1.7382
    4CHL1    C1  266   3.198   1.668  10.322  0.2879  0.4840 -0.3220
    4CHL1   H1A  267   3.267   1.599  10.268 -2.4025 -1.8670 -1.0617
    4CHL1   H1B  268   3.232   1.773  10.316 -0.7384  0.9029  0.7129
    4CHL1    C2  269   3.199   1.631  10.469 -0.6219  0.0231  0.2648
    4CHL1   H2A  270   3.300   1.644  10.513 -0.3871 -3.7143  1.1680
    4CHL1   H2B  271   3.176   1.523  10.480 -2.2302  0.3054  0.0521
    4CHL1   C20  272   3.010   1.815   9.549 -0.8444  0.6895  0.0790
    4CHL1   H20  273   2.917   1.754   9.544  0.7367 -2.0158  1.4137
    4CHL1   C21  274   3.132   1.731   9.515  0.3088 -0.1255  0.0517
    4CHL1  H21A  275   3.167   1.658   9.591  1.8821 -0.8259 -1.2957
    4CHL1  H21B  276   3.208   1.811   9.496 -1.2926  0.8713 -2.7349
    4CHL1  H21C  277   3.103   1.679   9.422 -0.9049 -1.5033  1.1475
    4CHL1   C22  278   2.989   1.924   9.441 -0.2650  0.3950 -0.0830
    4CHL1  H22A  279   2.886   1.966   9.451 -1.3837 -1.4685 -2.5168
    4CHL1  H22B  280   3.059   2.006   9.468  0.7973 -0.0918 -1.2864
    4CHL1   C23  281   3.001   1.894   9.287  0.4037  0.8920 -0.5843
    4CHL1  H23A  282   2.984   1.988   9.231 -1.5966  0.6514 -0.4591
    4CHL1  H23B  283   3.102   1.849   9.272  0.2435  0.9727 -2.1011
    4CHL1   C24  284   2.897   1.789   9.227  0.1344 -0.1466  1.0686
    4CHL1  H24A  285   2.931   1.684   9.239  1.1597  0.4173  4.0449
    4CHL1  H24B  286   2.808   1.791   9.294 -1.0498 -2.1208 -0.3312
    4CHL1   C25  287   2.854   1.817   9.080  0.1286  0.3569 -0.2208
    4CHL1   H25  288   2.816   1.922   9.069  1.0276  0.5561 -1.7688
    4CHL1   C26  289   2.971   1.802   8.985  0.7158  0.2065 -0.3023
    4CHL1  H26A  290   2.991   1.694   8.967 -2.6050 -1.0245  2.2552
    4CHL1  H26B  291   2.947   1.853   8.889  0.9875  0.0326 -0.4638
    4CHL1  H26C  292   3.062   1.848   9.029  0.7038 -0.4805  0.4702
    4CHL1   C27  293   2.744   1.718   9.041  0.2478 -0.4295 -0.2880
    4CHL1  H27A  294   2.689   1.736   8.946 -2.3211 -0.7205  1.0591
    4CHL1  H27B  295   2.764   1.609   9.043 -1.1363 -0.6988  0.3406
    4CHL1  H27C  296   2.663   1.720   9.118 -0.0257 -1.2504 -0.5387
    5CHL1    C3  297   2.752   6.129  10.117  0.2731  0.3726  0.0795
    5CHL1    H3  298   2.801   6.033  10.092 -1.0905 -0.4884  0.6076
    5CHL1    O3  299   2.688   6.120  10.246 -0.0972 -0.8692 -0.5540
    5CHL1   H3'  300   2.622   6.051  10.240 -1.2722  0.2053 -0.3749
    5CHL1    C4  301   2.845   6.248  10.099 -0.3510  0.5720  0.0098
    5CHL1   H4A  302   2.801   6.345  10.130  0.0299  1.6029 -2.5073
    5CHL1   H4B  303   2.927   6.225  10.171  0.9504  1.8594 -1.0081
    5CHL1    C5  304   2.901   6.260   9.959 -0.4840  0.0720  0.6933
    5CHL1    C6  305   3.031   6.256   9.936  0.2389  0.4026 -0.2963
    5CHL1    H6  306   3.096   6.265  10.024 -1.6140  1.4889  1.0404
    5CHL1    C7  307   3.093   6.270   9.802 -0.0975  0.3450 -0.2682
    5CHL1   H7A  308   3.176   6.342   9.789 -0.2352  0.0379 -3.5360
    5CHL1   H7B  309   3.136   6.170   9.777 -1.5029 -0.0861 -1.0863
    5CHL1    C8  310   2.995   6.295   9.686  0.1065 -0.4790  0.4083
    5CHL1    H8  311   2.976   6.405   9.681 -0.3724 -0.5710  0.1207
    5CHL1   C14  312   3.050   6.257   9.555 -0.4281 -0.0546  1.2381
    5CHL1   H14  313   3.053   6.146   9.569  1.1754 -0.0303  1.2106
    5CHL1   C15  314   3.192   6.305   9.513 -0.6161  0.6146 -0.1272
    5CHL1  H15A  315   3.189   6.414   9.533 -1.9981  0.3586  1.2350
    5CHL1  H15B  316   3.276   6.248   9.559 -1.5965 -1.2701 -0.5569
    5CHL1   C16  317   3.189   6.276   9.360 -1.8345  0.3910 -0.1827
    5CHL1  H16A  318   3.224   6.360   9.297 -2.0308 -1.2354 -2.5927
    5CHL1  H16B  319   3.265   6.196   9.343 -0.6172  0.9781  2.0602
    5CHL1   C17  320   3.048   6.229   9.314  0.1460 -0.7334  0.4975
    5CHL1   H17  321   3.038   6.119   9.313 -2.7006 -0.5645 -1.5307
    5CHL1   C13  322   2.959   6.282   9.433  0.2750 -0.1858 -0.4712
    5CHL1   C18  323   2.932   6.434   9.417  0.1674 -0.1143  0.0351
    5CHL1  H18A  324   3.027   6.486   9.390  0.1161 -0.8407 -1.6936
    5CHL1  H18B  325   2.855   6.445   9.337 -0.7890 -2.8065  0.4913
    5CHL1  H18C  326   2.890   6.484   9.507  1.8219  0.0333  0.7660
    5CHL1   C12  327   2.823   6.207   9.454 -0.1527  0.6445  0.1130
    5CHL1  H12A  328   2.751   6.238   9.374 -0.0055  1.2354  0.2037
    5CHL1  H12B  329   2.833   6.098   9.440 -1.3554  0.4690  0.4984
    5CHL1   C11  330   2.759   6.241   9.591 -0.9794 -0.5463 -0.2405
    5CHL1  H11A  331   2.724   6.347   9.590 -0.1073 -0.2462 -0.2186
    5CHL1  H11B  332   2.663   6.187   9.595 -1.2876 -0.3378 -2.8913
    5CHL1    C9  333   2.856   6.220   9.710 -0.9234  0.4286  0.1701
    5CHL1    H9  334   2.878   6.111   9.708  1.8534  0.8487  2.1603
    5CHL1   C10  335   2.799   6.249   9.848  0.4470  0.4422 -0.9094
    5CHL1   C19  336   2.724   6.382   9.848 -0.2177 -0.0589 -0.1980
    5CHL1  H19A  337   2.642   6.369   9.774  1.6622 -0.5458 -2.2984
    5CHL1  H19B  338   2.687   6.417   9.946  0.0613 -1.6400  0.4940
    5CHL1  H19C  339   2.789   6.462   9.807 -1.1650 -0.5625 -2.8885
    5CHL1    C1  340   2.703   6.129   9.877  0.2737  0.2500 -0.3480
    5CHL1   H1A  341   2.629   6.135   9.795 -0.5214  0.2272  0.3494
    5CHL1   H1B  342   2.756   6.032   9.881 -1.5900 -0.8156 -0.4333
    5CHL1    C2  343   2.642   6.144  10.017  0.3268  0.2027  0.6101
    5CHL1   H2A  344   2.575   6.056  10.033 -0.3938  0.6928  0.3660
    5CHL1   H2B  345   2.577   6.233  10.031  0.0679  0.6600 -2.6938
    5CHL1   C20  346   3.018   6.267   9.173  0.0399  0.1429  0.7089
    5CHL1   H20  347   3.023   6.377   9.164  0.8412  0.0211 -0.5617
    5CHL1   C21  348   2.878   6.227   9.139  0.5388  0.6305 -0.2779
    5CHL1  H21A  349   2.800   6.282   9.196 -0.3110  1.5809 -2.2655
    5CHL1  H21B  350   2.851   6.119   9.145 -1.5614  1.0721 -0.9934
    5CHL1  H21C  351   2.860   6.260   9.035  0.0503  0.7379 -0.1565
    5CHL1   C22  352   3.121   6.209   9.072 -0.0535  0.0388 -1.1243
    5CHL1  H22A  353   3.218   6.254   9.102  0.6793 -0.2079 -2.9464
    5CHL1  H22B  354   3.138   6.102   9.097 -2.3900 -0.2739 -0.6970
    5CHL1   C23  355   3.108   6.245   8.922 -0.3294  0.4499  0.0150
    5CHL1  H23A  356   3.002   6.236   8.892 -1.6548  4.9579  2.3171
    5CHL1  H23B  357   3.136   6.352   8.909 -0.2246  0.2443 -1.7120
    5CHL1   C24  358   3.205   6.170   8.833 -0.4536 -0.2760 -0.6338
    5CHL1  H24A  359   3.188   6.061   8.825 -0.8796 -0.2167 -0.5377
    5CHL1  H24B  360   3.186   6.207   8.730 -1.0710  1.3600  0.0350
    5CHL1   C25  361   3.349   6.208   8.847  0.1053  0.4394 -0.1413
    5CHL1   H25  362   3.360   6.187   8.955 -0.7706  1.1457  0.0940
    5CHL1   C26  363   3.446   6.106   8.771  0.2659  0.4379  0.5541
    5CHL1  H26A  364   3.430   6.006   8.817  2.7883 -0.3839 -0.1651
    5CHL1  H26B  365   3.424   6.109   8.663 -0.5290  0.2237  0.7090
    5CHL1  H26C  366   3.551   6.138   8.788  0.3207  0.1970  0.6768
    5CHL1   C27  367   3.397   6.354   8.825  0.3413 -0.5850 -0.9517
    5CHL1  H27A  368   3.494   6.346   8.877 -1.6705 -2.3729  2.9419
    5CHL1  H27B  369   3.403   6.376   8.716 -1.2866 -0.5535 -1.0648
    5CHL1  H27C  370   3.333   6.428   8.879 -1.7345 -0.1702 -3.7289
    6CHL1    C3  371   0.601   2.821  10.429 -0.3386  0.4437  0.2716
    6CHL1    H3  372   0.554   2.729  10.389  1.4720 -0.1222 -0.6531
    6CHL1    O3  373   0.629   2.791  10.564 -0.1973  0.2901 -0.2668
    6CHL1   H3'  374   0.714   2.747  10.567  0.1983  1.0661  0.0731
    6CHL1    C4  375   0.739   2.855  10.357  0.1534 -0.1530  0.3304
    6CHL1   H4A  376   0.782   2.933  10.424 -0.3528 -0.4154  0.9637
    6CHL1   H4B  377   0.804   2.765  10.354  0.7368  0.0454 -5.8475
    6CHL1    C5  378   0.715   2.900  10.211 -0.2646 -0.0199 -0.4047
    6CHL1    C6  379   0.778   2.827  10.114  0.2599  0.8371  0.2376
    6CHL1    H6  380   0.846   2.745  10.143  0.1236  0.2955 -0.9156
    6CHL1    C7  381   0.764   2.867   9.971  0.5665  0.1421 -0.0048
    6CHL1   H7A  382   0.858   2.860   9.913  1.3293  0.9649  1.1048
    6CHL1   H7B  383   0.702   2.791   9.919  1.0379  0.5041 -1.1261
    6CHL1    C8  384   0.710   3.014   9.951  0.2967  0.1665  0.1326
    6CHL1    H8  385   0.797   3.083   9.962  0.6403 -0.2373 -0.0592
    6CHL1   C14  386   0.662   3.028   9.803  0.4636 -0.5483  0.7740
    6CHL1   H14  387   0.580   2.953   9.796  1.6889 -1.7696 -2.3149
    6CHL1   C15  388   0.761   2.982   9.697  0.4895  0.3234  0.7376
    6CHL1  H15A  389   0.858   3.031   9.720  0.3474  1.9726 -1.8275
    6CHL1  H15B  390   0.769   2.873   9.679  0.4857  0.7230 -2.1851
    6CHL1   C16  391   0.697   3.048   9.569  0.1707 -0.4982  0.0924
    6CHL1  H16A  392   0.773   3.119   9.531 -1.5530  1.2743 -0.2421
    6CHL1  H16B  393   0.683   2.964   9.497 -1.1961  0.4438 -0.8146
    6CHL1   C17  394   0.571   3.133   9.613  0.0690  0.4675 -0.0016
    6CHL1   H17  395   0.475   3.076   9.606  0.2205  0.4336 -2.8974
    6CHL1   C13  396   0.605   3.161   9.759  0.3716  0.1695  0.3694
    6CHL1   C18  397   0.716   3.267   9.782 -0.3296  0.2705  0.3869
    6CHL1  H18A  398   0.804   3.244   9.718  1.8202 -0.3888  3.3609
    6CHL1  H18B  399   0.670   3.366   9.762  0.7027  1.0717  1.7886
    6CHL1  H18C  400   0.755   3.271   9.886 -1.2802  0.7787  0.7291
    6CHL1   C12  401   0.497   3.204   9.861  0.7911  0.8972 -0.2559
    6CHL1  H12A  402   0.458   3.306   9.842  1.2944  0.8838 -1.4373
    6CHL1  H12B  403   0.406   3.142   9.846  1.9477 -0.8281 -0.4420
    6CHL1   C11  404   0.541   3.192  10.007  0.0992 -0.1385 -0.2638
    6CHL1  H11A  405   0.605   3.275  10.043 -3.4813  2.8902 -0.2109
    6CHL1  H11B  406   0.446   3.213  10.061 -0.9421 -1.3165 -1.5545
    6CHL1    C9  407   0.595   3.052  10.049  0.1595  0.0614 -0.1879
    6CHL1    H9  408   0.517   2.978  10.020  2.4548 -2.0850 -1.2423
    6CHL1   C10  409   0.628   3.020  10.196 -0.1902 -0.9785  0.0155
    6CHL1   C19  410   0.700   3.145  10.258  0.0796 -0.1952 -0.7729
    6CHL1  H19A  411   0.786   3.170  10.192 -0.2495 -0.0169 -1.1336
    6CHL1  H19B  412   0.631   3.231  10.247  0.5806  0.7784  2.4827
    6CHL1  H19C  413   0.740   3.129  10.361 -1.3230 -1.1066 -0.3456
    6CHL1    C1  414   0.496   2.987  10.268  0.0374 -0.0011 -0.5408
    6CHL1   H1A  415   0.422   3.070  10.263 -0.8464 -0.6392  1.2293
    6CHL1   H1B  416   0.450   2.899  10.219 -1.8610  1.5756 -1.7677
    6CHL1    C2  417   0.512   2.941  10.416  0.2736  0.3431  0.2650
    6CHL1   H2A  418   0.411   2.922  10.459  1.6555 -0.6133  3.4113
    6CHL1   H2B  419   0.560   3.026  10.468  4.1242 -1.4661  0.0450
    6CHL1   C20  420   0.557   3.260   9.522  0.4019  0.1752  0.5597
    6CHL1   H20  421   0.654   3.313   9.525  2.1906 -2.7755 -0.2590
    6CHL1   C21  422   0.444   3.351   9.567 -0.0539 -0.7948  0.4088
    6CHL1  H21A  423   0.356   3.289   9.592  0.3450 -2.8204 -2.7189
    6CHL1  H21B  424   0.409   3.421   9.488 -0.0840  0.4757  1.4983
    6CHL1  H21C  425   0.468   3.411   9.658 -0.4309 -2.0864  1.3776
    6CHL1   C22  426   0.530   3.212   9.374  0.0222  0.5055 -0.3234
    6CHL1  H22A  427   0.609   3.140   9.345  0.1545 -0.1424  1.5202
    6CHL1  H22B  428   0.427   3.171   9.372 -1.0133  2.9177 -0.7713
    6CHL1   C23  429   0.538   3.317   9.261  0.4057  0.0756 -0.3828
    6CHL1  H23A  430   0.464   3.398   9.281 -1.3813 -1.7551  0.7423
    6CHL1  H23B  431   0.642   3.355   9.264 -0.0201  1.3016 -0.4589
    6CHL1   C24  432   0.513   3.252   9.117 -0.2775  0.1776  0.8890
    6CHL1  H24A  433   0.587   3.169   9.122 -1.0557 -0.4863  1.9326
    6CHL1  H24B  434   0.418   3.195   9.105 -0.3084  0.7800 -2.8887
    6CHL1   C25  435   0.546   3.361   9.005  0.2555  0.2722  0.6903
    6CHL1   H25  436   0.490   3.450   9.040 -1.5845 -0.4796 -0.1841
    6CHL1   C26  437   0.698   3.393   8.984  0.4813  0.7440  0.6875
    6CHL1  H26A  438   0.738   3.439   9.077 -0.4272  0.0315  1.4515
    6CHL1  H26B  439   0.746   3.301   8.945 -0.4565  1.1712 -1.6369
    6CHL1  H26C  440   0.716   3.469   8.905  0.1837 -0.4046 -0.5266
    6CHL1   C27  441   0.494   3.307   8.873 -0.3839 -0.1085 -0.3975
    6CHL1  H27A  442   0.393   3.263   8.876  0.2111 -1.5974 -1.3192
    6CHL1  H27B  443   0.512   3.368   8.782  3.1119  0.6358  0.6330
    6CHL1  H27C  444   0.577   3.239   8.845  1.1429  2.9717 -4.3202
    7CHL1    C3  445   2.746   6.622  10.367  0.1387 -0.2502 -0.2050
    7CHL1    H3  446   2.746   6.523  10.315 -0.6444 -0.5693  0.3836
    7CHL1    O3  447   2.753   6.604  10.509 -0.1508 -0.5911  0.1956
    7CHL1   H3'  448   2.673   6.566  10.543  1.8119 -4.6410  0.8317
    7CHL1    C4  449   2.867   6.700  10.314 -0.4899 -0.6807  0.8290
    7CHL1   H4A  450   2.869   6.797  10.368  0.5071 -0.0730 -0.2511
    7CHL1   H4B  451   2.962   6.651  10.342 -0.1617 -0.4199  0.1828
    7CHL1    C5  452   2.861   6.719  10.164  0.2572 -0.0835 -0.1595
    7CHL1    C6  453   2.944   6.661  10.081 -1.0396 -0.0969 -0.3902
    7CHL1    H6  454   3.022   6.601  10.130 -1.8739 -1.1751 -0.3512
    7CHL1    C7  455   2.963   6.688   9.938  0.2408 -0.3708 -0.1883
    7CHL1   H7A  456   3.061   6.732   9.911 -0.6815  1.3681 -0.8557
    7CHL1   H7B  457   2.950   6.591   9.885 -0.7939 -1.0738  1.2628
    7CHL1    C8  458   2.873   6.802   9.881 -0.6709  0.2144 -0.2136
    7CHL1    H8  459   2.922   6.899   9.905  1.8622  0.5332 -5.3230
    7CHL1   C14  460   2.847   6.799   9.735  0.4994 -0.5354  0.6260
    7CHL1   H14  461   2.802   6.698   9.720 -0.5352  0.1468 -1.2165
    7CHL1   C15  462   2.969   6.792   9.646 -0.1517  0.6879  0.2867
    7CHL1  H15A  463   3.039   6.865   9.692 -0.0690  1.1652 -0.5855
    7CHL1  H15B  464   3.017   6.692   9.651  0.9763  1.2245  0.3869
    7CHL1   C16  465   2.919   6.841   9.506 -0.1933  0.7984 -0.5663
    7CHL1  H16A  466   2.981   6.929   9.481  2.7449 -0.9564 -0.0171
    7CHL1  H16B  467   2.932   6.760   9.431  2.1726 -0.5843  1.1795
    7CHL1   C17  468   2.764   6.864   9.526 -0.9806  0.0811  0.2574
    7CHL1   H17  469   2.705   6.775   9.498 -1.5220  0.2337  0.8846
    7CHL1   C13  470   2.752   6.899   9.674 -0.0423 -0.8120  0.0458
    7CHL1   C18  471   2.796   7.053   9.681  0.3688  0.0470  0.4836
    7CHL1  H18A  472   2.709   7.120   9.663 -1.6073 -3.0110 -2.6704
    7CHL1  H18B  473   2.829   7.080   9.784  1.6219  1.6340 -0.2906
    7CHL1  H18C  474   2.872   7.081   9.605 -1.2356  0.2370 -1.1179
    7CHL1   C12  475   2.622   6.870   9.745  0.3217 -0.3812 -1.1255
    7CHL1  H12A  476   2.551   6.950   9.715  1.6628  1.7574  0.9598
    7CHL1  H12B  477   2.585   6.769   9.718 -2.0246 -0.6538  2.4810
    7CHL1   C11  478   2.642   6.900   9.898  0.6495  0.7918  0.3709
    7CHL1  H11A  479   2.665   7.007   9.915 -0.7505  1.1907 -0.1298
    7CHL1  H11B  480   2.547   6.892   9.954  1.3878  2.7554  2.0097
    7CHL1    C9  481   2.736   6.802   9.963 -0.1911  0.7962  0.1717
    7CHL1    H9  482   2.694   6.701   9.943  1.5204 -0.1056  0.8701
    7CHL1   C10  483   2.735   6.802  10.115  0.3764 -0.6073 -0.3958
    7CHL1   C19  484   2.750   6.950  10.172  0.6417 -0.0453 -0.4098
    7CHL1  H19A  485   2.733   6.949  10.282 -0.5100  0.1562 -0.5719
    7CHL1  H19B  486   2.847   7.003  10.158 -1.2693  3.9463 -0.0107
    7CHL1  H19C  487   2.671   7.014  10.129 -0.0310 -0.2989  0.4230
    7CHL1    C1  488   2.617   6.733  10.179  0.5515 -0.4504  0.6676
    7CHL1   H1A  489   2.524   6.785  10.148  1.8258  1.3819 -0.2376
    7CHL1   H1B  490   2.616   6.635  10.126  2.3938  0.3210 -0.9142
    7CHL1    C2  491   2.624   6.694  10.329  0.8431 -1.0230 -0.0087
    7CHL1   H2A  492   2.531   6.647  10.366  1.6021 -0.3553  2.9759
    7CHL1   H2B  493   2.618   6.793  10.380 -1.2868 -0.8704 -0.4359
    7CHL1   C20  494   2.708   6.969   9.422 -0.5983 -0.1005  0.1112
    7CHL1   H20  495   2.748   7.073   9.432 -1.6369  0.1656  1.9310
    7CHL1   C21  496   2.559   6.980   9.440  0.2817  0.5275 -0.0025
    7CHL1  H21A  497   2.518   7.062   9.377 -1.7726 -0.8056 -0.4996
    7CHL1  H21B  498   2.536   7.017   9.542 -0.2892  0.4388 -0.0958
    7CHL1  H21C  499   2.496   6.890   9.420  1.1670  0.1212 -1.0701
    7CHL1   C22  500   2.734   6.931   9.271  0.3611  0.4483  0.5626
    7CHL1  H22A  501   2.691   7.019   9.220  1.7558  1.8827  1.7442
    7CHL1  H22B  502   2.841   6.921   9.242  0.6334  0.9847  1.3573
    7CHL1   C23  503   2.678   6.805   9.212  0.2756  0.5495  0.1515
    7CHL1  H23A  504   2.710   6.722   9.278 -1.0129  1.0110  1.3960
    7CHL1  H23B  505   2.568   6.820   9.221  0.3746 -0.0607  3.2829
    7CHL1   C24  506   2.718   6.778   9.069 -0.9976  0.0781 -0.8054
    7CHL1  H24A  507   2.722   6.877   9.018  2.4993  0.6064  0.2629
    7CHL1  H24B  508   2.820   6.733   9.069 -0.8723  0.3662 -0.7693
    7CHL1   C25  509   2.615   6.693   8.995 -0.4984  0.2902 -0.1907
    7CHL1   H25  510   2.518   6.742   9.016 -1.0859 -0.3929 -1.2011
    7CHL1   C26  511   2.645   6.682   8.843 -0.6131  0.3132 -0.5508
    7CHL1  H26A  512   2.753   6.657   8.830 -0.1477  2.3832 -1.0730
    7CHL1  H26B  513   2.578   6.601   8.807  1.1044 -1.5953  0.3619
    7CHL1  H26C  514   2.612   6.776   8.793 -0.4852  1.7781  1.9568
    7CHL1   C27  515   2.602   6.549   9.053  0.4451 -0.5203 -0.5205
    7CHL1  H27A  516   2.546   6.553   9.149 -2.8607  2.1991 -2.3070
    7CHL1  H27B  517   2.526   6.491   8.996  0.9147  0.8311 -2.6288
    7CHL1  H27C  518   2.695   6.490   9.057  1.0687  0.4227  4.0204
    8CHL1    C3  519   4.442   1.073  10.418 -0.3399  0.3561  0.0598
    8CHL1    H3  520   4.540   1.028  10.392 -0.8882 -1.3452  0.7816
    8CHL1    O3  521   4.442   1.073  10.562 -0.1847  0.5887  0.0669
    8CHL1   H3'  522   4.506   1.140  10.585 -2.0499  2.0837  1.1449
    8CHL1    C4  523   4.410   1.209  10.370  0.6635 -0.5662  1.0070
    8CHL1   H4A  524   4.308   1.236  10.405  1.5283  2.2571  1.5991
    8CHL1   H4B  525   4.473   1.288  10.416 -1.4488  0.2489  2.6410
    8CHL1    C5  526   4.419   1.211  10.213 -0.3232 -0.3407 -0.0967
    8CHL1    C6  527   4.504   1.300  10.148 -0.1748  0.6126  0.3000
    8CHL1    H6  528   4.548   1.379  10.211  1.5164  0.4946 -0.6813
    8CHL1    C7  529   4.517   1.307   9.996 -0.3012  0.0278  0.0784
    8CHL1   H7A  530   4.496   1.408   9.953 -0.9163 -0.3460 -0.5221
    8CHL1   H7B  531   4.609   1.257   9.958 -0.2418 -1.6340  2.2381
    8CHL1    C8  532   4.395   1.228   9.927 -0.6182  0.1423 -0.1225
    8CHL1    H8  533   4.312   1.302   9.927  1.1416  2.2379 -1.1831
    8CHL1   C14  534   4.443   1.193   9.784 -0.3552 -0.5632  0.5417
    8CHL1   H14  535   4.526   1.120   9.787 -2.1087 -2.6233  1.8217
    8CHL1   C15  536   4.494   1.307   9.702  0.3837  0.6545  0.0438
    8CHL1  H15A  537   4.430   1.396   9.716 -1.9579 -0.7402 -1.1578
    8CHL1  H15B  538   4.602   1.327   9.724  0.4071 -0.9245  1.5860
    8CHL1   C16  539   4.471   1.251   9.555 -1.5090 -0.6508 -0.1644
    8CHL1  H16A  540   4.409   1.320   9.494 -1.1117  1.1214  1.3165
    8CHL1  H16B  541   4.570   1.247   9.507 -1.7245 -1.9666 -0.5447
    8CHL1   C17  542   4.411   1.110   9.569 -0.1411 -0.4282 -0.3427
    8CHL1   H17  543   4.500   1.044   9.583  0.8845  0.3670 -2.5723
    8CHL1   C13  544   4.334   1.117   9.704 -0.0947  0.1592  0.3456
    8CHL1   C18  545   4.203   1.197   9.677  0.4130 -0.5252 -0.2018
    8CHL1  H18A  546   4.151   1.205   9.775  2.7605  0.4139  1.0566
    8CHL1  H18B  547   4.229   1.292   9.626  1.8249 -1.5628 -1.5005
    8CHL1  H18C  548   4.146   1.130   9.611  0.6823 -0.6323 -0.3283
    8CHL1   C12  549   4.299   0.983   9.771 -0.9305  0.1609  0.4500
    8CHL1  H12A  550   4.220   0.930   9.714 -1.4188  1.1240  0.2108
    8CHL1  H12B  551   4.392   0.922   9.767 -0.9177  0.2318 -0.7819
    8CHL1   C11  552   4.263   1.003   9.919 -0.1270 -0.0231 -0.1338
    8CHL1  H11A  553   4.168   1.060   9.922  0.4954  1.0093  1.8947
    8CHL1  H11B  554   4.247   0.910   9.978 -4.1072  1.2901  1.1426
    8CHL1    C9  555   4.369   1.095   9.988  0.7578  0.2188 -0.3726
    8CHL1    H9  556   4.459   1.031   9.976  0.9877  0.6905 -1.1938
    8CHL1   C10  557   4.336   1.107  10.142 -0.0208  0.9986 -0.3012
    8CHL1   C19  558   4.196   1.151  10.163  0.0390 -0.4796  0.1152
    8CHL1  H19A  559   4.159   1.160  10.267 -0.2159  2.4464 -0.1526
    8CHL1  H19B  560   4.174   1.245  10.110 -1.2175 -0.9846 -0.3052
    8CHL1  H19C  561   4.113   1.093  10.118 -1.9118  2.6141 -0.5182
    8CHL1    C1  562   4.350   0.972  10.214 -0.4797  0.3414  0.1094
    8CHL1   H1A  563   4.276   0.897  10.178 -0.4737  0.9131 -1.1658
    8CHL1   H1B  564   4.446   0.924  10.185 -1.0457 -1.5009  1.1005
    8CHL1    C2  565   4.339   0.973  10.366  0.2153 -0.2045  0.3359
    8CHL1   H2A  566   4.363   0.871  10.403  0.1258 -1.7743 -3.4823
    8CHL1   H2B  567   4.247   1.009  10.416  0.7008  0.9217  0.4588
    8CHL1   C20  568   4.352   1.052   9.435 -0.3999 -0.1385  0.7027
    8CHL1   H20  569   4.255   1.102   9.413  0.0524  1.4290  2.0689
    8CHL1   C21  570   4.301   0.906   9.453 -0.5859  0.4608 -0.4177
    8CHL1  H21A  571   4.392   0.848   9.479 -0.5269  0.6783 -0.1317
    8CHL1  H21B  572   4.276   0.860   9.355  0.0904 -0.1328 -0.3222
    8CHL1  H21C  573   4.212   0.905   9.519 -0.3206  0.3992 -0.0595
    8CHL1   C22  574   4.448   1.080   9.319 -0.1982 -0.0438 -0.0519
    8CHL1  H22A  575   4.473   1.189   9.314  3.3768 -0.6508  1.1566
    8CHL1  H22B  576   4.548   1.037   9.343  1.1189  2.7654 -0.1110
    8CHL1   C23  577   4.422   1.023   9.179  0.9065  0.1837  0.0450
    8CHL1  H23A  578   4.503   1.052   9.109  1.6966 -2.3533 -0.1894
    8CHL1  H23B  579   4.409   0.913   9.173  0.9962  0.2242 -1.0129
    8CHL1   C24  580   4.279   1.066   9.130 -0.0329  0.7639  0.2533
    8CHL1  H24A  581   4.252   1.012   9.037  0.5122  0.4790  0.2571
    8CHL1  H24B  582   4.202   1.034   9.203 -0.9011  1.7204 -0.2143
    8CHL1   C25  583   4.254   1.217   9.118 -0.2452 -0.2590 -0.3563
    8CHL1   H25  584   4.269   1.263   9.218 -3.3758  0.5669 -0.1626
    8CHL1   C26  585   4.341   1.285   9.008 -0.7339 -0.1322  0.2012
    8CHL1  H26A  586   4.303   1.389   9.015  2.1471  0.9443  1.3574
    8CHL1  H26B  587   4.443   1.300   9.048 -0.6871 -2.1715  0.9300
    8CHL1  H26C  588   4.352   1.236   8.909 -2.7879 -2.3405  0.9641
    8CHL1   C27  589   4.105   1.236   9.093  0.4877 -0.3992 -0.0277
    8CHL1  H27A  590   4.086   1.201   8.989 -1.1917 -1.1743  0.5054
    8CHL1  H27B  591   4.046   1.175   9.163 -0.5400 -0.4200 -0.8859
    8CHL1  H27C  592   4.068   1.341   9.101  3.4018  0.9078 -1.8383
    9CHL1    C3  593   1.284   4.069  10.331 -0.3659 -0.5478 -0.4024
    9CHL1    H3  594   1.391   4.053  10.304 -0.1767 -0.1381  0.0767
    9CHL1    O3  595   1.286   4.067  10.474  0.4865  0.0581 -0.1530
    9CHL1   H3'  596   1.194   4.072  10.499  0.2656  0.3400 -0.9972
    9CHL1    C4  597   1.219   4.197  10.270 -0.8341 -0.2213 -0.6788
    9CHL1   H4A  598   1.119   4.209  10.317 -0.0064  0.0297  1.1439
    9CHL1   H4B  599   1.280   4.287  10.296  1.0283 -1.0268 -2.0508
    9CHL1    C5  600   1.206   4.197  10.122  0.0814  0.2639 -0.1366
    9CHL1    C6  601   1.265   4.290  10.046  0.7135 -0.7302 -0.1614
    9CHL1    H6  602   1.332   4.361  10.097  0.6280 -0.9111  0.2075
    9CHL1    C7  603   1.263   4.295   9.898 -1.0513 -0.3465  0.5814
    9CHL1   H7A  604   1.223   4.393   9.864 -0.1039 -0.7424 -1.8866
    9CHL1   H7B  605   1.369   4.281   9.869 -0.3263 -0.7999  3.2458
    9CHL1    C8  606   1.173   4.185   9.832 -0.3261 -0.2971 -0.3358
    9CHL1    H8  607   1.066   4.217   9.837 -0.5369 -0.9513 -0.5470
    9CHL1   C14  608   1.218   4.149   9.691  0.5277  0.4623 -0.9153
    9CHL1   H14  609   1.318   4.104   9.713 -1.4096 -2.2186  4.1012
    9CHL1   C15  610   1.228   4.268   9.595 -0.0220 -0.1409 -0.7457
    9CHL1  H15A  611   1.141   4.338   9.605 -1.2262 -1.7741  0.8547
    9CHL1  H15B  612   1.321   4.328   9.601 -0.0122 -0.2739  1.0561
    9CHL1   C16  613   1.232   4.203   9.465  0.3668  0.1724  0.5593
    9CHL1  H16A  614   1.144   4.239   9.409 -1.3248 -1.4757  2.0087
    9CHL1  H16B  615   1.330   4.226   9.417 -0.1378  0.7179 -0.2171
    9CHL1   C17  616   1.214   4.048   9.485 -0.1979 -0.2913  0.7324
    9CHL1   H17  617   1.317   4.007   9.484  0.4225  1.2280  0.3407
    9CHL1   C13  618   1.143   4.038   9.621 -0.3737  0.4557  0.1998
    9CHL1   C18  619   0.991   4.071   9.599 -0.1984  0.3127  0.2920
    9CHL1  H18A  620   0.930   3.992   9.550  1.0337  0.0534 -0.9049
    9CHL1  H18B  621   0.952   4.106   9.697 -0.5436 -0.3442  0.3936
    9CHL1  H18C  622   0.978   4.156   9.529  1.2810 -0.1944 -0.6433
    9CHL1   C12  623   1.164   3.915   9.705 -0.5849 -0.2276 -0.5359
    9CHL1  H12A  624   1.115   3.826   9.660 -0.3482 -0.1840 -0.8785
    9CHL1  H12B  625   1.273   3.899   9.713 -0.5368 -0.0269 -0.7742
    9CHL1   C11  626   1.114   3.942   9.849 -0.0890  0.7174 -0.5437
    9CHL1  H11A  627   1.003   3.943   9.840 -0.3529 -4.7162 -1.4330
    9CHL1  H11B  628   1.135   3.849   9.906 -2.5364  1.2868  1.4628
    9CHL1    C9  629   1.187   4.053   9.915 -0.0975  0.0040  0.3444
    9CHL1    H9  630   1.297   4.034   9.911  0.1691  0.5421  3.1334
    9CHL1   C10  631   1.146   4.070  10.060 -0.1909  0.0865  0.0875
    9CHL1   C19  632   0.998   4.083  10.082 -0.1093 -0.4266 -0.1725
    9CHL1  H19A  633   0.974   4.109  10.187 -1.2895 -0.7554 -0.3422
    9CHL1  H19B  634   0.957   4.166  10.019  1.5046  1.5824  1.2775
    9CHL1  H19C  635   0.948   3.986  10.064 -0.3424 -0.3687  0.1398
    9CHL1    C1  636   1.198   3.946  10.135 -0.2938  0.1511 -0.0062
    9CHL1   H1A  637   1.137   3.861  10.098  1.7537 -1.2918 -0.2416
    9CHL1   H1B  638   1.301   3.931  10.095  0.3037 -0.5846  1.7051
    9CHL1    C2  639   1.200   3.944  10.285  0.1092 -1.0224 -0.3289
    9CHL1   H2A  640   1.235   3.854  10.339  0.2999  0.1575  1.6256
    9CHL1   H2B  641   1.100   3.969  10.326 -0.0578  0.1834 -1.3846
    9CHL1   C20  642   1.138   3.993   9.353 -0.0038 -0.7447 -0.0305
    9CHL1   H20  643   1.045   4.049   9.328  0.3575 -0.0072  0.2567
    9CHL1   C21  644   1.082   3.849   9.378  0.1653 -0.2094  1.1667
    9CHL1  H21A  645   0.985   3.845   9.432 -1.1681  2.1551 -0.8176
    9CHL1  H21B  646   1.162   3.797   9.434  3.0893  1.6314 -0.9623
    9CHL1  H21C  647   1.065   3.790   9.285 -1.7304  0.2245  1.1888
    9CHL1   C22  648   1.236   3.997   9.231 -0.5952 -0.0594 -0.0856
    9CHL1  H22A  649   1.295   4.091   9.236  0.0191 -0.3259 -1.7796
    9CHL1  H22B  650   1.310   3.915   9.243  0.7692  1.2007  0.5466
    9CHL1   C23  651   1.161   3.990   9.100 -0.3485 -0.1759 -0.2932
    9CHL1  H23A  652   1.237   3.972   9.020  0.9482 -1.4960  1.1855
    9CHL1  H23B  653   1.093   3.903   9.102  0.0794 -0.5479 -1.1450
    9CHL1   C24  654   1.104   4.126   9.068  0.3279 -1.0489 -0.2843
    9CHL1  H24A  655   1.018   4.134   9.137  0.4697  0.8601 -0.2834
    9CHL1  H24B  656   1.173   4.205   9.103  0.3991 -1.1686 -0.1498
    9CHL1   C25  657   1.047   4.167   8.931 -0.0441 -0.4361 -0.3966
    9CHL1   H25  658   1.015   4.071   8.886 -3.0102 -0.3134  1.2107
    9CHL1   C26  659   0.936   4.274   8.937  1.0580  0.2169  0.1751
    9CHL1  H26A  660   0.908   4.297   8.832  3.1776 -1.0755 -0.7387
    9CHL1  H26B  661   0.847   4.246   8.998 -0.7322  0.1954 -2.2861
    9CHL1  H26C  662   0.979   4.369   8.975  0.5437  0.9021 -0.8865
    9CHL1   C27  663   1.168   4.216   8.840  0.1507 -0.4135 -0.0449
    9CHL1  H27A  664   1.254   4.146   8.851 -1.2929 -1.9652  2.2178
    9CHL1  H27B  665   1.144   4.233   8.733  3.1899  2.0400 -0.4737
    9CHL1  H27C  666   1.203   4.314   8.878  0.0196  0.9002 -3.0915
   10CHL1    C3  667   5.869   1.184  10.289 -0.6211 -0.2600 -0.4739
   10CHL1    H3  668   5.891   1.105  10.214  0.4831  0.1323 -0.5839
   10CHL1    O3  669   5.836   1.125  10.414  0.5992  0.0225 -0.8959
   10CHL1   H3'  670   5.823   1.204  10.467  0.5863 -0.8407  0.4276
   10CHL1    C4  671   5.990   1.287  10.297 -0.1273  0.6982  0.0049
   10CHL1   H4A  672   5.960   1.360  10.375 -1.3282  0.6612 -0.3995
   10CHL1   H4B  673   6.083   1.241  10.337  1.5560  3.7153 -0.1624
   10CHL1    C5  674   6.014   1.346  10.157 -0.0980 -0.5119 -0.7521
   10CHL1    C6  675   6.136   1.343  10.105 -0.1120 -0.2780  0.2088
   10CHL1    H6  676   6.218   1.292  10.158 -0.2080 -0.8528 -0.1888
   10CHL1    C7  677   6.173   1.402   9.973 -0.1807 -0.0255 -0.1427
   10CHL1   H7A  678   6.264   1.463   9.989  0.0633 -0.8220  1.7843
   10CHL1   H7B  679   6.197   1.319   9.904  4.4299 -0.4785  1.6574
   10CHL1    C8  680   6.059   1.488   9.910 -0.1549 -0.4972  0.0790
   10CHL1    H8  681   6.055   1.577   9.976 -1.2359 -1.3274  1.2068
   10CHL1   C14  682   6.072   1.511   9.761  0.3396  0.1006  0.0087
   10CHL1   H14  683   6.069   1.408   9.720 -0.4870  0.8339 -1.9056
   10CHL1   C15  684   6.203   1.571   9.706  0.2042  0.7659  0.5007
   10CHL1  H15A  685   6.244   1.652   9.771  0.7937 -0.1043  1.2456
   10CHL1  H15B  686   6.282   1.493   9.719 -0.1223  0.7167  2.5240
   10CHL1   C16  687   6.167   1.616   9.559 -0.6676  0.0339  0.1490
   10CHL1  H16A  688   6.185   1.724   9.546  0.9888 -0.2312 -0.0250
   10CHL1  H16B  689   6.215   1.556   9.478 -1.0159 -1.4732  1.0035
   10CHL1   C17  690   6.010   1.594   9.547  0.2888 -0.5248  0.0932
   10CHL1   H17  691   6.007   1.487   9.518  1.4538 -0.1944 -1.4111
   10CHL1   C13  692   5.956   1.595   9.692  0.5845 -0.2297  1.1725
   10CHL1   C18  693   5.963   1.731   9.744 -0.4329 -0.6799 -0.1180
   10CHL1  H18A  694   6.063   1.779   9.735 -1.8522  3.1124  1.7363
   10CHL1  H18B  695   5.904   1.801   9.681  2.2186  2.7605  0.8773
   10CHL1  H18C  696   5.947   1.744   9.853  1.4666 -0.9716  0.2445
   10CHL1   C12  697   5.817   1.535   9.721 -0.7813 -0.4875 -0.4449
   10CHL1  H12A  698   5.747   1.612   9.682  0.6569  2.0117  1.6391
   10CHL1  H12B  699   5.810   1.440   9.664  2.3974 -1.6696  0.9191
   10CHL1   C11  700   5.797   1.514   9.869  0.0812 -0.2253 -0.3247
   10CHL1  H11A  701   5.801   1.614   9.917 -0.5205 -1.0082  1.4632
   10CHL1  H11B  702   5.696   1.472   9.890  1.0582 -1.7498  1.6595
   10CHL1    C9  703   5.915   1.433   9.937  0.8708 -0.4329  0.0140
   10CHL1    H9  704   5.907   1.337   9.882  0.8688 -0.7583  0.5699
   10CHL1   C10  705   5.892   1.410  10.087 -0.1032  0.1506  0.0800
   10CHL1   C19  706   5.867   1.544  10.157  0.0133 -0.1146 -0.1281
   10CHL1  H19A  707   5.940   1.619  10.119 -0.7582  0.9388  0.4298
   10CHL1  H19B  708   5.763   1.582  10.146  0.1446  0.2137 -0.2669
   10CHL1  H19C  709   5.873   1.532  10.268  0.4211  0.5480 -0.0691
   10CHL1    C1  710   5.773   1.304  10.091 -0.5670  0.0982  0.3159
   10CHL1   H1A  711   5.678   1.344  10.049  0.2073  1.1036 -0.5392
   10CHL1   H1B  712   5.791   1.217  10.023 -0.3259 -0.6523  1.3201
   10CHL1    C2  713   5.750   1.251  10.232  0.3922  0.5013  0.1501
   10CHL1   H2A  714   5.668   1.177  10.215  1.7876 -0.2323 -5.1711
   10CHL1   H2B  715   5.713   1.331  10.300  0.0551  0.7653 -0.3323
   10CHL1   C20  716   5.938   1.673   9.434  1.2819  0.4049  0.6978
   10CHL1   H20  717   5.902   1.770   9.477 -0.3911  0.4366 -0.6785
   10CHL1   C21  718   5.814   1.595   9.378 -0.1457  0.2414 -0.3892
   10CHL1  H21A  719   5.771   1.636   9.284 -2.1323 -0.7329  0.0410
   10CHL1  H21B  720   5.734   1.599   9.454 -0.5538 -2.3425 -0.6119
   10CHL1  H21C  721   5.843   1.489   9.362  2.9126  1.0649 -0.8827
   10CHL1   C22  722   6.032   1.712   9.316 -0.0759 -0.1983 -0.5664
   10CHL1  H22A  723   6.121   1.757   9.366 -0.6878  0.5249 -0.0960
   10CHL1  H22B  724   6.072   1.628   9.255 -2.7845 -0.3432 -2.3027
   10CHL1   C23  725   5.980   1.820   9.226 -0.7403 -0.1861 -0.4206
   10CHL1  H23A  726   5.891   1.776   9.176 -1.1072 -0.1751  0.2118
   10CHL1  H23B  727   5.950   1.913   9.280 -1.4113 -0.5054 -0.2397
   10CHL1   C24  728   6.077   1.858   9.112 -0.4641 -0.9075  0.2242
   10CHL1  H24A  729   6.168   1.903   9.156  0.3149 -2.3676  0.1570
   10CHL1  H24B  730   6.105   1.760   9.067  0.7533 -1.5109  2.1852
   10CHL1   C25  731   6.013   1.949   8.995  0.7176  0.3812  0.2744
   10CHL1   H25  732   5.968   2.033   9.052 -0.1685 -0.4860  0.9000
   10CHL1   C26  733   6.122   1.999   8.900  0.5864 -0.0839 -0.3797
   10CHL1  H26A  734   6.197   2.059   8.957  0.6726 -0.2629 -0.3017
   10CHL1  H26B  735   6.176   1.915   8.851  1.4623  0.7463 -0.8707
   10CHL1  H26C  736   6.077   2.068   8.826  1.6165 -0.6327 -1.5542
   10CHL1   C27  737   5.915   1.868   8.911  0.3264  0.1085  0.1472
   10CHL1  H27A  738   5.869   1.935   8.835  1.5449  0.5849 -0.1982
   10CHL1  H27B  739   5.947   1.779   8.852 -0.7541  0.1874 -0.5948
   10CHL1  H27C  740   5.830   1.829   8.970  0.8053 -1.2076  0.0031
   11CHL1    C3  741   1.711   5.059  10.256 -0.6811  0.5775  0.4592
   11CHL1    H3  742   1.638   5.143  10.265 -1.4718  0.1027 -1.1474
   11CHL1    O3  743   1.725   4.992  10.378 -0.3254  0.1005 -0.3352
   11CHL1   H3'  744   1.764   5.050  10.444  2.6748 -0.5929 -1.3401
   11CHL1    C4  745   1.662   4.960  10.151  0.5510 -0.1952 -0.1600
   11CHL1   H4A  746   1.729   4.872  10.161  1.4306  0.4260 -0.5006
   11CHL1   H4B  747   1.566   4.929  10.198  1.0737  0.3669  1.3656
   11CHL1    C5  748   1.656   5.012  10.008 -0.3431  0.5104  0.2498
   11CHL1    C6  749   1.542   5.022   9.936  0.8534 -0.2820  0.6119
   11CHL1    H6  750   1.449   4.982   9.979  0.7614  0.5129  1.1841
   11CHL1    C7  751   1.533   5.059   9.788  0.4654 -0.7344 -0.4882
   11CHL1   H7A  752   1.473   4.987   9.729 -3.0557  1.9995 -0.5349
   11CHL1   H7B  753   1.479   5.155   9.783 -0.7442 -1.2314  1.6978
   11CHL1    C8  754   1.678   5.064   9.724 -0.1519  0.1553  0.2021
   11CHL1    H8  755   1.704   4.958   9.701 -0.7794 -0.3761  1.7836
   11CHL1   C14  756   1.667   5.131   9.587  1.0237  0.3095 -0.4200
   11CHL1   H14  757   1.645   5.238   9.609  2.0545  0.9072 -2.0771
   11CHL1   C15  758   1.562   5.095   9.483 -0.2061 -0.3576  0.4278
   11CHL1  H15A  759   1.571   4.988   9.454  1.9105  0.2145 -1.3250
   11CHL1  H15B  760   1.458   5.122   9.508 -0.1368 -0.0848  0.4268
   11CHL1   C16  761   1.615   5.183   9.363  0.3220 -0.2436  0.0392
   11CHL1  H16A  762   1.623   5.118   9.273  0.7314  2.3646 -1.9377
   11CHL1  H16B  763   1.549   5.266   9.328 -1.9881 -1.5602  1.0871
   11CHL1   C17  764   1.762   5.229   9.392 -0.6524  0.6058 -0.6534
   11CHL1   H17  765   1.750   5.325   9.448 -0.1246  0.0975  0.3475
   11CHL1   C13  766   1.804   5.141   9.511 -0.0516  0.2105 -0.4406
   11CHL1   C18  767   1.847   4.997   9.465  0.8055  0.1522 -0.2300
   11CHL1  H18A  768   1.948   5.016   9.422  0.4201  1.9192 -0.4226
   11CHL1  H18B  769   1.837   4.921   9.545 -0.7101 -0.6421 -1.1382
   11CHL1  H18C  770   1.783   4.959   9.383 -0.1182 -0.1476  0.6188
   11CHL1   C12  771   1.906   5.209   9.607 -0.8223  0.5477 -0.0614
   11CHL1  H12A  772   2.003   5.196   9.553 -1.3082 -1.0525 -0.5963
   11CHL1  H12B  773   1.887   5.317   9.623 -0.5690  0.3891  1.4698
   11CHL1   C11  774   1.920   5.138   9.747 -0.5857 -0.9149 -0.3186
   11CHL1  H11A  775   1.967   5.042   9.717  2.9000  0.0851  1.3103
   11CHL1  H11B  776   1.997   5.205   9.793 -1.0871 -0.3345 -0.3139
   11CHL1    C9  777   1.783   5.131   9.817 -0.3421  0.0207  0.4040
   11CHL1    H9  778   1.747   5.235   9.837  0.4367  0.7609 -1.7673
   11CHL1   C10  779   1.790   5.065   9.957  0.1793  0.5842 -0.4555
   11CHL1   C19  780   1.884   4.945   9.945  0.7195 -0.3204  0.1333
   11CHL1  H19A  781   1.905   4.911  10.048 -0.5420 -0.7353  0.2708
   11CHL1  H19B  782   1.844   4.861   9.883  2.2313  0.2084 -1.6372
   11CHL1  H19C  783   1.989   4.960   9.912  0.2618  2.6654 -0.2768
   11CHL1    C1  784   1.851   5.163  10.063  0.2149 -0.4786  0.0888
   11CHL1   H1A  785   1.955   5.183  10.030 -0.4999  0.8483 -1.5074
   11CHL1   H1B  786   1.805   5.263  10.053  2.4317  0.4960 -0.9775
   11CHL1    C2  787   1.850   5.110  10.210  0.1339 -0.3592 -0.0804
   11CHL1   H2A  788   1.891   5.197  10.266  0.9886 -2.1053  2.1708
   11CHL1   H2B  789   1.925   5.032  10.234 -0.6494 -2.1207 -2.9297
   11CHL1   C20  790   1.866   5.241   9.280 -0.3467 -0.3633  0.3490
   11CHL1   H20  791   1.964   5.204   9.319 -0.3114 -1.1448 -0.4636
   11CHL1   C21  792   1.881   5.390   9.250 -0.3997  0.2048  0.0156
   11CHL1  H21A  793   1.942   5.433   9.333  1.2831 -0.7409 -0.6810
   11CHL1  H21B  794   1.781   5.433   9.234  0.2041  0.9038 -2.1946
   11CHL1  H21C  795   1.952   5.409   9.166  0.7519 -0.7851  0.7134
   11CHL1   C22  796   1.840   5.159   9.155 -0.7294 -0.5193  0.4170
   11CHL1  H22A  797   1.805   5.059   9.188 -2.4491  0.7008  2.4995
   11CHL1  H22B  798   1.760   5.208   9.096  1.0388 -0.2885 -1.9255
   11CHL1   C23  799   1.969   5.145   9.067  0.0449  0.3280  1.0038
   11CHL1  H23A  800   2.024   5.242   9.064 -1.9182  1.4914 -2.6440
   11CHL1  H23B  801   2.039   5.078   9.122  1.0409 -1.0195 -1.7448
   11CHL1   C24  802   1.929   5.104   8.928  0.1734  0.0565 -0.1623
   11CHL1  H24A  803   2.022   5.062   8.885 -1.0904 -1.2656 -1.7843
   11CHL1  H24B  804   1.869   5.010   8.928 -0.3643  0.3879  0.5037
   11CHL1   C25  805   1.867   5.204   8.832  0.3372  0.0686  0.3971
   11CHL1   H25  806   1.764   5.217   8.872  0.4774 -1.2250  1.2443
   11CHL1   C26  807   1.938   5.336   8.826  0.4637  0.3735  0.5582
   11CHL1  H26A  808   2.047   5.321   8.813  1.0019  2.6308  1.9425
   11CHL1  H26B  809   1.900   5.389   8.736  0.0726 -1.9529 -0.7327
   11CHL1  H26C  810   1.915   5.394   8.918  4.7422  1.1999  1.2835
   11CHL1   C27  811   1.849   5.148   8.691  1.1047  0.3663  0.0445
   11CHL1  H27A  812   1.939   5.092   8.657  0.3469 -1.2834  0.6345
   11CHL1  H27B  813   1.772   5.068   8.700 -2.1194  2.8275 -2.8779
   11CHL1  H27C  814   1.817   5.232   8.626  0.8052  0.3150  0.1252
   12CHL1    C3  815   5.120   0.637  10.512 -0.3790 -0.0496 -0.3160
   12CHL1    H3  816   5.076   0.730  10.470 -0.5021 -0.2868 -0.7208
   12CHL1    O3  817   5.108   0.647  10.653 -0.2134 -0.1528 -0.1512
   12CHL1   H3'  818   5.083   0.563  10.694  1.0783 -0.1217  0.7653
   12CHL1    C4  819   5.039   0.522  10.453  0.5104  0.3900 -0.5683
   12CHL1   H4A  820   5.075   0.436  10.515 -0.0432  0.8079  0.3601
   12CHL1   H4B  821   4.933   0.539  10.482  0.8358 -0.8724  1.6327
   12CHL1    C5  822   5.055   0.517  10.302  0.3499  0.6491  0.2547
   12CHL1    C6  823   4.948   0.516  10.217  0.5527 -0.3320 -0.2459
   12CHL1    H6  824   4.843   0.511  10.251  0.9805 -2.8872  0.9332
   12CHL1    C7  825   4.967   0.508  10.067 -0.0969  0.1050  1.0090
   12CHL1   H7A  826   4.905   0.423  10.030  1.1995 -1.2199  1.7430
   12CHL1   H7B  827   4.935   0.602  10.018 -1.9968 -1.9258 -2.0472
   12CHL1    C8  828   5.112   0.471  10.018 -0.1353  0.6681 -0.1969
   12CHL1    H8  829   5.118   0.363  10.043  0.4049  0.7459  0.0357
   12CHL1   C14  830   5.132   0.494   9.870  0.1041 -0.1229 -0.4492
   12CHL1   H14  831   5.140   0.605   9.868  2.0569 -0.1837  1.1706
   12CHL1   C15  832   5.017   0.447   9.773  0.0691 -0.0233 -0.2736
   12CHL1  H15A  833   4.984   0.345   9.799 -0.5597 -0.5947 -3.0248
   12CHL1  H15B  834   4.929   0.514   9.769 -1.2376 -1.5676  1.3657
   12CHL1   C16  835   5.084   0.438   9.638 -0.1192 -0.2377 -0.5404
   12CHL1  H16A  836   5.078   0.334   9.598 -0.5294 -0.7526  0.8047
   12CHL1  H16B  837   5.040   0.497   9.554  1.3751 -2.5048 -3.0833
   12CHL1   C17  838   5.232   0.478   9.666 -0.1556  0.1273  0.0952
   12CHL1   H17  839   5.238   0.589   9.660  1.5135  0.0219 -0.8510
   12CHL1   C13  840   5.262   0.445   9.811  0.5300 -0.3202  0.4818
   12CHL1   C18  841   5.273   0.295   9.835 -0.0787 -0.1302  0.7201
   12CHL1  H18A  842   5.355   0.254   9.772  0.1699  2.8517 -1.0811
   12CHL1  H18B  843   5.294   0.275   9.942 -0.4557 -2.8418  0.3600
   12CHL1  H18C  844   5.178   0.253   9.794 -2.2545  4.0464  0.9598
   12CHL1   C12  845   5.375   0.528   9.877  1.1156 -0.2847 -0.1385
   12CHL1  H12A  846   5.476   0.493   9.849  0.7148 -0.5995 -1.2464
   12CHL1  H12B  847   5.364   0.635   9.851 -0.3730 -0.6789 -1.2577
   12CHL1   C11  848   5.366   0.508  10.032 -0.1939 -0.0707  0.1608
   12CHL1  H11A  849   5.388   0.402  10.057 -2.0235 -0.6502 -0.5798
   12CHL1  H11B  850   5.441   0.573  10.083 -1.3246  1.7859 -0.4400
   12CHL1    C9  851   5.223   0.534  10.099 -0.3471 -0.2837  0.0516
   12CHL1    H9  852   5.201   0.643  10.097 -0.0898 -0.2423 -0.9523
   12CHL1   C10  853   5.210   0.514  10.251 -0.5698  0.1083  0.3912
   12CHL1   C19  854   5.268   0.375  10.291 -0.0951  1.0176  1.0348
   12CHL1  H19A  855   5.222   0.292  10.234  0.2024  1.1165  0.6460
   12CHL1  H19B  856   5.379   0.372  10.281 -0.3253 -1.0078 -2.4444
   12CHL1  H19C  857   5.262   0.358  10.401  1.2376  0.0598  0.9866
   12CHL1    C1  858   5.298   0.632  10.318  0.1768 -0.0088  0.4248
   12CHL1   H1A  859   5.406   0.623  10.290  0.6394 -1.3126  2.4331
   12CHL1   H1B  860   5.262   0.733  10.290  1.5544  0.3433 -0.1846
   12CHL1    C2  861   5.269   0.631  10.471  0.1900  0.7586 -0.0348
   12CHL1   H2A  862   5.308   0.729  10.506 -0.5048  0.4723  1.6643
   12CHL1   H2B  863   5.324   0.549  10.522 -0.8643 -0.9914 -1.6215
   12CHL1   C20  864   5.330   0.420   9.561  0.2089  0.5413  0.3827
   12CHL1   H20  865   5.362   0.318   9.588  0.9411  0.8776  0.7908
   12CHL1   C21  866   5.446   0.515   9.555 -0.1320  0.0696  0.3540
   12CHL1  H21A  867   5.427   0.621   9.529  2.7561  0.7016  0.5012
   12CHL1  H21B  868   5.521   0.497   9.475 -0.2702  1.1784 -0.0361
   12CHL1  H21C  869   5.489   0.511   9.657 -0.3371  1.9404  0.5423
   12CHL1   C22  870   5.277   0.410   9.417 -0.1136  0.0415  0.4866
   12CHL1  H22A  871   5.361   0.359   9.366  0.3086 -2.2438  3.1750
   12CHL1  H22B  872   5.188   0.343   9.420 -1.0158  1.1844 -0.0678
   12CHL1   C23  873   5.231   0.534   9.350  0.7513 -0.5405  0.2503
   12CHL1  H23A  874   5.157   0.592   9.409  0.5769 -1.8503  1.3592
   12CHL1  H23B  875   5.319   0.597   9.324 -0.0847  0.9559  0.9115
   12CHL1   C24  876   5.149   0.506   9.220  1.0865 -0.1852  0.4782
   12CHL1  H24A  877   5.060   0.441   9.236 -0.7515  1.9278 -0.5346
   12CHL1  H24B  878   5.089   0.597   9.196 -0.0940 -1.2694 -0.8472
   12CHL1   C25  879   5.230   0.456   9.102  0.0189  0.1628  0.8427
   12CHL1   H25  880   5.286   0.366   9.134 -1.3130 -1.2528 -0.5997
   12CHL1   C26  881   5.134   0.417   8.986 -0.0033 -0.3195  0.1880
   12CHL1  H26A  882   5.058   0.342   9.017 -1.2799  0.7218 -0.3264
   12CHL1  H26B  883   5.081   0.510   8.956 -1.2003 -0.4576  1.7361
   12CHL1  H26C  884   5.192   0.371   8.903  0.4609 -1.0397  0.8964
   12CHL1   C27  885   5.327   0.563   9.053 -0.5332  0.2801 -0.2492
   12CHL1  H27A  886   5.376   0.524   8.961 -2.1088 -0.2446 -0.9054
   12CHL1  H27B  887   5.270   0.648   9.010  1.3499  1.6780 -0.1334
   12CHL1  H27C  888   5.396   0.585   9.137 -1.8177 -1.8968  1.4871
   13CHL1    C3  889   4.770   3.438  10.070  0.2397 -0.0793  0.2598
   13CHL1    H3  890   4.711   3.358  10.020 -0.2350  0.4333 -0.0074
   13CHL1    O3  891   4.772   3.405  10.211  1.1160  0.3878  0.0025
   13CHL1   H3'  892   4.833   3.460  10.261  2.1816 -0.4516 -0.3467
   13CHL1    C4  893   4.917   3.420  10.020  1.0290 -0.1191 -0.3397
   13CHL1   H4A  894   4.984   3.494  10.068  0.4120 -1.6409  3.1442
   13CHL1   H4B  895   4.959   3.323  10.053 -0.5637 -0.3134  1.2629
   13CHL1    C5  896   4.922   3.451   9.871 -0.5123 -1.2847 -0.4384
   13CHL1    C6  897   4.960   3.356   9.788  0.2611 -0.9128 -0.2876
   13CHL1    H6  898   4.998   3.260   9.828 -0.8283 -0.6703  1.4180
   13CHL1    C7  899   4.970   3.378   9.640 -0.6188  0.3057 -0.5625
   13CHL1   H7A  900   5.070   3.348   9.600  1.0115  2.4608  1.6170
   13CHL1   H7B  901   4.888   3.332   9.580 -0.8504  2.6444 -2.1853
   13CHL1    C8  902   4.949   3.529   9.605  0.1047 -1.0147  0.3838
   13CHL1    H8  903   5.038   3.594   9.621  0.8118 -1.7361 -0.4554
   13CHL1   C14  904   4.922   3.546   9.458 -0.0098  0.2330 -0.4761
   13CHL1   H14  905   4.828   3.492   9.435 -0.9481  1.8795 -0.6584
   13CHL1   C15  906   5.017   3.479   9.359  0.8284 -0.2063  0.2114
   13CHL1  H15A  907   5.121   3.488   9.398  0.3804  3.1981  0.9221
   13CHL1  H15B  908   4.990   3.373   9.342  0.2155 -0.0327  0.0964
   13CHL1   C16  909   5.011   3.564   9.233  0.2144 -0.2409  0.0387
   13CHL1  H16A  910   5.108   3.618   9.221 -0.1156 -0.0166 -1.9487
   13CHL1  H16B  911   5.000   3.513   9.136 -1.5652 -3.2482  1.6758
   13CHL1   C17  912   4.890   3.673   9.261 -0.0903 -0.5830  0.1193
   13CHL1   H17  913   4.795   3.615   9.249  0.1572 -1.0281  0.2701
   13CHL1   C13  914   4.895   3.687   9.415 -0.0359  0.3352 -0.3232
   13CHL1   C18  915   5.006   3.787   9.442  0.2299 -0.2200 -0.4460
   13CHL1  H18A  916   5.102   3.758   9.395 -0.8009 -0.4113 -2.5237
   13CHL1  H18B  917   4.990   3.886   9.395  0.9220  0.2996  0.3807
   13CHL1  H18C  918   5.030   3.808   9.549 -0.1896  0.7472 -0.5337
   13CHL1   C12  919   4.760   3.721   9.480 -0.5998  0.0918 -0.1071
   13CHL1  H12A  920   4.722   3.821   9.449 -2.3533 -0.1595  1.0753
   13CHL1  H12B  921   4.674   3.658   9.453  0.4084 -0.4385 -2.2671
   13CHL1   C11  922   4.766   3.720   9.630 -0.4766 -0.1307  0.2161
   13CHL1  H11A  923   4.811   3.814   9.669 -1.0847 -0.7186  2.4631
   13CHL1  H11B  924   4.663   3.739   9.666 -1.2264 -1.5247 -1.0953
   13CHL1    C9  925   4.826   3.586   9.681 -0.3170  0.0086  0.0981
   13CHL1    H9  926   4.747   3.513   9.655  1.2913 -0.8863 -2.5883
   13CHL1   C10  927   4.848   3.589   9.833 -0.2226 -0.2512  0.8769
   13CHL1   C19  928   4.951   3.694   9.874 -0.0662  0.7904  0.6172
   13CHL1  H19A  929   5.045   3.686   9.815 -0.5074 -0.4751  0.0578
   13CHL1  H19B  930   4.903   3.794   9.864  0.3021  0.9395  0.2952
   13CHL1  H19C  931   4.971   3.678   9.982  0.7370  0.4638  0.4284
   13CHL1    C1  932   4.716   3.627   9.903  0.2184  0.0217  0.6176
   13CHL1   H1A  933   4.699   3.737   9.897 -3.5445 -0.4891 -0.9056
   13CHL1   H1B  934   4.635   3.585   9.840  0.9076  0.3545 -0.5066
   13CHL1    C2  935   4.707   3.579  10.051  0.0074 -0.1825  0.3910
   13CHL1   H2A  936   4.604   3.590  10.091 -0.8671  0.9860 -1.9788
   13CHL1   H2B  937   4.772   3.649  10.107 -2.0280  0.6361  1.8616
   13CHL1   C20  938   4.899   3.788   9.162 -1.4047  0.0822 -0.2468
   13CHL1   H20  939   4.991   3.848   9.180 -1.2642  0.4468 -1.9913
   13CHL1   C21  940   4.785   3.885   9.190 -0.7360  0.2834 -0.0616
   13CHL1  H21A  941   4.695   3.830   9.156 -0.5972  1.4759 -2.5671
   13CHL1  H21B  942   4.806   3.976   9.131  0.6371 -0.3692 -0.6252
   13CHL1  H21C  943   4.771   3.918   9.295 -3.1124 -0.8221  0.0478
   13CHL1   C22  944   4.892   3.746   9.009  0.3727 -0.4363 -0.0213
   13CHL1  H22A  945   4.962   3.665   8.979  0.9618 -0.5049  1.4723
   13CHL1  H22B  946   4.791   3.703   8.992  0.2637 -0.2484  0.1513
   13CHL1   C23  947   4.916   3.863   8.921 -0.4802 -0.9085  0.2766
   13CHL1  H23A  948   4.821   3.920   8.921 -1.2084 -1.7343  4.8230
   13CHL1  H23B  949   4.996   3.930   8.959  0.8757 -1.2365 -1.8488
   13CHL1   C24  950   4.944   3.824   8.776  0.5317  0.0417  0.5334
   13CHL1  H24A  951   5.029   3.754   8.758  0.7944  0.8036 -1.3944
   13CHL1  H24B  952   4.848   3.781   8.740  1.5659 -1.8684 -0.0912
   13CHL1   C25  953   4.983   3.948   8.689  0.1525 -0.2469  0.2665
   13CHL1   H25  954   5.085   3.982   8.719  0.0098 -0.8584  1.5205
   13CHL1   C26  955   4.996   3.906   8.543 -0.0849 -0.1477  0.1083
   13CHL1  H26A  956   5.047   3.978   8.476 -0.9684 -0.3858 -0.8380
   13CHL1  H26B  957   5.056   3.812   8.549 -0.4100 -0.3093  1.0890
   13CHL1  H26C  958   4.891   3.894   8.510 -0.3833 -1.9419  1.5146
   13CHL1   C27  959   4.894   4.070   8.698  0.3353 -0.1933  0.1408
   13CHL1  H27A  960   4.790   4.042   8.669  0.1661  1.2367 -0.7646
   13CHL1  H27B  961   4.906   4.125   8.794  1.4066 -1.7010  0.9075
   13CHL1  H27C  962   4.930   4.143   8.622  1.1363  0.3478  1.0135
   14CHL1    C3  963   1.655   6.089  10.665  0.1082  0.0895 -0.0283
   14CHL1    H3  964   1.766   6.095  10.666  0.3237 -2.5155 -1.0839
   14CHL1    O3  965   1.636   6.106  10.805  0.1740  0.3706  0.2443
   14CHL1   H3'  966   1.679   6.025  10.833 -2.8872 -1.4749  0.1198
   14CHL1    C4  967   1.597   6.201  10.572 -0.1852 -0.1276 -0.5690
   14CHL1   H4A  968   1.486   6.203  10.565 -0.1133 -0.2250 -1.9848
   14CHL1   H4B  969   1.637   6.297  10.612 -0.3912  0.4539 -1.7150
   14CHL1    C5  970   1.660   6.182  10.433  0.4137 -0.1915  0.2025
   14CHL1    C6  971   1.735   6.283  10.376  0.5061  0.3679 -0.5448
   14CHL1    H6  972   1.764   6.368  10.440  0.4157 -0.8390  1.1882
   14CHL1    C7  973   1.773   6.286  10.235  0.3367  0.6151  0.8660
   14CHL1   H7A  974   1.738   6.383  10.192 -0.7470 -0.2084 -0.1841
   14CHL1   H7B  975   1.882   6.270  10.225 -0.0405 -1.1170 -1.2183
   14CHL1    C8  976   1.701   6.168  10.155 -0.5985  0.4120  0.3457
   14CHL1    H8  977   1.595   6.190  10.131 -1.2866 -3.2436 -0.5439
   14CHL1   C14  978   1.778   6.148  10.021 -0.1526  0.3080 -0.0159
   14CHL1   H14  979   1.879   6.119  10.060 -0.0619  0.9587  0.2474
   14CHL1   C15  980   1.803   6.273   9.938 -0.4955  0.2300  0.3066
   14CHL1  H15A  981   1.709   6.332   9.925 -1.8710 -1.9427 -0.2417
   14CHL1  H15B  982   1.883   6.337   9.979  1.5643 -2.5230  0.8510
   14CHL1   C16  983   1.846   6.220   9.801  0.4542 -0.0130  0.1644
   14CHL1  H16A  984   1.775   6.266   9.730  0.0592  0.2125  0.6939
   14CHL1  H16B  985   1.951   6.251   9.779  0.7159 -0.6922  0.4134
   14CHL1   C17  986   1.830   6.062   9.803 -0.3224  0.7098 -0.0634
   14CHL1   H17  987   1.931   6.025   9.832 -0.3737 -0.0192 -0.7810
   14CHL1   C13  988   1.734   6.041   9.929 -0.0710  0.4930  0.2617
   14CHL1   C18  989   1.593   6.069   9.881  0.4054 -0.2353 -0.1071
   14CHL1  H18A  990   1.575   6.168   9.833 -4.0740 -1.0302 -0.5629
   14CHL1  H18B  991   1.566   5.984   9.815  2.5013 -0.8221 -0.2717
   14CHL1  H18C  992   1.518   6.059   9.962  0.0974 -1.2660 -0.5129
   14CHL1   C12  993   1.739   5.908  10.010 -0.0589  0.2067 -0.6088
   14CHL1  H12A  994   1.694   5.821   9.958  2.4838 -2.2824  1.0090
   14CHL1  H12B  995   1.846   5.888  10.031  0.3256  0.7297 -1.9751
   14CHL1   C11  996   1.662   5.914  10.145 -0.6120  0.5279  0.1284
   14CHL1  H11A  997   1.552   5.905  10.133 -0.5214  0.0943 -0.4199
   14CHL1  H11B  998   1.685   5.822  10.202 -1.1498 -0.2034 -0.8031
   14CHL1    C9  999   1.700   6.035  10.232 -0.0024 -0.2275 -0.0381
   14CHL1    H9 1000   1.805   6.014  10.262  0.0799  1.1499  0.7024
   14CHL1   C10 1001   1.624   6.048  10.372  0.5242 -0.3699  0.8028
   14CHL1   C19 1002   1.469   6.043  10.339  0.3820  0.2909 -0.1434
   14CHL1  H19A 1003   1.403   6.058  10.427  1.0038 -0.1838  0.4171
   14CHL1  H19B 1004   1.441   6.101  10.249  1.3915  0.8303 -0.1304
   14CHL1  H19C 1005   1.447   5.935  10.322 -1.1832  0.3648  1.2136
   14CHL1    C1 1006   1.661   5.928  10.458 -0.3654 -0.1841  0.2784
   14CHL1   H1A 1007   1.610   5.840  10.415  0.6865  1.1018 -4.1040
   14CHL1   H1B 1008   1.773   5.931  10.458 -0.3531 -0.0121 -1.5982
   14CHL1    C2 1009   1.621   5.947  10.609 -0.1298 -0.0835 -0.1437
   14CHL1   H2A 1010   1.687   5.877  10.665  0.8292  0.9529  0.0684
   14CHL1   H2B 1011   1.517   5.912  10.629 -0.5842  0.3990 -1.5507
   14CHL1   C20 1012   1.799   5.991   9.672  0.3961  0.2309  0.1773
   14CHL1   H20 1013   1.696   6.017   9.637  0.2265 -1.2216 -0.5178
   14CHL1   C21 1014   1.807   5.840   9.692  0.6330 -0.2212 -0.5945
   14CHL1  H21A 1015   1.799   5.775   9.602  0.1035 -0.2733 -0.5122
   14CHL1  H21B 1016   1.715   5.815   9.749  0.3216 -0.4422 -1.1910
   14CHL1  H21C 1017   1.901   5.815   9.746  0.2830 -1.0306 -0.3325
   14CHL1   C22 1018   1.889   6.047   9.556 -0.1208  0.5065 -0.2823
   14CHL1  H22A 1019   1.863   6.155   9.543 -2.5818  0.0683  0.5379
   14CHL1  H22B 1020   1.993   6.051   9.596  0.2791  2.7032 -1.3629
   14CHL1   C23 1021   1.887   5.970   9.421  0.3419  0.8290 -0.0855
   14CHL1  H23A 1022   1.963   6.010   9.351 -1.3257  0.9125 -1.9298
   14CHL1  H23B 1023   1.916   5.864   9.436  1.3752  1.3175  1.6950
   14CHL1   C24 1024   1.755   5.972   9.341 -0.1320  0.0460 -0.0878
   14CHL1  H24A 1025   1.685   5.929   9.415  0.1925 -0.8824 -0.3111
   14CHL1  H24B 1026   1.724   6.077   9.320  1.0014  0.9058  2.1790
   14CHL1   C25 1027   1.764   5.898   9.202 -0.3956 -0.4748  0.6331
   14CHL1   H25 1028   1.867   5.912   9.163 -0.4083 -1.5717  0.1599
   14CHL1   C26 1029   1.738   5.751   9.209  0.2432  0.2337  0.0225
   14CHL1  H26A 1030   1.628   5.740   9.212  0.1656  0.9846  0.0285
   14CHL1  H26B 1031   1.766   5.700   9.115  1.0430 -0.7153  0.7413
   14CHL1  H26C 1032   1.783   5.707   9.301 -0.1616 -0.6480 -0.1946
   14CHL1   C27 1033   1.670   5.955   9.095 -0.2603 -0.6126 -0.1486
   14CHL1  H27A 1034   1.700   6.062   9.085 -1.2864 -0.2005  0.9997
   14CHL1  H27B 1035   1.692   5.909   8.997  0.5381 -1.8693  0.5916
   14CHL1  H27C 1036   1.563   5.950   9.123 -0.7718  2.3184 -1.2412
   15CHL1    C3 1037   4.373   5.192  10.111  0.0461 -0.1868 -0.0781
   15CHL1    H3 1038   4.466   5.248  10.132 -1.2951  2.3088 -0.3498
   15CHL1    O3 1039   4.318   5.149  10.237  0.0621  0.2973  0.3522
   15CHL1   H3' 1040   4.251   5.216  10.252  1.7561  1.9166  1.0970
   15CHL1    C4 1041   4.276   5.286  10.040 -0.1483 -0.8193  0.0944
   15CHL1   H4A 1042   4.175   5.239  10.044 -0.6910  0.3303  0.3906
   15CHL1   H4B 1043   4.271   5.373  10.109  1.0179 -0.9829  0.4014
   15CHL1    C5 1044   4.315   5.323   9.904 -0.1741  0.3021 -0.8705
   15CHL1    C6 1045   4.329   5.451   9.866  0.7987 -0.1299  0.2958
   15CHL1    H6 1046   4.324   5.531   9.941 -1.3846 -0.4219  0.5040
   15CHL1    C7 1047   4.346   5.497   9.726 -0.2153  0.2168  0.7088
   15CHL1   H7A 1048   4.279   5.579   9.692  0.1481  0.4218  0.4759
   15CHL1   H7B 1049   4.453   5.529   9.723  0.2107 -0.6922  3.3210
   15CHL1    C8 1050   4.324   5.380   9.625  0.1114 -0.0810  0.2294
   15CHL1    H8 1051   4.214   5.361   9.624 -0.1008  0.7780  2.2658
   15CHL1   C14 1052   4.383   5.412   9.489 -1.0055  0.4669 -0.3130
   15CHL1   H14 1053   4.488   5.421   9.522 -0.8122  1.4030 -1.1519
   15CHL1   C15 1054   4.354   5.548   9.420 -0.1117 -0.2312 -0.3640
   15CHL1  H15A 1055   4.245   5.555   9.440  0.1705 -1.0535  1.6812
   15CHL1  H15B 1056   4.412   5.624   9.476 -1.8495 -0.4977  1.9044
   15CHL1   C16 1057   4.395   5.529   9.278 -0.7972 -0.4559 -0.4627
   15CHL1  H16A 1058   4.309   5.548   9.210 -0.9064 -0.8846 -0.4466
   15CHL1  H16B 1059   4.487   5.589   9.257 -1.5178  1.0907  0.5758
   15CHL1   C17 1060   4.430   5.375   9.263 -0.0672  0.1961 -0.0128
   15CHL1   H17 1061   4.538   5.377   9.285 -0.4474 -0.1828  2.1396
   15CHL1   C13 1062   4.362   5.302   9.383  0.6880  0.5381 -0.0972
   15CHL1   C18 1063   4.220   5.273   9.362  0.7068  0.4692  0.4067
   15CHL1  H18A 1064   4.197   5.183   9.301 -2.0331  0.9653  0.5886
   15CHL1  H18B 1065   4.168   5.263   9.460 -0.2101  0.4503 -0.0721
   15CHL1  H18C 1066   4.171   5.362   9.318 -1.7096 -0.1023  1.7628
   15CHL1   C12 1067   4.434   5.181   9.436 -0.5343  0.1442  0.0422
   15CHL1  H12A 1068   4.421   5.090   9.373 -1.8202 -0.0517  0.5515
   15CHL1  H12B 1069   4.538   5.216   9.451 -1.3980  2.3720  1.2964
   15CHL1   C11 1070   4.380   5.131   9.573 -0.4078  0.0242 -0.0410
   15CHL1  H11A 1071   4.282   5.084   9.551 -0.3800 -0.0618  0.0207
   15CHL1  H11B 1072   4.451   5.057   9.616 -1.2368 -0.1103  1.1295
   15CHL1    C9 1073   4.375   5.246   9.677 -0.5219  0.6540  0.7055
   15CHL1    H9 1074   4.484   5.260   9.696 -0.0746 -1.2816 -0.1748
   15CHL1   C10 1075   4.322   5.200   9.809 -0.6012 -0.1562  0.1505
   15CHL1   C19 1076   4.191   5.122   9.786  0.2752 -0.2197  0.3705
   15CHL1  H19A 1077   4.131   5.169   9.706 -0.2535 -2.3589 -0.5664
   15CHL1  H19B 1078   4.211   5.017   9.755  1.8979  0.4613 -1.1108
   15CHL1  H19C 1079   4.135   5.118   9.881  0.2733  4.2162  0.7267
   15CHL1    C1 1080   4.421   5.108   9.880 -0.0318  0.1491  0.6216
   15CHL1   H1A 1081   4.426   5.018   9.815 -2.8366  1.3908 -1.5437
   15CHL1   H1B 1082   4.522   5.153   9.896 -0.1640  0.0862  1.6569
   15CHL1    C2 1083   4.385   5.069  10.022 -0.0350 -0.3491 -0.3517
   15CHL1   H2A 1084   4.468   5.015  10.072  0.8633  1.7170  0.4606
   15CHL1   H2B 1085   4.302   4.995  10.026 -1.7382  1.1242 -3.7661
   15CHL1   C20 1086   4.442   5.307   9.125  0.6068  0.4509  0.1792
   15CHL1   H20 1087   4.472   5.202   9.146 -0.5489 -0.2525 -1.4588
   15CHL1   C21 1088   4.548   5.376   9.036 -0.8174  0.5197 -0.3722
   15CHL1  H21A 1089   4.640   5.375   9.098 -0.9911  2.5295 -0.0113
   15CHL1  H21B 1090   4.517   5.481   9.017 -0.3685  0.6166 -0.5798
   15CHL1  H21C 1091   4.573   5.328   8.939  1.2610  0.6013  0.0890
   15CHL1   C22 1092   4.304   5.300   9.046 -0.2816  0.5225 -0.4921
   15CHL1  H22A 1093   4.230   5.262   9.119 -0.5444  0.0655 -0.9812
   15CHL1  H22B 1094   4.291   5.408   9.024  2.2865  0.6958 -1.5700
   15CHL1   C23 1095   4.316   5.236   8.914 -0.0599  0.7178  0.3947
   15CHL1  H23A 1096   4.342   5.310   8.835 -2.2856  0.2580 -0.8640
   15CHL1  H23B 1097   4.382   5.146   8.915 -1.2891 -0.2080  0.5824
   15CHL1   C24 1098   4.184   5.183   8.874 -0.0160 -0.2111 -0.3248
   15CHL1  H24A 1099   4.158   5.100   8.944  2.9428  0.0993  1.2993
   15CHL1  H24B 1100   4.119   5.270   8.899  2.1482  0.7022  2.7272
   15CHL1   C25 1101   4.178   5.133   8.727  0.8584  0.2705 -0.1877
   15CHL1   H25 1102   4.208   5.223   8.669  1.9797 -1.4421 -2.3983
   15CHL1   C26 1103   4.271   5.017   8.689 -0.2231  0.3194  0.2938
   15CHL1  H26A 1104   4.252   4.994   8.582 -4.6211  1.3979  0.6377
   15CHL1  H26B 1105   4.375   5.048   8.711 -0.3176 -0.0817  1.3437
   15CHL1  H26C 1106   4.237   4.927   8.745 -2.9158  0.3335 -1.1244
   15CHL1   C27 1107   4.042   5.086   8.683  0.5574  0.3415  1.0307
   15CHL1  H27A 1108   3.972   5.164   8.719  2.5511  1.9241  1.6200
   15CHL1  H27B 1109   4.034   5.083   8.572 -0.8749 -2.1660  1.1090
   15CHL1  H27C 1110   4.011   4.992   8.734  2.2909 -0.0845  1.3402
   16CHL1    C3 1111   4.843   5.652  10.420 -0.1792  0.0940 -0.0971
   16CHL1    H3 1112   4.948   5.614  10.423  0.1530  1.0434  1.2890
   16CHL1    O3 1113   4.813   5.652  10.560  0.1635 -0.3771 -0.5418
   16CHL1   H3' 1114   4.732   5.700  10.577  0.1828 -0.3050 -0.6519
   16CHL1    C4 1115   4.845   5.802  10.361 -0.2336 -0.4815 -0.2081
   16CHL1   H4A 1116   4.746   5.849  10.380 -0.9963 -2.6534  1.7290
   16CHL1   H4B 1117   4.925   5.860  10.410  0.1536 -1.7449  0.7182
   16CHL1    C5 1118   4.853   5.800  10.210  0.7123  0.1422  0.2555
   16CHL1    C6 1119   4.947   5.882  10.149  0.8487  0.7446  0.4504
   16CHL1    H6 1120   5.019   5.934  10.212  0.0897  0.5372  1.5126
   16CHL1    C7 1121   4.970   5.885  10.005 -0.0630  0.6146  0.3106
   16CHL1   H7A 1122   4.998   5.982   9.957 -0.7279 -0.2927 -2.0234
   16CHL1   H7B 1123   5.064   5.831   9.983 -0.8010 -0.4680 -0.2781
   16CHL1    C8 1124   4.856   5.820   9.920  0.6487  0.6581  0.3287
   16CHL1    H8 1125   4.769   5.889   9.910  0.9896  0.9626 -0.7007
   16CHL1   C14 1126   4.910   5.792   9.780  0.6570  0.6747 -0.2345
   16CHL1   H14 1127   4.992   5.718   9.794  1.4066  0.7555 -3.4264
   16CHL1   C15 1128   4.971   5.911   9.707 -0.4859  0.4136  0.3097
   16CHL1  H15A 1129   4.912   6.005   9.700  3.1396  2.9546  0.5464
   16CHL1  H15B 1130   5.067   5.945   9.753 -0.4429  0.1997  0.3793
   16CHL1   C16 1131   4.988   5.850   9.565  0.4699  1.2869  0.2914
   16CHL1  H16A 1132   4.935   5.895   9.478  2.5768  0.1003 -1.7225
   16CHL1  H16B 1133   5.097   5.844   9.546  0.5180  1.1208  0.6152
   16CHL1   C17 1134   4.916   5.702   9.572 -0.8409  0.4918  0.2338
   16CHL1   H17 1135   4.997   5.631   9.600  0.7639  3.3313  3.7295
   16CHL1   C13 1136   4.823   5.718   9.686 -0.2429  0.5299  0.9793
   16CHL1   C18 1137   4.693   5.806   9.653 -0.0460 -0.1995 -0.2774
   16CHL1  H18A 1138   4.625   5.740   9.596 -0.9177  0.2425  0.2259
   16CHL1  H18B 1139   4.645   5.819   9.753 -0.0051  1.2660 -0.4293
   16CHL1  H18C 1140   4.699   5.908   9.610 -1.2808  0.2476  0.5433
   16CHL1   C12 1141   4.782   5.587   9.756  0.6625 -0.5079  0.1084
   16CHL1  H12A 1142   4.709   5.538   9.689 -0.5073  3.0339 -1.4384
   16CHL1  H12B 1143   4.867   5.520   9.783  0.3198 -1.2355 -0.5763
   16CHL1   C11 1144   4.713   5.609   9.899  0.0357 -0.7310  0.0029
   16CHL1  H11A 1145   4.615   5.660   9.884 -0.6144 -0.5292  4.0096
   16CHL1  H11B 1146   4.689   5.509   9.942 -0.7419  0.6423  2.9731
   16CHL1    C9 1147   4.806   5.684   9.987  0.0354 -0.7601 -0.8042
   16CHL1    H9 1148   4.901   5.628  10.004  0.4475  0.0926 -0.2274
   16CHL1   C10 1149   4.760   5.704  10.133 -0.0668  0.7688  0.1724
   16CHL1   C19 1150   4.617   5.774  10.128  0.5288 -0.4026 -0.1632
   16CHL1  H19A 1151   4.616   5.866  10.066  0.7256  0.3120  0.8644
   16CHL1  H19B 1152   4.544   5.702  10.087 -0.0643 -0.5008  1.0157
   16CHL1  H19C 1153   4.577   5.798  10.229 -0.1679  0.9422 -0.7323
   16CHL1    C1 1154   4.736   5.564  10.203  0.3004 -0.6774 -0.9826
   16CHL1   H1A 1155   4.648   5.516  10.156  1.0369  0.8600 -4.2742
   16CHL1   H1B 1156   4.825   5.501  10.182  2.3049  1.5214  0.3981
   16CHL1    C2 1157   4.736   5.574  10.359  0.3867  0.6224  0.0728
   16CHL1   H2A 1158   4.714   5.473  10.401  1.6979 -0.3017 -1.3890
   16CHL1   H2B 1159   4.640   5.630  10.369 -0.4225 -0.8020  0.5714
   16CHL1   C20 1160   4.871   5.663   9.426  1.1643  0.3114  0.0380
   16CHL1   H20 1161   4.819   5.753   9.386 -1.5307 -2.0770 -2.3046
   16CHL1   C21 1162   4.757   5.551   9.437 -0.0695  0.4140  0.5332
   16CHL1  H21A 1163   4.733   5.518   9.334  0.8048  0.6477  0.2470
   16CHL1  H21B 1164   4.664   5.602   9.471  0.6985  0.1714  3.2220
   16CHL1  H21C 1165   4.786   5.470   9.507 -0.7646  0.1398  0.5161
   16CHL1   C22 1166   4.991   5.623   9.333  0.6199 -0.3137 -0.1136
   16CHL1  H22A 1167   5.051   5.716   9.341 -0.6205  0.3835  1.9289
   16CHL1  H22B 1168   5.040   5.533   9.377  0.2599 -0.0271  0.8839
   16CHL1   C23 1169   4.954   5.596   9.181 -0.3898  0.1188 -0.2011
   16CHL1  H23A 1170   4.882   5.512   9.173  1.9920 -1.9538 -1.2347
   16CHL1  H23B 1171   4.907   5.688   9.139 -1.2243  0.0091  0.4534
   16CHL1   C24 1172   5.078   5.562   9.094 -0.0777  0.1528 -0.5695
   16CHL1  H24A 1173   5.129   5.661   9.088 -2.3950  1.9195  3.9333
   16CHL1  H24B 1174   5.155   5.498   9.144  1.3553  2.8244  0.8909
   16CHL1   C25 1175   5.031   5.505   8.955  0.0255  0.5447 -0.1047
   16CHL1   H25 1176   4.976   5.411   8.977  0.6214  0.9836  4.1438
   16CHL1   C26 1177   4.930   5.594   8.886 -0.1618 -0.3109  0.0137
   16CHL1  H26A 1178   4.833   5.570   8.934  0.0334 -0.2192  0.4545
   16CHL1  H26B 1179   4.954   5.700   8.907 -1.7475  0.5012 -1.9400
   16CHL1  H26C 1180   4.922   5.580   8.776 -1.6166  0.7069 -0.0431
   16CHL1   C27 1181   5.139   5.459   8.862 -0.1684 -0.3184  0.4606
   16CHL1  H27A 1182   5.203   5.546   8.835  1.1698 -1.0899  1.0389
   16CHL1  H27B 1183   5.202   5.381   8.910 -0.4532 -0.7310  0.1678
   16CHL1  H27C 1184   5.096   5.410   8.773 -0.6288  0.4634  0.2375
   17CHL1    C3 1185   1.348   1.469  10.498  0.6998 -0.9150  0.2590
   17CHL1    H3 1186   1.273   1.549  10.484  1.2507  0.1963  2.9906
   17CHL1    O3 1187   1.373   1.479  10.639 -0.5528  0.2087  0.1440
   17CHL1   H3' 1188   1.331   1.562  10.663 -0.4866  0.8291 -1.7903
   17CHL1    C4 1189   1.319   1.324  10.448 -0.1988  0.2280  0.1871
   17CHL1   H4A 1190   1.412   1.272  10.478 -0.5500 -1.8395 -1.9706
   17CHL1   H4B 1191   1.230   1.272  10.491  1.3222 -1.7591  1.0834
   17CHL1    C5 1192   1.313   1.303  10.298  0.0512  0.2727  0.3497
   17CHL1    C6 1193   1.210   1.233  10.239 -0.3568  0.0593 -0.2631
   17CHL1    H6 1194   1.129   1.191  10.302 -0.2617 -1.0263 -0.8386
   17CHL1    C7 1195   1.201   1.206  10.096 -0.8915  0.0108  0.2348
   17CHL1   H7A 1196   1.196   1.095  10.084  2.4071 -0.2456  0.1819
   17CHL1   H7B 1197   1.106   1.252  10.062 -1.3810 -1.0593  0.1221
   17CHL1    C8 1198   1.324   1.246  10.015 -0.2923 -0.0246 -0.4259
   17CHL1    H8 1199   1.395   1.161  10.027 -2.4059 -1.7451  0.5625
   17CHL1   C14 1200   1.283   1.267   9.872 -0.3391 -0.2886  0.4528
   17CHL1   H14 1201   1.216   1.356   9.871 -0.8838 -0.6963  0.5696
   17CHL1   C15 1202   1.206   1.153   9.805  0.0530 -0.3033  0.2088
   17CHL1  H15A 1203   1.266   1.061   9.817 -2.3576 -2.2245 -1.4188
   17CHL1  H15B 1204   1.100   1.138   9.837 -0.5583 -1.0180 -1.9637
   17CHL1   C16 1205   1.206   1.196   9.655 -0.5647  0.6886  0.1118
   17CHL1  H16A 1206   1.224   1.102   9.598  1.5957  1.3426 -0.3729
   17CHL1  H16B 1207   1.110   1.236   9.616 -0.2362  2.5576  1.1082
   17CHL1   C17 1208   1.325   1.303   9.650  0.2478  0.2436 -0.2056
   17CHL1   H17 1209   1.270   1.399   9.647 -1.6256 -0.7953 -0.2481
   17CHL1   C13 1210   1.402   1.296   9.785  0.0601  0.3979 -0.9273
   17CHL1   C18 1211   1.503   1.180   9.780  0.4047  0.5911  0.0040
   17CHL1  H18A 1212   1.458   1.078   9.776  0.6474  0.4765  0.1139
   17CHL1  H18B 1213   1.568   1.189   9.690 -0.8907 -0.8621 -1.1484
   17CHL1  H18C 1214   1.563   1.191   9.873  0.6732 -0.8521  0.0281
   17CHL1   C12 1215   1.475   1.431   9.840 -0.3629 -0.2997  0.6947
   17CHL1  H12A 1216   1.566   1.456   9.782 -0.3473  0.1215  0.8976
   17CHL1  H12B 1217   1.411   1.514   9.804  0.5810 -0.2995 -1.1271
   17CHL1   C11 1218   1.509   1.426   9.988 -0.5392 -0.0754  0.1771
   17CHL1  H11A 1219   1.603   1.368   9.996 -0.3966  0.1141 -0.0857
   17CHL1  H11B 1220   1.534   1.532  10.008 -2.4505  0.7219 -1.3165
   17CHL1    C9 1221   1.391   1.369  10.070  0.4199 -0.1609 -0.1948
   17CHL1    H9 1222   1.316   1.451  10.070 -0.4592 -0.9510  0.2230
   17CHL1   C10 1223   1.432   1.367  10.220  0.4746  0.1684 -0.0292
   17CHL1   C19 1224   1.562   1.285  10.235 -0.0662  0.8751 -0.0954
   17CHL1  H19A 1225   1.587   1.258  10.340 -0.0527  0.2829 -0.2461
   17CHL1  H19B 1226   1.561   1.188  10.181  2.8199  0.0038  1.2184
   17CHL1  H19C 1227   1.642   1.350  10.193 -0.0694  2.6087  2.3730
   17CHL1    C1 1228   1.455   1.511  10.274 -0.0515 -0.1006 -0.1485
   17CHL1   H1A 1229   1.551   1.557  10.244 -0.9253  2.6294  0.8475
   17CHL1   H1B 1230   1.371   1.582  10.254 -1.3752 -1.0344  1.7757
   17CHL1    C2 1231   1.477   1.515  10.428  0.2754  0.6223 -0.0293
   17CHL1   H2A 1232   1.498   1.620  10.459 -2.2554  1.1835 -0.0427
   17CHL1   H2B 1233   1.557   1.443  10.457 -3.2400 -3.2618  1.0531
   17CHL1   C20 1234   1.399   1.294   9.514 -0.1382 -0.1269 -0.2155
   17CHL1   H20 1235   1.441   1.191   9.505 -0.1562 -0.0089 -1.9659
   17CHL1   C21 1236   1.516   1.392   9.509  0.7251 -0.5258 -0.0723
   17CHL1  H21A 1237   1.592   1.372   9.587 -0.0760  1.8017  1.4061
   17CHL1  H21B 1238   1.477   1.493   9.531  1.7327  0.1702 -1.3499
   17CHL1  H21C 1239   1.560   1.399   9.407  1.3953  2.0120  0.3368
   17CHL1   C22 1240   1.297   1.313   9.396 -0.1225  0.1756 -0.1678
   17CHL1  H22A 1241   1.251   1.217   9.365 -0.3501  0.6663 -1.4281
   17CHL1  H22B 1242   1.202   1.355   9.437 -0.9055 -0.4261 -1.3079
   17CHL1   C23 1243   1.356   1.388   9.269  0.3939  0.1455  0.3397
   17CHL1  H23A 1244   1.388   1.492   9.295  1.8369  0.2767 -1.7447
   17CHL1  H23B 1245   1.445   1.338   9.227  0.8808  0.5840  0.8416
   17CHL1   C24 1246   1.259   1.398   9.153  0.5420  0.2672  0.3556
   17CHL1  H24A 1247   1.239   1.303   9.099  2.0932  0.5521 -0.7715
   17CHL1  H24B 1248   1.162   1.428   9.198  1.5337  0.3165  2.5932
   17CHL1   C25 1249   1.310   1.488   9.042  0.8929 -0.0605 -0.0667
   17CHL1   H25 1250   1.308   1.593   9.077 -1.3967  0.5571 -1.8351
   17CHL1   C26 1251   1.442   1.439   8.985 -0.0885 -0.4439 -0.0881
   17CHL1  H26A 1252   1.529   1.447   9.054 -0.7060 -0.8189  0.7537
   17CHL1  H26B 1253   1.436   1.331   8.961 -1.1713 -0.4968  0.3559
   17CHL1  H26C 1254   1.458   1.493   8.889 -0.4716 -2.8441 -1.5646
   17CHL1   C27 1255   1.205   1.491   8.930 -0.4534 -0.0445 -0.4705
   17CHL1  H27A 1256   1.245   1.527   8.833  0.3134 -0.1584 -0.2055
   17CHL1  H27B 1257   1.182   1.384   8.913  0.2484 -0.0136 -1.7477
   17CHL1  H27C 1258   1.120   1.557   8.956  0.0947  1.2849 -1.8856
   18CHL1    C3 1259   6.238   0.897  10.320 -0.5460  0.0440  0.1747
   18CHL1    H3 1260   6.173   0.987  10.328 -2.7354 -1.6055  2.6315
   18CHL1    O3 1261   6.259   0.831  10.443  0.2481  0.0873  0.3240
   18CHL1   H3' 1262   6.317   0.755  10.430  3.2255  2.2288 -0.0232
   18CHL1    C4 1263   6.172   0.791  10.226  0.4856 -0.5948  0.3667
   18CHL1   H4A 1264   6.236   0.700  10.221  3.2916  1.3228 -1.2704
   18CHL1   H4B 1265   6.078   0.772  10.283  0.8931  1.1543  1.6862
   18CHL1    C5 1266   6.148   0.844  10.091 -0.1694 -0.1969  0.2305
   18CHL1    C6 1267   6.028   0.850  10.031  0.3091  0.2249  0.3822
   18CHL1    H6 1268   5.939   0.811  10.083 -0.2290  1.3085  0.3054
   18CHL1    C7 1269   6.002   0.909   9.891  0.0304  0.5821  0.1895
   18CHL1   H7A 1270   5.939   0.832   9.840  0.4390 -0.8410  1.7329
   18CHL1   H7B 1271   5.940   1.001   9.901 -1.6487 -0.6293  1.5495
   18CHL1    C8 1272   6.134   0.930   9.811  0.4610  0.2864 -0.4617
   18CHL1    H8 1273   6.172   0.831   9.780  0.9285 -0.0299  1.0575
   18CHL1   C14 1274   6.104   1.022   9.697 -0.5907 -0.3554  0.4572
   18CHL1   H14 1275   6.094   1.120   9.747  0.1321 -0.4058  0.7181
   18CHL1   C15 1276   5.976   0.991   9.612  0.1068 -0.0602 -0.3763
   18CHL1  H15A 1277   5.971   0.882   9.590  0.4284 -0.0822 -0.3524
   18CHL1  H15B 1278   5.875   1.018   9.649  0.7590 -0.2818  1.6919
   18CHL1   C16 1279   6.005   1.056   9.477  0.3333  0.4955 -0.3603
   18CHL1  H16A 1280   6.006   0.983   9.393 -1.6018 -0.7121  0.5845
   18CHL1  H16B 1281   5.933   1.137   9.454 -0.0257  0.0874 -0.7015
   18CHL1   C17 1282   6.141   1.125   9.496 -0.5533  0.4690  0.3447
   18CHL1   H17 1283   6.113   1.225   9.535 -1.8363  0.1411  0.3120
   18CHL1   C13 1284   6.222   1.042   9.601  0.1273 -0.3449  0.5132
   18CHL1   C18 1285   6.277   0.916   9.533  0.3145  0.4029 -0.3191
   18CHL1  H18A 1286   6.304   0.835   9.605  1.0314  0.2914 -0.7105
   18CHL1  H18B 1287   6.202   0.869   9.465 -2.3636  1.4292  1.7256
   18CHL1  H18C 1288   6.371   0.945   9.483  0.8090  0.3412  0.5548
   18CHL1   C12 1289   6.329   1.116   9.682 -1.1303  0.0527 -0.3249
   18CHL1  H12A 1290   6.426   1.124   9.628  0.2342 -2.1173  1.6369
   18CHL1  H12B 1291   6.298   1.218   9.716  0.0862  0.8060 -1.3935
   18CHL1   C11 1292   6.363   1.033   9.817  0.7303 -0.2122 -0.5193
   18CHL1  H11A 1293   6.409   0.938   9.785 -0.7787 -0.3317 -2.5453
   18CHL1  H11B 1294   6.425   1.098   9.882  2.1714  0.0226 -2.0911
   18CHL1    C9 1295   6.241   0.991   9.897  0.4260  0.0321 -1.2656
   18CHL1    H9 1296   6.202   1.080   9.950  0.2508 -1.2937  0.9257
   18CHL1   C10 1297   6.279   0.901  10.026 -0.2518 -0.7479  0.1505
   18CHL1   C19 1298   6.375   0.790   9.984  0.0167  0.7968  0.7438
   18CHL1  H19A 1299   6.344   0.734   9.893 -0.4974 -2.1357  2.5751
   18CHL1  H19B 1300   6.473   0.839   9.969 -1.0230  1.8122 -4.3531
   18CHL1  H19C 1301   6.377   0.707  10.059 -1.5802  1.0644  1.1197
   18CHL1    C1 1302   6.357   0.990  10.132  0.0646  0.5416  0.1894
   18CHL1   H1A 1303   6.457   1.012  10.088  0.6926  0.4490  1.5131
   18CHL1   H1B 1304   6.311   1.089  10.155 -0.4820  0.1778  0.6828
   18CHL1    C2 1305   6.377   0.932  10.266 -0.5590  0.4005  0.3050
   18CHL1   H2A 1306   6.431   1.001  10.334  2.6683 -2.4935  0.9814
   18CHL1   H2B 1307   6.437   0.838  10.258 -0.6500  0.2825  0.9665
   18CHL1   C20 1308   6.208   1.171   9.361  0.3987  0.4984  0.4267
   18CHL1   H20 1309   6.229   1.079   9.302 -1.2005  0.3368  0.0564
   18CHL1   C21 1310   6.343   1.238   9.372 -0.1934 -0.9402 -0.2782
   18CHL1  H21A 1311   6.345   1.341   9.413 -0.3823 -0.3958 -1.5938
   18CHL1  H21B 1312   6.381   1.248   9.269 -1.4548 -1.4573 -0.8165
   18CHL1  H21C 1313   6.423   1.171   9.411  0.5495  0.7086  1.1725
   18CHL1   C22 1314   6.113   1.265   9.280 -0.1840  0.5094  0.0449
   18CHL1  H22A 1315   6.021   1.203   9.273  1.1711 -1.4501 -2.2190
   18CHL1  H22B 1316   6.092   1.348   9.351 -0.7013 -0.3169  0.8782
   18CHL1   C23 1317   6.155   1.323   9.144  0.0730  0.3375  0.3263
   18CHL1  H23A 1318   6.210   1.415   9.173 -0.3089  0.2359  1.4266
   18CHL1  H23B 1319   6.216   1.253   9.083 -2.5586  0.2293 -2.4081
   18CHL1   C24 1320   6.032   1.373   9.072 -0.0916 -0.4182  0.4425
   18CHL1  H24A 1321   5.964   1.287   9.056 -0.7618  0.2393 -0.3312
   18CHL1  H24B 1322   5.979   1.447   9.136 -0.3560 -1.2958  1.2620
   18CHL1   C25 1323   6.073   1.436   8.938 -0.1209  0.1460  0.0293
   18CHL1   H25 1324   6.132   1.529   8.954 -1.5683  1.2724 -0.9904
   18CHL1   C26 1325   6.143   1.329   8.843 -0.3652 -0.5638  0.1603
   18CHL1  H26A 1326   6.167   1.374   8.745  2.1307  3.0010  2.1501
   18CHL1  H26B 1327   6.239   1.290   8.886 -1.0401 -1.2401  1.1020
   18CHL1  H26C 1328   6.069   1.247   8.830 -2.8599  1.4642  0.8561
   18CHL1   C27 1329   5.944   1.492   8.874 -0.0279  0.3877 -0.6949
   18CHL1  H27A 1330   5.972   1.538   8.777  0.1763  1.7005 -0.0406
   18CHL1  H27B 1331   5.879   1.407   8.845 -1.6953 -0.1463  3.7704
   18CHL1  H27C 1332   5.884   1.563   8.934 -2.3124 -1.0697 -1.1342
   19CHL1    C3 1333   2.719   5.716  10.085 -0.1531 -0.1652 -0.6447
   19CHL1    H3 1334   2.774   5.807  10.051  1.1727 -0.6162  0.2028
   19CHL1    O3 1335   2.685   5.729  10.223 -0.3248  0.4728 -0.0902
   19CHL1   H3' 1336   2.651   5.645  10.255  1.0108  0.9115  2.7463
   19CHL1    C4 1337   2.592   5.696   9.999  0.1872  0.1925 -0.0085
   19CHL1   H4A 1338   2.539   5.603  10.028 -2.2745  0.8577 -1.9280
   19CHL1   H4B 1339   2.523   5.779  10.027  2.6793  1.9736  1.2480
   19CHL1    C5 1340   2.622   5.696   9.850  0.2647 -0.5485  0.7037
   19CHL1    C6 1341   2.573   5.794   9.767 -0.0940 -0.1747 -0.2154
   19CHL1    H6 1342   2.502   5.871   9.800  0.1647  0.2696 -0.6990
   19CHL1    C7 1343   2.621   5.802   9.623 -0.0665  0.3506  0.6393
   19CHL1   H7A 1344   2.534   5.812   9.555 -0.4784 -2.1148  0.7065
   19CHL1   H7B 1345   2.695   5.885   9.613  1.1070 -0.6797  0.5040
   19CHL1    C8 1346   2.685   5.671   9.576  0.2848 -0.0766  0.2962
   19CHL1    H8 1347   2.596   5.605   9.564 -0.8017  1.4226 -0.1916
   19CHL1   C14 1348   2.758   5.702   9.454 -0.3967  0.0481  0.0621
   19CHL1   H14 1349   2.838   5.775   9.482 -1.7114  0.9780  1.5898
   19CHL1   C15 1350   2.690   5.781   9.342  0.2443  0.5331 -0.7299
   19CHL1  H15A 1351   2.588   5.738   9.343 -0.0567  1.2324 -0.3113
   19CHL1  H15B 1352   2.678   5.890   9.363  0.6914  0.3823  0.3872
   19CHL1   C16 1353   2.768   5.752   9.211  0.4233  0.2767 -0.1306
   19CHL1  H16A 1354   2.705   5.702   9.135 -0.5994 -0.6990  1.3154
   19CHL1  H16B 1355   2.809   5.844   9.164  1.2082 -0.5045 -1.0172
   19CHL1   C17 1356   2.889   5.660   9.251  0.1795 -0.4397 -0.4030
   19CHL1   H17 1357   2.980   5.722   9.264 -0.8291  1.4501 -1.8152
   19CHL1   C13 1358   2.845   5.591   9.389  0.7121  0.0595  0.1186
   19CHL1   C18 1359   2.753   5.475   9.347 -0.2933  0.1897  0.7359
   19CHL1  H18A 1360   2.704   5.509   9.253 -0.9815  1.2955  1.4713
   19CHL1  H18B 1361   2.811   5.380   9.341  0.6620  0.7422  0.9839
   19CHL1  H18C 1362   2.669   5.468   9.419 -0.9747 -1.1213 -0.1246
   19CHL1   C12 1363   2.944   5.549   9.495 -0.5065 -0.2943 -0.0856
   19CHL1  H12A 1364   3.009   5.468   9.456 -0.2993 -0.4901  0.6479
   19CHL1  H12B 1365   3.012   5.632   9.525  1.6556 -1.3429 -1.8274
   19CHL1   C11 1366   2.868   5.502   9.621 -0.3640 -0.3697  1.4635
   19CHL1  H11A 1367   2.811   5.416   9.578 -1.6126  1.1402 -0.0217
   19CHL1  H11B 1368   2.948   5.461   9.687  0.9864  1.1572  0.8326
   19CHL1    C9 1369   2.786   5.611   9.679  0.5718 -0.0858 -0.7976
   19CHL1    H9 1370   2.849   5.701   9.698 -2.7102  2.5875 -1.4965
   19CHL1   C10 1371   2.725   5.590   9.821 -0.1544 -0.1013  0.1410
   19CHL1   C19 1372   2.673   5.442   9.829 -0.1228 -0.2191 -0.2044
   19CHL1  H19A 1373   2.753   5.366   9.817 -0.3411 -0.2551 -1.5505
   19CHL1  H19B 1374   2.615   5.420   9.922  0.0862 -0.5014 -0.1392
   19CHL1  H19C 1375   2.600   5.425   9.747  0.6301 -0.1812 -0.8972
   19CHL1    C1 1376   2.848   5.586   9.927  0.1673 -0.1995  0.8480
   19CHL1   H1A 1377   2.914   5.498   9.908 -2.6438 -1.8482 -2.4427
   19CHL1   H1B 1378   2.915   5.672   9.905  1.1666 -1.0495  0.4154
   19CHL1    C2 1379   2.809   5.598  10.069  1.3659  0.4216 -0.1644
   19CHL1   H2A 1380   2.889   5.599  10.147 -0.1162 -1.6010  1.5152
   19CHL1   H2B 1381   2.745   5.510  10.095 -0.4919  1.7396 -0.1267
   19CHL1   C20 1382   2.922   5.571   9.128 -0.3514 -0.8594 -0.0969
   19CHL1   H20 1383   2.846   5.495   9.100  1.2492 -1.7405 -2.4095
   19CHL1   C21 1384   3.047   5.490   9.179 -0.1244  0.0129 -0.4101
   19CHL1  H21A 1385   3.080   5.430   9.091 -0.6963 -1.0999  0.1063
   19CHL1  H21B 1386   3.027   5.421   9.264 -0.4800  1.1349  0.4328
   19CHL1  H21C 1387   3.127   5.562   9.204 -0.9758  0.0568  2.5423
   19CHL1   C22 1388   2.952   5.647   8.999 -0.4762 -0.6743  0.0916
   19CHL1  H22A 1389   2.871   5.720   8.978  1.1970  1.2694  0.0620
   19CHL1  H22B 1390   3.049   5.701   9.005 -0.3835 -0.4053 -2.4671
   19CHL1   C23 1391   2.965   5.554   8.877 -0.3986  0.0093 -0.3062
   19CHL1  H23A 1392   3.063   5.505   8.860  0.3553  1.4825 -0.4169
   19CHL1  H23B 1393   2.894   5.469   8.884 -1.1337  0.4897 -1.6183
   19CHL1   C24 1394   2.938   5.633   8.745 -0.1057 -0.2827 -0.1710
   19CHL1  H24A 1395   2.932   5.565   8.657 -0.4611  0.7113 -0.9399
   19CHL1  H24B 1396   2.841   5.687   8.745  1.4381  2.7807  2.3145
   19CHL1   C25 1397   3.045   5.734   8.703 -0.1222 -0.8954  0.5123
   19CHL1   H25 1398   3.070   5.796   8.792 -1.1038  0.4647 -0.1261
   19CHL1   C26 1399   3.174   5.657   8.662  0.3763  0.3553  0.4821
   19CHL1  H26A 1400   3.166   5.609   8.562 -0.4405 -0.4817  0.9385
   19CHL1  H26B 1401   3.257   5.731   8.660 -0.0167  0.8286  1.1966
   19CHL1  H26C 1402   3.204   5.582   8.739 -1.3800  0.6771  1.5422
   19CHL1   C27 1403   2.998   5.811   8.583 -0.1041 -0.8338  0.7151
   19CHL1  H27A 1404   3.074   5.885   8.549  0.0270  0.1949  3.0399
   19CHL1  H27B 1405   2.976   5.737   8.503 -0.7061 -1.9903  1.9088
   19CHL1  H27C 1406   2.898   5.855   8.600 -0.1615  0.2599 -1.9924
   20CHL1    C3 1407   5.304   5.442  10.502  0.2913 -0.3994 -0.1662
   20CHL1    H3 1408   5.390   5.373  10.492  0.3061 -0.2522 -1.1847
   20CHL1    O3 1409   5.264   5.444  10.636 -0.4970  0.5833  0.5056
   20CHL1   H3' 1410   5.215   5.526  10.641  0.2244  1.1097 -0.7569
   20CHL1    C4 1411   5.328   5.581  10.444  0.5032  0.5462 -0.0403
   20CHL1   H4A 1412   5.242   5.649  10.464 -0.4646 -0.2145 -1.4745
   20CHL1   H4B 1413   5.414   5.624  10.500  1.1652 -1.6424  0.7067
   20CHL1    C5 1414   5.372   5.571  10.301  0.4133 -0.0631  0.3022
   20CHL1    C6 1415   5.485   5.630  10.261 -0.3015 -0.0240 -0.6956
   20CHL1    H6 1416   5.549   5.681  10.335 -2.2953 -1.1961  2.0116
   20CHL1    C7 1417   5.526   5.635  10.112  0.2198 -0.4353 -0.5847
   20CHL1   H7A 1418   5.560   5.739  10.094 -2.0054  0.3734 -0.3944
   20CHL1   H7B 1419   5.607   5.561  10.091  0.0760 -0.6530 -0.3785
   20CHL1    C8 1420   5.412   5.603  10.018 -0.3350  0.0606 -0.3119
   20CHL1    H8 1421   5.336   5.683  10.003  0.6057  0.6648 -2.2435
   20CHL1   C14 1422   5.478   5.574   9.886 -0.3105 -0.1372 -0.5247
   20CHL1   H14 1423   5.538   5.481   9.901 -0.7736  0.0011  2.8495
   20CHL1   C15 1424   5.575   5.677   9.826 -0.6667  0.1336  0.9257
   20CHL1  H15A 1425   5.535   5.781   9.835  2.8050  1.4379  3.9791
   20CHL1  H15B 1426   5.675   5.676   9.875  0.8878  0.9245 -2.0241
   20CHL1   C16 1427   5.587   5.636   9.674  0.2845 -0.3391 -0.3529
   20CHL1  H16A 1428   5.547   5.722   9.617 -1.5702 -2.5383 -2.6263
   20CHL1  H16B 1429   5.689   5.603   9.647  0.7062 -2.3242  2.9862
   20CHL1   C17 1430   5.483   5.519   9.652 -0.8528 -0.4027 -1.0345
   20CHL1   H17 1431   5.547   5.430   9.666 -0.0482 -0.0154 -2.1328
   20CHL1   C13 1432   5.386   5.533   9.772  1.1483 -0.1156  0.3312
   20CHL1   C18 1433   5.277   5.638   9.737 -0.2317 -0.5089 -0.1891
   20CHL1  H18A 1434   5.232   5.680   9.829  0.6875 -1.2337  0.6053
   20CHL1  H18B 1435   5.329   5.723   9.687 -0.5542  0.5953  1.2968
   20CHL1  H18C 1436   5.201   5.590   9.671  0.5211 -1.3802 -0.4497
   20CHL1   C12 1437   5.324   5.400   9.828 -1.0313 -0.3166 -0.4311
   20CHL1  H12A 1438   5.256   5.366   9.747 -0.3527  2.1737 -2.1927
   20CHL1  H12B 1439   5.401   5.322   9.846 -0.4793  0.5273  1.0687
   20CHL1   C11 1440   5.249   5.419   9.960 -0.2238 -0.4603 -0.5554
   20CHL1  H11A 1441   5.164   5.483   9.930  0.5396  0.8564 -0.0031
   20CHL1  H11B 1442   5.216   5.323  10.004  2.1818 -0.5277  1.3230
   20CHL1    C9 1443   5.342   5.476  10.071  0.0586 -0.2070 -0.1097
   20CHL1    H9 1444   5.420   5.397  10.068 -1.2272 -1.4749 -0.9133
   20CHL1   C10 1445   5.270   5.499  10.207  0.3154  0.1267 -0.3826
   20CHL1   C19 1446   5.135   5.578  10.193 -0.2696  0.7015 -0.6685
   20CHL1  H19A 1447   5.101   5.604  10.295 -0.6322 -1.3571 -0.2094
   20CHL1  H19B 1448   5.154   5.669  10.132 -0.4419  2.9371  2.3904
   20CHL1  H19C 1449   5.051   5.521  10.149  0.2496  1.7582 -3.2135
   20CHL1    C1 1450   5.239   5.355  10.271 -0.0053  0.0851  0.4496
   20CHL1   H1A 1451   5.166   5.295  10.214  0.8377  2.2808 -3.3038
   20CHL1   H1B 1452   5.338   5.307  10.254 -0.2590 -0.2689 -0.0080
   20CHL1    C2 1453   5.197   5.368  10.419  0.8793  0.8697 -0.5073
   20CHL1   H2A 1454   5.178   5.264  10.451  1.2144  0.7028 -0.8360
   20CHL1   H2B 1455   5.093   5.405  10.429  0.3177 -0.8894  0.5560
   20CHL1   C20 1456   5.422   5.505   9.506  0.2383 -0.3560  0.1681
   20CHL1   H20 1457   5.364   5.596   9.477 -2.0495 -2.2663 -1.6142
   20CHL1   C21 1458   5.335   5.378   9.486  0.6792  0.1350  0.3345
   20CHL1  H21A 1459   5.382   5.294   9.542  0.8918 -1.3990 -1.9730
   20CHL1  H21B 1460   5.330   5.356   9.377 -2.3634 -1.0799  0.6100
   20CHL1  H21C 1461   5.229   5.396   9.514  0.4766 -0.4867 -0.0126
   20CHL1   C22 1462   5.532   5.501   9.403 -0.0907  0.4292  0.1851
   20CHL1  H22A 1463   5.624   5.557   9.431  0.8025 -0.7002 -0.3983
   20CHL1  H22B 1464   5.563   5.394   9.390  2.8191  0.9400  1.8911
   20CHL1   C23 1465   5.494   5.546   9.260 -0.1304 -0.2701 -0.2848
   20CHL1  H23A 1466   5.404   5.495   9.220 -0.0214  0.6460 -1.7815
   20CHL1  H23B 1467   5.472   5.655   9.259  1.0533 -0.0141  0.0526
   20CHL1   C24 1468   5.599   5.531   9.152  0.4309 -0.1179  0.4134
   20CHL1  H24A 1469   5.678   5.606   9.175 -2.2078  2.6426  1.1501
   20CHL1  H24B 1470   5.644   5.431   9.169  0.0288 -0.9420 -2.7843
   20CHL1   C25 1471   5.529   5.532   9.009  0.4102 -0.0832  0.0000
   20CHL1   H25 1472   5.442   5.464   9.014 -2.9880  3.8831  0.4674
   20CHL1   C26 1473   5.469   5.672   8.983  0.5593  0.4296 -0.1812
   20CHL1  H26A 1474   5.413   5.672   8.887  0.3434  3.2119 -0.1420
   20CHL1  H26B 1475   5.402   5.699   9.067  2.5404 -0.0441  1.6453
   20CHL1  H26C 1476   5.559   5.737   8.983 -1.6355  3.7143  0.8274
   20CHL1   C27 1477   5.622   5.485   8.891 -0.7297 -0.4098  0.4435
   20CHL1  H27A 1478   5.657   5.385   8.926  1.2405  0.6916  1.8106
   20CHL1  H27B 1479   5.572   5.483   8.792  1.3343  1.8585 -0.7251
   20CHL1  H27C 1480   5.713   5.547   8.890 -1.8396  1.2757  0.2073
   21CHL1    C3 1481   4.899   0.900  10.218 -0.3575  0.7357 -0.4969
   21CHL1    H3 1482   4.891   0.790  10.201  0.9527  0.9427 -2.9918
   21CHL1    O3 1483   4.894   0.928  10.354 -0.0971 -0.2161 -0.2110
   21CHL1   H3' 1484   4.875   1.022  10.355  0.4113 -0.0943  1.6408
   21CHL1    C4 1485   5.034   0.947  10.168  0.4485  0.1412 -0.2486
   21CHL1   H4A 1486   5.057   1.051  10.200 -3.4180  1.9242 -2.5509
   21CHL1   H4B 1487   5.108   0.879  10.216 -0.5776 -0.0681  1.0947
   21CHL1    C5 1488   5.026   0.950  10.012  0.0741  0.5367 -0.3853
   21CHL1    C6 1489   5.121   0.881   9.949 -0.0431 -0.2607 -0.5291
   21CHL1    H6 1490   5.194   0.826  10.011  0.0849  1.3170  0.8078
   21CHL1    C7 1491   5.128   0.881   9.797 -0.1594 -0.1099 -0.4856
   21CHL1   H7A 1492   5.230   0.875   9.754  0.2155 -1.2211  0.5013
   21CHL1   H7B 1493   5.073   0.787   9.772 -1.7603  0.7110 -0.1811
   21CHL1    C8 1494   5.051   0.995   9.728 -0.1247 -0.0347 -0.4917
   21CHL1    H8 1495   5.103   1.091   9.752 -0.2486 -0.2224  0.5792
   21CHL1   C14 1496   5.049   0.970   9.577 -0.1688  0.0156 -0.0060
   21CHL1   H14 1497   4.989   0.876   9.568 -2.1945  1.2005  0.3824
   21CHL1   C15 1498   5.180   0.950   9.496 -0.3292 -0.2678  0.0422
   21CHL1  H15A 1499   5.252   1.029   9.528 -0.2307 -0.8097  1.2094
   21CHL1  H15B 1500   5.231   0.853   9.514  1.8292  0.5321 -1.3186
   21CHL1   C16 1501   5.138   0.971   9.353 -0.0060 -0.4114  0.2930
   21CHL1  H16A 1502   5.194   1.058   9.313 -1.5790 -0.2185 -1.6646
   21CHL1  H16B 1503   5.138   0.888   9.278  0.5779  0.5949 -0.8707
   21CHL1   C17 1504   4.987   1.022   9.358  0.4870  0.0961  0.2986
   21CHL1   H17 1505   4.920   0.934   9.353  0.0870  0.4144  0.0522
   21CHL1   C13 1506   4.969   1.076   9.499  0.1743  0.5241  0.6457
   21CHL1   C18 1507   5.038   1.215   9.515  0.8250 -0.6799 -1.2677
   21CHL1  H18A 1508   5.138   1.212   9.467 -0.2881 -2.1795 -3.6603
   21CHL1  H18B 1509   4.980   1.291   9.459  2.6747 -0.5956 -3.1700
   21CHL1  H18C 1510   5.049   1.246   9.622  1.2771 -0.2267 -1.4433
   21CHL1   C12 1511   4.821   1.076   9.557 -0.3078 -0.4417  0.1593
   21CHL1  H12A 1512   4.779   1.168   9.511  3.3578  1.5185  0.3646
   21CHL1  H12B 1513   4.768   0.986   9.518 -0.4745 -0.6782  0.9271
   21CHL1   C11 1514   4.822   1.101   9.708 -0.0452  0.0389 -0.1923
   21CHL1  H11A 1515   4.852   1.207   9.716 -1.1943  0.2833  1.2247
   21CHL1  H11B 1516   4.718   1.083   9.742 -0.1353 -0.9671 -0.9477
   21CHL1    C9 1517   4.908   1.006   9.788  0.3464  0.4504 -0.5905
   21CHL1    H9 1518   4.866   0.905   9.767  1.4713 -0.0336 -0.5834
   21CHL1   C10 1519   4.913   1.021   9.939  0.0711  0.2832 -0.5416
   21CHL1   C19 1520   4.917   1.172   9.975  0.2135 -0.6203  0.2544
   21CHL1  H19A 1521   4.997   1.217   9.913 -1.5368  1.0509 -0.8949
   21CHL1  H19B 1522   4.826   1.228   9.945 -0.7081 -2.0175  0.3367
   21CHL1  H19C 1523   4.935   1.182  10.084  1.1608  0.5398  0.0229
   21CHL1    C1 1524   4.783   0.964  10.004  0.3361 -0.0246 -0.3664
   21CHL1   H1A 1525   4.688   1.010   9.967 -1.2179 -1.1681  1.9311
   21CHL1   H1B 1526   4.767   0.867   9.952 -0.5635  0.0935 -0.3410
   21CHL1    C2 1527   4.778   0.971  10.154  0.0698 -0.1130  0.3778
   21CHL1   H2A 1528   4.687   0.919  10.192  0.6468 -0.3334  1.5225
   21CHL1   H2B 1529   4.778   1.076  10.191 -1.0063  0.2790 -0.6995
   21CHL1   C20 1530   4.963   1.115   9.237 -0.6296 -0.0992  0.0197
   21CHL1   H20 1531   5.033   1.201   9.245 -0.0967 -0.4228 -0.9628
   21CHL1   C21 1532   4.824   1.182   9.246  0.3292 -1.0883 -0.1600
   21CHL1  H21A 1533   4.742   1.109   9.230 -0.9897  0.1611  0.7057
   21CHL1  H21B 1534   4.815   1.243   9.153 -1.5117  1.6000  1.6207
   21CHL1  H21C 1535   4.812   1.254   9.330  2.1531  2.4576 -2.6558
   21CHL1   C22 1536   4.989   1.053   9.101 -0.2773 -0.1834  0.6801
   21CHL1  H22A 1537   5.001   1.135   9.026  1.1852 -1.4396 -0.5389
   21CHL1  H22B 1538   5.092   1.011   9.109 -0.8305 -1.5890  0.5873
   21CHL1   C23 1539   4.906   0.935   9.063  0.4655  0.6577  0.2320
   21CHL1  H23A 1540   4.924   0.861   9.143  1.4924  1.2727  0.5946
   21CHL1  H23B 1541   4.797   0.953   9.058  0.3146 -0.5822 -1.7956
   21CHL1   C24 1542   4.949   0.877   8.922 -0.0229  0.6075 -0.3399
   21CHL1  H24A 1543   4.922   0.959   8.852 -0.0534  0.5325 -0.4165
   21CHL1  H24B 1544   5.059   0.860   8.915  0.2679  2.1697 -0.0226
   21CHL1   C25 1545   4.872   0.748   8.883  0.2856  0.1408 -0.1451
   21CHL1   H25 1546   4.906   0.672   8.957  0.6128 -0.2883 -0.7269
   21CHL1   C26 1547   4.720   0.759   8.886  0.1451  0.1868  0.6076
   21CHL1  H26A 1548   4.687   0.840   8.817 -2.7504  0.3984  2.0849
   21CHL1  H26B 1549   4.662   0.666   8.868 -0.7726  0.7167  0.7467
   21CHL1  H26C 1550   4.689   0.788   8.989 -0.9036 -1.0796  0.6743
   21CHL1   C27 1551   4.911   0.702   8.746  0.6334 -0.7614 -0.3331
   21CHL1  H27A 1552   4.873   0.767   8.664  0.7534  1.7238  1.4717
   21CHL1  H27B 1553   5.022   0.708   8.745  0.5677  1.4527 -0.3066
   21CHL1  H27C 1554   4.880   0.597   8.731  1.6170 -0.8835 -1.7245
   22CHL1    C3 1555   5.443   2.320  10.255  0.3897 -0.2969  0.4067
   22CHL1    H3 1556   5.534   2.381  10.273 -0.7160  1.5832 -0.0248
   22CHL1    O3 1557   5.406   2.267  10.374  0.1307  0.0497 -0.0544
   22CHL1   H3' 1558   5.312   2.249  10.366  0.2331 -1.0870  0.9756
   22CHL1    C4 1559   5.330   2.416  10.208  0.3307  0.0985  0.2193
   22CHL1   H4A 1560   5.240   2.353  10.217  0.8278 -0.8772 -1.2134
   22CHL1   H4B 1561   5.311   2.498  10.280  1.6364 -0.4818  1.2802
   22CHL1    C5 1562   5.328   2.460  10.060  0.1740  0.4906  0.0411
   22CHL1    C6 1563   5.287   2.585  10.028  0.8118 -0.5523  0.0393
   22CHL1    H6 1564   5.252   2.642  10.115  2.5050  1.5392 -0.5606
   22CHL1    C7 1565   5.273   2.641   9.898  0.2040  1.1872 -0.5787
   22CHL1   H7A 1566   5.164   2.665   9.898 -0.7385 -2.5091 -1.4480
   22CHL1   H7B 1567   5.344   2.727   9.898  2.4753 -0.6140 -0.7055
   22CHL1    C8 1568   5.304   2.547   9.780  1.4203  0.1943 -0.3260
   22CHL1    H8 1569   5.206   2.500   9.759  0.1621  1.3387  2.4134
   22CHL1   C14 1570   5.345   2.609   9.647 -0.3045 -0.2134 -0.4700
   22CHL1   H14 1571   5.447   2.653   9.655 -1.2059  2.0739 -0.8270
   22CHL1   C15 1572   5.261   2.729   9.600  0.0202  0.2356 -0.9563
   22CHL1  H15A 1573   5.153   2.703   9.603  0.0529 -0.0993  3.5772
   22CHL1  H15B 1574   5.275   2.817   9.666  0.4263 -0.1455 -0.5264
   22CHL1   C16 1575   5.304   2.755   9.456  0.1149 -0.3385 -0.1662
   22CHL1  H16A 1576   5.214   2.760   9.391 -0.5710 -0.7300  0.7309
   22CHL1  H16B 1577   5.360   2.850   9.441  2.7929 -1.8349 -0.3821
   22CHL1   C17 1578   5.393   2.630   9.425 -0.4822 -0.5188  0.5638
   22CHL1   H17 1579   5.499   2.656   9.439 -0.9044  1.1437  0.8578
   22CHL1   C13 1580   5.360   2.520   9.532 -0.0801 -0.6899 -0.3646
   22CHL1   C18 1581   5.229   2.446   9.486 -0.0150  0.1892 -0.3807
   22CHL1  H18A 1582   5.259   2.375   9.406  4.7927  2.2558 -0.7175
   22CHL1  H18B 1583   5.181   2.393   9.571 -0.0168 -1.7439 -1.5310
   22CHL1  H18C 1584   5.161   2.518   9.434 -0.8356  0.9005  1.5656
   22CHL1   C12 1585   5.478   2.422   9.573  0.5227  0.6403 -0.6700
   22CHL1  H12A 1586   5.499   2.342   9.499 -1.7237 -3.4809  2.7538
   22CHL1  H12B 1587   5.573   2.479   9.584  2.2324 -2.0711 -0.5934
   22CHL1   C11 1588   5.450   2.345   9.709  0.2326 -0.1277 -0.2533
   22CHL1  H11A 1589   5.372   2.269   9.687  0.9434 -1.0424  0.2856
   22CHL1  H11B 1590   5.545   2.292   9.734 -1.4039 -3.1694 -0.0911
   22CHL1    C9 1591   5.411   2.438   9.821 -0.0069  0.1718 -0.0102
   22CHL1    H9 1592   5.500   2.500   9.849  0.5111 -1.1106  1.3322
   22CHL1   C10 1593   5.377   2.356   9.958  1.1046  0.2712  0.0162
   22CHL1   C19 1594   5.256   2.257   9.933 -0.2461  0.2385 -0.2650
   22CHL1  H19A 1595   5.216   2.229  10.033 -1.3311  0.0817 -0.7368
   22CHL1  H19B 1596   5.178   2.314   9.880 -1.2997 -1.5101 -0.6647
   22CHL1  H19C 1597   5.287   2.171   9.869 -0.3498  1.4181 -1.9351
   22CHL1    C1 1598   5.496   2.276  10.013 -0.7926 -0.4182 -0.3025
   22CHL1   H1A 1599   5.530   2.202   9.937 -1.9224  0.8762 -2.1311
   22CHL1   H1B 1600   5.578   2.352  10.015 -0.0107 -1.2457  1.3552
   22CHL1    C2 1601   5.478   2.211  10.154 -0.7472 -0.4422  0.6497
   22CHL1   H2A 1602   5.566   2.154  10.188 -0.5044 -0.6519 -0.3028
   22CHL1   H2B 1603   5.388   2.146  10.144 -0.1659 -1.1895  0.1615
   22CHL1   C20 1604   5.381   2.587   9.277 -0.1534 -0.5814  0.8169
   22CHL1   H20 1605   5.273   2.565   9.264 -0.0957 -1.2806  1.4842
   22CHL1   C21 1606   5.477   2.467   9.249 -0.2007 -0.2135  0.0099
   22CHL1  H21A 1607   5.488   2.439   9.142  0.7400 -1.7396  0.4856
   22CHL1  H21B 1608   5.423   2.382   9.296 -1.7447 -0.1388 -1.5083
   22CHL1  H21C 1609   5.580   2.485   9.285 -0.5714  3.3471 -0.3293
   22CHL1   C22 1610   5.415   2.711   9.181  0.5420  0.3733 -0.2572
   22CHL1  H22A 1611   5.337   2.789   9.196  1.8538  1.6907 -0.0869
   22CHL1  H22B 1612   5.519   2.743   9.204  0.2222 -0.4528  2.8732
   22CHL1   C23 1613   5.408   2.673   9.036  0.2973  0.1154  0.3684
   22CHL1  H23A 1614   5.461   2.578   9.013 -2.5020 -1.3041 -0.6712
   22CHL1  H23B 1615   5.303   2.654   9.005  0.0613  0.8830  0.6810
   22CHL1   C24 1616   5.472   2.784   8.953 -0.4542 -0.3093 -0.0522
   22CHL1  H24A 1617   5.430   2.884   8.977  0.0304  0.0845 -0.7948
   22CHL1  H24B 1618   5.579   2.797   8.981  0.3120  0.7529 -3.0997
   22CHL1   C25 1619   5.465   2.759   8.798  0.2870 -0.1783 -0.2381
   22CHL1   H25 1620   5.504   2.656   8.792 -1.0412 -0.7441  0.4701
   22CHL1   C26 1621   5.333   2.770   8.728 -1.0258  0.2916  1.0929
   22CHL1  H26A 1622   5.255   2.701   8.768 -0.6416 -0.4225  0.6416
   22CHL1  H26B 1623   5.306   2.877   8.733  1.0923  0.9822 -0.7200
   22CHL1  H26C 1624   5.350   2.736   8.624 -0.5635 -0.7749  1.4886
   22CHL1   C27 1625   5.548   2.860   8.723 -0.1656 -0.1044  0.1946
   22CHL1  H27A 1626   5.551   2.834   8.615 -0.2155  0.1719  0.1252
   22CHL1  H27B 1627   5.510   2.964   8.736  3.0389  0.9590  2.0516
   22CHL1  H27C 1628   5.647   2.857   8.772 -0.1498 -0.6148  0.1317
   23CHL1    C3 1629   2.538   3.459  10.299 -0.5421  0.0500  0.8618
   23CHL1    H3 1630   2.457   3.523  10.258  0.8170  0.2305 -1.6995
   23CHL1    O3 1631   2.586   3.505  10.424 -0.2805 -0.6026  0.0856
   23CHL1   H3' 1632   2.668   3.455  10.427  1.4572  1.8606 -2.1154
   23CHL1    C4 1633   2.481   3.316  10.311  0.1095  0.5300  0.4518
   23CHL1   H4A 1634   2.558   3.247  10.351  1.5259  0.2410 -2.4628
   23CHL1   H4B 1635   2.398   3.318  10.385  0.0368  1.4794  0.3689
   23CHL1    C5 1636   2.425   3.280  10.167  0.0991 -0.0387  0.1260
   23CHL1    C6 1637   2.291   3.261  10.153  0.8052  0.4202  0.3324
   23CHL1    H6 1638   2.222   3.258  10.238 -2.0129 -2.0648 -1.8183
   23CHL1    C7 1639   2.225   3.246  10.020  0.1728 -0.5113 -0.2149
   23CHL1   H7A 1640   2.166   3.151  10.017 -0.6232 -0.1167  1.7750
   23CHL1   H7B 1641   2.148   3.322   9.997  0.7577  1.0281  2.5917
   23CHL1    C8 1642   2.326   3.219   9.910 -0.8083  0.2149  0.4051
   23CHL1    H8 1643   2.369   3.117   9.923  2.7492  1.1866 -2.1552
   23CHL1   C14 1644   2.268   3.223   9.764  0.4401  0.5074  0.7933
   23CHL1   H14 1645   2.253   3.332   9.750  3.8565  0.7960 -1.9443
   23CHL1   C15 1646   2.142   3.143   9.732  0.7506 -0.4710 -0.1782
   23CHL1  H15A 1647   2.149   3.042   9.776 -0.2478 -0.2045  0.6042
   23CHL1  H15B 1648   2.049   3.185   9.775  0.1967 -0.7695 -1.0559
   23CHL1   C16 1649   2.143   3.133   9.575 -0.2936 -0.5788  0.9368
   23CHL1  H16A 1650   2.127   3.028   9.543  1.0435 -0.8005  0.9535
   23CHL1  H16B 1651   2.061   3.199   9.538 -1.0594 -2.0149 -0.0070
   23CHL1   C17 1652   2.283   3.175   9.522  0.0262  0.0721 -0.5063
   23CHL1   H17 1653   2.273   3.279   9.484 -2.8249  0.1195  0.1877
   23CHL1   C13 1654   2.371   3.183   9.648 -0.1714  0.0591  0.2236
   23CHL1   C18 1655   2.425   3.044   9.673  0.6111  0.2404  0.7142
   23CHL1  H18A 1656   2.493   3.018   9.589 -0.1682  2.6905 -0.7814
   23CHL1  H18B 1657   2.481   3.041   9.768  3.7363  1.7662 -0.9334
   23CHL1  H18C 1658   2.341   2.972   9.685  0.2669  0.5989  0.5057
   23CHL1   C12 1659   2.477   3.284   9.655 -0.1319  0.0980 -0.2725
   23CHL1  H12A 1660   2.557   3.254   9.585  2.2952  1.4465  1.7526
   23CHL1  H12B 1661   2.436   3.385   9.634  0.0926 -0.1030 -1.7882
   23CHL1   C11 1662   2.549   3.302   9.798 -0.0361  0.1231  0.2304
   23CHL1  H11A 1663   2.617   3.214   9.793  1.4698  1.2284  0.3000
   23CHL1  H11B 1664   2.616   3.390   9.783  1.6507 -1.5683 -3.4864
   23CHL1    C9 1665   2.453   3.310   9.918  0.1394 -0.3859  0.2947
   23CHL1    H9 1666   2.404   3.410   9.919  0.0645 -0.4236  0.5542
   23CHL1   C10 1667   2.531   3.306  10.054  0.2768  0.0083 -0.3346
   23CHL1   C19 1668   2.623   3.188  10.069  0.1364 -0.3071  0.1462
   23CHL1  H19A 1669   2.711   3.193  10.002  0.6485  0.0180  0.8329
   23CHL1  H19B 1670   2.657   3.183  10.174 -1.2187 -1.6065  0.5696
   23CHL1  H19C 1671   2.583   3.090  10.034  2.8885 -0.8940 -1.6759
   23CHL1    C1 1672   2.617   3.435  10.059  0.3406 -0.3150  0.2564
   23CHL1   H1A 1673   2.715   3.406  10.016 -0.2954 -1.5262 -0.4709
   23CHL1   H1B 1674   2.566   3.515  10.001  0.9681 -0.0329  0.0879
   23CHL1    C2 1675   2.657   3.473  10.198  0.0874 -0.3431 -0.0247
   23CHL1   H2A 1676   2.703   3.574  10.192  0.9898 -0.7515  0.0053
   23CHL1   H2B 1677   2.741   3.415  10.241  1.6651  0.6422 -1.6849
   23CHL1   C20 1678   2.340   3.086   9.406  0.7958  0.1264 -0.0080
   23CHL1   H20 1679   2.372   2.982   9.432 -2.2223 -0.9110 -0.0989
   23CHL1   C21 1680   2.469   3.137   9.340 -0.1712  0.5871 -0.2112
   23CHL1  H21A 1681   2.470   3.247   9.325  0.1144  0.7092  0.6187
   23CHL1  H21B 1682   2.484   3.083   9.245  1.3429  0.2377  0.1924
   23CHL1  H21C 1683   2.559   3.117   9.403 -0.0174  0.9336 -0.3182
   23CHL1   C22 1684   2.229   3.079   9.286  0.4358  0.7165 -0.4061
   23CHL1  H22A 1685   2.126   3.070   9.327  0.6857  0.0251  0.0966
   23CHL1  H22B 1686   2.234   3.172   9.226 -2.3832  0.0182 -1.8982
   23CHL1   C23 1687   2.251   2.950   9.203 -0.0604  0.9574  0.6299
   23CHL1  H23A 1688   2.341   2.958   9.138 -0.6487  0.0741 -0.3389
   23CHL1  H23B 1689   2.253   2.857   9.263  0.2525 -1.3494 -2.6780
   23CHL1   C24 1690   2.126   2.926   9.114 -0.4015 -1.1278  0.0949
   23CHL1  H24A 1691   2.048   2.907   9.191  0.8057 -2.7929  0.9805
   23CHL1  H24B 1692   2.098   3.025   9.073 -2.4216 -0.1931  3.3932
   23CHL1   C25 1693   2.138   2.814   9.023 -0.2849  0.4280  0.4801
   23CHL1   H25 1694   2.173   2.734   9.092  1.5340  0.3703 -0.4380
   23CHL1   C26 1695   2.004   2.753   8.968  0.8295 -0.3314 -1.2207
   23CHL1  H26A 1696   1.954   2.836   8.912 -1.0547  0.1651  1.0404
   23CHL1  H26B 1697   2.027   2.664   8.905  1.1303 -1.5349  0.5313
   23CHL1  H26C 1698   1.939   2.720   9.052 -0.1549  1.4803 -1.2129
   23CHL1   C27 1699   2.240   2.837   8.913 -0.1596  0.5173 -0.1652
   23CHL1  H27A 1700   2.337   2.875   8.951  1.7977 -2.7616 -1.4324
   23CHL1  H27B 1701   2.256   2.739   8.862 -1.4437 -0.4005  1.0906
   23CHL1  H27C 1702   2.186   2.911   8.851 -3.3522 -1.4685 -0.0131
   24CHL1    C3 1703   2.279   5.005  10.339  0.5789  0.1322  0.4097
   24CHL1    H3 1704   2.214   4.921  10.308  1.7454  0.0477 -2.0857
   24CHL1    O3 1705   2.278   5.024  10.479  0.1938 -0.2468  0.1449
   24CHL1   H3' 1706   2.351   5.078  10.508  0.0098  0.1107 -0.0534
   24CHL1    C4 1707   2.420   4.985  10.284 -0.1360 -0.6883  0.5095
   24CHL1   H4A 1708   2.495   5.060  10.316  0.4782 -0.8666 -0.4873
   24CHL1   H4B 1709   2.446   4.884  10.323  0.5256 -1.5952 -2.0773
   24CHL1    C5 1710   2.422   4.972  10.133  0.6217 -0.8993  0.7813
   24CHL1    C6 1711   2.477   4.863  10.074 -0.5598 -0.4851 -0.1358
   24CHL1    H6 1712   2.516   4.784  10.139 -3.4820 -0.1487  2.2590
   24CHL1    C7 1713   2.494   4.848   9.918  0.4216  0.0069  0.1704
   24CHL1   H7A 1714   2.587   4.804   9.878 -1.0189 -1.2808 -1.9768
   24CHL1   H7B 1715   2.408   4.788   9.881  0.3790 -0.9772  1.7564
   24CHL1    C8 1716   2.470   4.981   9.843 -0.7000 -0.3690 -1.1233
   24CHL1    H8 1717   2.566   5.033   9.862  0.3455 -1.7686 -2.2644
   24CHL1   C14 1718   2.451   4.954   9.693  0.4088  0.7735 -0.2038
   24CHL1   H14 1719   2.356   4.897   9.697  0.4676  0.7460  1.1057
   24CHL1   C15 1720   2.558   4.862   9.624 -0.0637 -0.1571  0.1452
   24CHL1  H15A 1721   2.658   4.896   9.659 -0.2879  0.3250  0.3179
   24CHL1  H15B 1722   2.546   4.755   9.652  2.8987 -0.7088 -0.2849
   24CHL1   C16 1723   2.531   4.884   9.467  0.1211 -0.3444 -0.0366
   24CHL1  H16A 1724   2.628   4.901   9.416 -0.7734  2.4268 -0.9968
   24CHL1  H16B 1725   2.483   4.789   9.437 -1.6414  0.4656  0.0410
   24CHL1   C17 1726   2.418   4.997   9.465  0.3289  0.3365 -0.4257
   24CHL1   H17 1727   2.323   4.941   9.479 -0.6711  1.9367 -0.5530
   24CHL1   C13 1728   2.427   5.074   9.600 -0.4148 -0.0720  0.2319
   24CHL1   C18 1729   2.546   5.167   9.589  0.2425  0.9512 -0.0454
   24CHL1  H18A 1730   2.633   5.100   9.572 -0.5846 -0.2090  0.1645
   24CHL1  H18B 1731   2.546   5.233   9.500 -0.6624  2.1553  0.8143
   24CHL1  H18C 1732   2.560   5.216   9.688  0.0652 -0.2068  0.5742
   24CHL1   C12 1733   2.295   5.137   9.651  0.7425  0.2009 -0.3256
   24CHL1  H12A 1734   2.283   5.226   9.585  1.7341 -0.8179 -1.9266
   24CHL1  H12B 1735   2.207   5.072   9.633  0.7231  0.2311 -0.3416
   24CHL1   C11 1736   2.294   5.175   9.808  0.1283 -0.4708  0.0444
   24CHL1  H11A 1737   2.364   5.260   9.821  2.0685 -2.0747  0.5262
   24CHL1  H11B 1738   2.192   5.207   9.841 -1.4816 -2.0054 -2.9924
   24CHL1    C9 1739   2.348   5.060   9.898 -0.6079 -0.2012 -0.3274
   24CHL1    H9 1740   2.266   4.985   9.891 -1.6960  0.9731 -0.5378
   24CHL1   C10 1741   2.361   5.098  10.055  0.0019  0.3337 -0.2287
   24CHL1   C19 1742   2.460   5.222  10.067  0.5003  0.0133  0.2933
   24CHL1  H19A 1743   2.410   5.316  10.034  2.8474  1.0232 -0.5707
   24CHL1  H19B 1744   2.492   5.223  10.173  0.5593  0.2957  0.2739
   24CHL1  H19C 1745   2.546   5.209   9.998  0.1579 -0.5527 -0.0307
   24CHL1    C1 1746   2.218   5.131  10.116 -0.2031  0.7617 -0.0519
   24CHL1   H1A 1747   2.178   5.226  10.074 -0.9156  0.0406 -1.0466
   24CHL1   H1B 1748   2.151   5.052  10.078  0.8770 -0.1813 -0.0311
   24CHL1    C2 1749   2.218   5.134  10.272  0.3439 -0.6087  0.2748
   24CHL1   H2A 1750   2.114   5.149  10.306  0.0831 -0.4585 -0.5670
   24CHL1   H2B 1751   2.280   5.220  10.306  0.5881 -0.5956 -0.1912
   24CHL1   C20 1752   2.412   5.079   9.330 -0.0651  0.2631  0.0121
   24CHL1   H20 1753   2.493   5.155   9.331 -0.0054  0.2022 -0.2441
   24CHL1   C21 1754   2.288   5.164   9.311  0.9886 -0.1052 -0.4789
   24CHL1  H21A 1755   2.208   5.092   9.337  3.1236 -2.3251  0.3275
   24CHL1  H21B 1756   2.281   5.218   9.215 -0.7996  1.2179  0.3541
   24CHL1  H21C 1757   2.274   5.245   9.386 -1.4491 -1.7258  0.9658
   24CHL1   C22 1758   2.441   4.982   9.210  0.1748 -0.4841 -0.0010
   24CHL1  H22A 1759   2.539   4.929   9.211 -0.1822 -1.1413  0.3907
   24CHL1  H22B 1760   2.370   4.898   9.198 -1.1272  0.8642 -2.2934
   24CHL1   C23 1761   2.439   5.053   9.077  0.5168 -0.8096  0.3128
   24CHL1  H23A 1762   2.338   5.095   9.060  1.0607  0.7184  0.7041
   24CHL1  H23B 1763   2.505   5.142   9.086 -2.5192  1.3540  3.6220
   24CHL1   C24 1764   2.488   4.949   8.977 -0.5993 -0.1129  0.4121
   24CHL1  H24A 1765   2.588   4.917   9.011 -0.1415  1.8901  1.0464
   24CHL1  H24B 1766   2.418   4.863   8.986  0.2394 -0.8391  0.1382
   24CHL1   C25 1767   2.495   4.992   8.829  0.5200 -0.8226  0.1544
   24CHL1   H25 1768   2.565   5.078   8.826 -1.9628  1.3600  0.9022
   24CHL1   C26 1769   2.540   4.874   8.738  0.5635 -0.4394  0.4634
   24CHL1  H26A 1770   2.487   4.782   8.769 -2.5135  1.2339  0.5699
   24CHL1  H26B 1771   2.509   4.895   8.633 -2.4959  2.6267  1.7962
   24CHL1  H26C 1772   2.648   4.853   8.755  0.7109  1.2402  1.9451
   24CHL1   C27 1773   2.363   5.050   8.779 -0.6313 -0.1772  0.0053
   24CHL1  H27A 1774   2.329   5.139   8.835 -0.8087 -0.0594 -0.2889
   24CHL1  H27B 1775   2.377   5.080   8.673 -2.7361  1.0022  0.0313
   24CHL1  H27C 1776   2.283   4.973   8.778 -2.4472  1.6575 -0.2046
   25CHL1    C3 1777   4.074   6.396  10.566  0.0695 -1.0624 -0.3396
   25CHL1    H3 1778   4.057   6.506  10.564 -1.8211 -1.2915 -3.7036
   25CHL1    O3 1779   4.080   6.364  10.703 -0.0428  0.2509  0.3351
   25CHL1   H3' 1780   4.015   6.424  10.742 -2.4908 -0.5203 -2.2041
   25CHL1    C4 1781   3.952   6.332  10.498 -0.8892 -0.0310 -0.2467
   25CHL1   H4A 1782   3.967   6.223  10.515 -0.2396  0.1307  0.2263
   25CHL1   H4B 1783   3.861   6.365  10.552 -1.7860 -3.4605  0.5872
   25CHL1    C5 1784   3.952   6.362  10.351  0.5304  0.0054  0.1209
   25CHL1    C6 1785   3.847   6.429  10.294 -0.7685  0.5976  0.2577
   25CHL1    H6 1786   3.756   6.457  10.349 -0.3522  1.0243  0.7337
   25CHL1    C7 1787   3.835   6.462  10.143 -0.4483 -0.1649  0.0212
   25CHL1   H7A 1788   3.735   6.434  10.102 -0.1232  0.7879 -1.4712
   25CHL1   H7B 1789   3.846   6.571  10.127  0.4376 -0.1183  0.8610
   25CHL1    C8 1790   3.946   6.385  10.059  0.6515  0.4400 -0.3702
   25CHL1    H8 1791   3.920   6.277  10.059 -0.1178  0.6054  0.8032
   25CHL1   C14 1792   3.953   6.438   9.918  0.6492 -0.5664 -0.3275
   25CHL1   H14 1793   3.988   6.543   9.931  0.2030 -0.0667 -2.7070
   25CHL1   C15 1794   3.819   6.461   9.843  0.2837  0.2981  0.0025
   25CHL1  H15A 1795   3.733   6.397   9.873 -0.5444  0.9550 -0.9204
   25CHL1  H15B 1796   3.780   6.562   9.865 -1.4385 -0.8292  2.6470
   25CHL1   C16 1797   3.859   6.452   9.694 -0.1956 -0.3602 -0.0892
   25CHL1  H16A 1798   3.812   6.357   9.661  0.1960 -0.7203  0.3844
   25CHL1  H16B 1799   3.830   6.539   9.631 -1.8579 -0.1281  0.9209
   25CHL1   C17 1800   4.017   6.425   9.684 -0.6278  0.1067 -0.1887
   25CHL1   H17 1801   4.059   6.528   9.679  1.4207 -0.5930  1.2636
   25CHL1   C13 1802   4.050   6.362   9.828  0.3138  0.2754  0.2905
   25CHL1   C18 1803   4.014   6.210   9.822 -0.4141  1.0944  0.1490
   25CHL1  H18A 1804   3.919   6.203   9.766 -2.2542 -1.9406  3.2251
   25CHL1  H18B 1805   4.088   6.150   9.765 -1.4955  1.7057 -2.0016
   25CHL1  H18C 1806   4.001   6.158   9.920 -1.2479  2.0188  0.5527
   25CHL1   C12 1807   4.200   6.381   9.882 -0.2070 -0.1848 -0.3096
   25CHL1  H12A 1808   4.267   6.313   9.825 -0.4669 -0.8800  0.1948
   25CHL1  H12B 1809   4.231   6.484   9.853 -1.9908  0.7905  1.0228
   25CHL1   C11 1810   4.202   6.342  10.032  0.3791 -0.3261 -0.2086
   25CHL1  H11A 1811   4.197   6.231  10.030 -0.9171 -0.3015 -2.8268
   25CHL1  H11B 1812   4.302   6.374  10.068 -0.5947  2.3211  0.3980
   25CHL1    C9 1813   4.088   6.397  10.123  0.0828 -0.7799  1.1195
   25CHL1    H9 1814   4.109   6.506  10.122 -0.1799 -0.6828 -1.5503
   25CHL1   C10 1815   4.082   6.330  10.267  0.7746  0.4749 -0.3855
   25CHL1   C19 1816   4.085   6.179  10.259 -0.2053  0.4116  0.4359
   25CHL1  H19A 1817   3.996   6.139  10.207 -0.6105  3.2864 -1.2804
   25CHL1  H19B 1818   4.175   6.148  10.202 -1.2429  3.6899 -3.4478
   25CHL1  H19C 1819   4.098   6.134  10.360 -0.6571  0.3857  0.4878
   25CHL1    C1 1820   4.195   6.392  10.348 -0.4326 -1.0724  0.3873
   25CHL1   H1A 1821   4.291   6.378  10.295 -0.5332  0.7902 -0.3664
   25CHL1   H1B 1822   4.188   6.502  10.328  0.8215 -0.8623  1.0048
   25CHL1    C2 1823   4.208   6.368  10.497  0.1495  0.4465 -0.0384
   25CHL1   H2A 1824   4.290   6.430  10.540 -0.5184  0.1679  1.7077
   25CHL1   H2B 1825   4.235   6.261  10.507  1.2455  0.7201  0.0844
   25CHL1   C20 1826   4.049   6.351   9.549 -0.7389 -0.1889 -0.4099
   25CHL1   H20 1827   4.026   6.243   9.553  0.9588 -0.5414  1.0979
   25CHL1   C21 1828   4.204   6.360   9.530 -0.6762 -0.0005  0.3336
   25CHL1  H21A 1829   4.263   6.296   9.599  0.4457  0.8038  0.1450
   25CHL1  H21B 1830   4.242   6.465   9.537 -1.9936  0.5565 -0.3893
   25CHL1  H21C 1831   4.232   6.320   9.430 -0.6631 -1.6309  0.9652
   25CHL1   C22 1832   3.979   6.420   9.425  0.7015  0.2967 -0.5189
   25CHL1  H22A 1833   4.018   6.376   9.330  0.0071  0.9272 -1.1105
   25CHL1  H22B 1834   3.869   6.406   9.431  0.9280 -2.2943 -1.2246
   25CHL1   C23 1835   3.992   6.574   9.414  0.6835  0.2688 -0.0190
   25CHL1  H23A 1836   3.974   6.619   9.515  0.8565  1.0007 -0.3076
   25CHL1  H23B 1837   4.090   6.609   9.375  0.3830  0.0284 -1.0100
   25CHL1   C24 1838   3.889   6.636   9.314 -0.4494 -0.1616 -0.2860
   25CHL1  H24A 1839   3.796   6.625   9.375 -0.2219  0.7667  0.2538
   25CHL1  H24B 1840   3.921   6.742   9.307 -2.7027  0.6804  1.0221
   25CHL1   C25 1841   3.869   6.584   9.170 -0.7841  0.4571 -0.3612
   25CHL1   H25 1842   3.846   6.476   9.165 -0.5863  0.3291  1.0664
   25CHL1   C26 1843   3.762   6.665   9.103  0.1873  0.5787 -0.3144
   25CHL1  H26A 1844   3.766   6.671   8.992 -4.3020 -0.4803 -0.7361
   25CHL1  H26B 1845   3.660   6.628   9.126  0.5954 -0.6106 -0.3482
   25CHL1  H26C 1846   3.777   6.770   9.133  0.5782  1.2759 -2.7231
   25CHL1   C27 1847   3.996   6.593   9.088 -0.9008  0.0236  0.1543
   25CHL1  H27A 1848   4.005   6.700   9.060  0.5692 -0.5503 -1.7307
   25CHL1  H27B 1849   4.092   6.564   9.135  0.4384  2.1942 -1.1004
   25CHL1  H27C 1850   3.992   6.534   8.994  2.6686 -0.1377 -0.0164
   26CHL1    C3 1851   6.362   2.237  10.274  0.6980 -0.2899 -0.7090
   26CHL1    H3 1852   6.376   2.137  10.227 -0.1294 -1.2603  1.0139
   26CHL1    O3 1853   6.331   2.213  10.412 -0.9893  0.2518 -0.1530
   26CHL1   H3' 1854   6.333   2.303  10.446 -0.2372  2.1054 -4.4119
   26CHL1    C4 1855   6.482   2.328  10.262  0.2111  1.0245 -0.7635
   26CHL1   H4A 1856   6.464   2.424  10.316 -1.3657  1.7637 -2.4835
   26CHL1   H4B 1857   6.560   2.269  10.314 -0.2526  1.7611  0.8146
   26CHL1    C5 1858   6.516   2.357  10.117  0.6170  0.7638 -0.2198
   26CHL1    C6 1859   6.630   2.320  10.064  0.0042  0.4215 -0.5259
   26CHL1    H6 1860   6.700   2.268  10.131 -0.4787 -0.9785 -1.0778
   26CHL1    C7 1861   6.675   2.345   9.919 -0.1617 -0.7580 -1.1857
   26CHL1   H7A 1862   6.780   2.381   9.920 -0.3652 -0.0826  0.8614
   26CHL1   H7B 1863   6.667   2.253   9.857  2.4499 -3.3094  1.9133
   26CHL1    C8 1864   6.583   2.452   9.852  0.9238 -0.1058 -0.0829
   26CHL1    H8 1865   6.624   2.549   9.886  0.5920 -0.9107  2.8759
   26CHL1   C14 1866   6.584   2.441   9.698 -0.3122 -0.1600  1.3792
   26CHL1   H14 1867   6.527   2.349   9.674  1.3887 -1.0515  0.5779
   26CHL1   C15 1868   6.729   2.428   9.639  0.2013 -0.7823  0.6602
   26CHL1  H15A 1869   6.800   2.501   9.684  0.1082 -1.4951  2.0108
   26CHL1  H15B 1870   6.769   2.325   9.638  3.8666  0.4995 -1.1589
   26CHL1   C16 1871   6.716   2.478   9.490  0.5832 -1.0381 -0.2780
   26CHL1  H16A 1872   6.796   2.551   9.467 -0.5164  0.0503 -0.7552
   26CHL1  H16B 1873   6.728   2.398   9.414 -1.5792 -1.3330 -0.3735
   26CHL1   C17 1874   6.571   2.532   9.473  0.0686  0.4954 -0.2655
   26CHL1   H17 1875   6.508   2.445   9.446  2.2494 -0.7341 -1.6709
   26CHL1   C13 1876   6.521   2.562   9.619  0.3872 -0.4002  0.0156
   26CHL1   C18 1877   6.570   2.701   9.663  0.5704  0.1688 -0.0870
   26CHL1  H18A 1878   6.548   2.720   9.771  1.9391  0.0070  0.2497
   26CHL1  H18B 1879   6.679   2.714   9.643  0.5045  0.8652 -0.0056
   26CHL1  H18C 1880   6.523   2.782   9.604  1.6434  1.7424  1.1276
   26CHL1   C12 1881   6.370   2.545   9.653 -0.0857 -0.7410  0.4274
   26CHL1  H12A 1882   6.319   2.631   9.603 -1.0644 -1.6284 -0.1247
   26CHL1  H12B 1883   6.335   2.445   9.620  2.8044 -1.5480 -0.4898
   26CHL1   C11 1884   6.348   2.546   9.807  0.6748 -0.1893  0.4602
   26CHL1  H11A 1885   6.363   2.648   9.848 -0.8725  0.3752 -0.2967
   26CHL1  H11B 1886   6.243   2.512   9.822  1.3876 -3.2790 -0.7966
   26CHL1    C9 1887   6.434   2.440   9.884 -0.6322  0.0626  0.1724
   26CHL1    H9 1888   6.414   2.334   9.855  1.8517 -0.4495  0.1028
   26CHL1   C10 1889   6.403   2.428  10.040 -1.1928 -0.3617 -0.0860
   26CHL1   C19 1890   6.376   2.570  10.088 -0.0846 -0.1470 -0.3763
   26CHL1  H19A 1891   6.365   2.583  10.197  0.1956  1.1879 -0.4854
   26CHL1  H19B 1892   6.467   2.629  10.064 -0.0573  0.7269  1.6837
   26CHL1  H19C 1893   6.281   2.599  10.038  1.3389  0.3183 -2.9920
   26CHL1    C1 1894   6.275   2.337  10.060 -0.3070 -0.1552  0.2296
   26CHL1   H1A 1895   6.198   2.391  10.001  0.3200 -1.0656 -1.4955
   26CHL1   H1B 1896   6.296   2.240  10.010  2.0278  0.7945 -0.7302
   26CHL1    C2 1897   6.235   2.301  10.204  0.6192 -0.1161 -0.0590
   26CHL1   H2A 1898   6.136   2.251  10.206  0.7174 -0.3033  0.1252
   26CHL1   H2B 1899   6.221   2.398  10.257 -1.7569  0.3328 -1.3781
   26CHL1   C20 1900   6.566   2.645   9.365 -0.3847  0.3448 -0.7747
   26CHL1   H20 1901   6.600   2.739   9.411  2.1944 -0.5509 -0.6858
   26CHL1   C21 1902   6.415   2.664   9.319 -0.1012  0.6276 -0.2303
   26CHL1  H21A 1903   6.365   2.580   9.267  0.3000 -0.0098  0.3964
   26CHL1  H21B 1904   6.394   2.745   9.246 -0.5134 -0.3805 -1.2627
   26CHL1  H21C 1905   6.353   2.692   9.407  0.0877  1.4613 -0.3492
   26CHL1   C22 1906   6.657   2.617   9.246  0.2639 -0.1514 -0.3643
   26CHL1  H22A 1907   6.765   2.617   9.269  0.1401  2.1285  0.4830
   26CHL1  H22B 1908   6.631   2.518   9.202 -0.9452 -0.9460  1.9541
   26CHL1   C23 1909   6.645   2.717   9.137 -0.3117 -0.3706  0.6578
   26CHL1  H23A 1910   6.704   2.685   9.048 -1.1673 -0.0366 -0.0460
   26CHL1  H23B 1911   6.543   2.724   9.096 -0.3055 -2.8653  0.0495
   26CHL1   C24 1912   6.685   2.862   9.167 -0.4397 -0.4901 -0.1115
   26CHL1  H24A 1913   6.622   2.913   9.243  2.4027  2.3222  0.5638
   26CHL1  H24B 1914   6.780   2.839   9.221 -0.8159  0.1852  0.8637
   26CHL1   C25 1915   6.694   2.949   9.041  0.6216  0.2313  0.6392
   26CHL1   H25 1916   6.765   2.906   8.967  0.8696 -0.1529  1.0977
   26CHL1   C26 1917   6.559   2.954   8.974 -0.2333  0.3580  0.3570
   26CHL1  H26A 1918   6.473   2.961   9.044  1.5726 -0.6340  2.8202
   26CHL1  H26B 1919   6.549   3.036   8.900 -1.5089  0.9043  1.1049
   26CHL1  H26C 1920   6.549   2.854   8.925 -0.5608  0.6228 -0.1324
   26CHL1   C27 1921   6.754   3.089   9.067 -0.2954  0.3530  0.4917
   26CHL1  H27A 1922   6.861   3.085   9.096  0.7031  0.2334 -2.8119
   26CHL1  H27B 1923   6.759   3.145   8.971  2.7553 -1.9778 -0.8338
   26CHL1  H27C 1924   6.697   3.144   9.145 -0.1254  0.5412  0.4844
   27CHL1    C3 1925   4.854   6.317  10.525 -0.0886  0.5514  0.5067
   27CHL1    H3 1926   4.905   6.415  10.520  1.1561 -0.0048  1.5912
   27CHL1    O3 1927   4.854   6.288  10.663  1.0354 -0.0172 -0.2553
   27CHL1   H3' 1928   4.823   6.197  10.672  0.1871  0.0805 -1.8450
   27CHL1    C4 1929   4.711   6.329  10.485  0.7021 -0.3147 -0.2396
   27CHL1   H4A 1930   4.672   6.227  10.507  2.7125 -0.9028  0.8284
   27CHL1   H4B 1931   4.667   6.411  10.546 -0.0958 -1.2722  0.4940
   27CHL1    C5 1932   4.689   6.357  10.336 -0.4444  0.3257 -0.2800
   27CHL1    C6 1933   4.618   6.459  10.294 -0.0575 -0.6256 -0.2812
   27CHL1    H6 1934   4.582   6.535  10.365 -0.1788 -1.0377  0.1091
   27CHL1    C7 1935   4.594   6.493  10.149 -0.4596  0.7723 -0.1910
   27CHL1   H7A 1936   4.485   6.509  10.132 -0.9445 -0.7004  1.2479
   27CHL1   H7B 1937   4.637   6.594  10.129 -1.4348  1.4673  1.0745
   27CHL1    C8 1938   4.648   6.385  10.053 -0.4785 -0.6733 -0.7455
   27CHL1    H8 1939   4.565   6.311  10.053 -0.5569 -0.6040  0.5245
   27CHL1   C14 1940   4.661   6.437   9.916  0.5818  0.0744 -0.5472
   27CHL1   H14 1941   4.745   6.509   9.921 -1.3332  2.3973 -0.2351
   27CHL1   C15 1942   4.551   6.513   9.849 -0.2351  0.2886  0.5957
   27CHL1  H15A 1943   4.453   6.462   9.865 -0.6174  0.5228 -0.8919
   27CHL1  H15B 1944   4.541   6.616   9.891  0.4195  0.2541  0.8401
   27CHL1   C16 1945   4.588   6.518   9.705  0.8130 -0.3708 -0.1492
   27CHL1  H16A 1946   4.510   6.468   9.646  0.1995 -0.7360  0.9361
   27CHL1  H16B 1947   4.593   6.622   9.665 -1.4713  0.0980  0.6471
   27CHL1   C17 1948   4.713   6.433   9.685  0.0404  0.1372 -0.0150
   27CHL1   H17 1949   4.798   6.504   9.696  0.0218  0.0173  0.9612
   27CHL1   C13 1950   4.723   6.343   9.811 -0.0518 -0.4935 -0.6334
   27CHL1   C18 1951   4.618   6.223   9.798 -0.3196 -0.6165 -0.0640
   27CHL1  H18A 1952   4.582   6.193   9.899 -1.6123  0.7797 -0.0839
   27CHL1  H18B 1953   4.527   6.258   9.745 -2.7468 -0.5843  3.7395
   27CHL1  H18C 1954   4.682   6.150   9.745  2.0381  1.8138 -0.7766
   27CHL1   C12 1955   4.857   6.298   9.859 -0.0046 -0.1927  0.2046
   27CHL1  H12A 1956   4.896   6.227   9.784 -3.6747 -1.9723 -0.2713
   27CHL1  H12B 1957   4.921   6.389   9.862 -1.4272  0.8435  0.6652
   27CHL1   C11 1958   4.851   6.227   9.991 -0.2089  0.1995 -0.0753
   27CHL1  H11A 1959   4.795   6.131   9.983 -0.4607  0.3971 -0.7254
   27CHL1  H11B 1960   4.956   6.205  10.017  0.0241 -1.1963 -2.0192
   27CHL1    C9 1961   4.784   6.319  10.097  0.5202 -0.2776 -0.7465
   27CHL1    H9 1962   4.850   6.408  10.110 -0.0082 -0.2445  2.2389
   27CHL1   C10 1963   4.767   6.258  10.242  0.1557  0.4896  0.9667
   27CHL1   C19 1964   4.684   6.129  10.241  0.0720 -0.4726 -0.3581
   27CHL1  H19A 1965   4.576   6.152  10.226  0.5777  2.5375 -0.1087
   27CHL1  H19B 1966   4.709   6.071  10.150  0.0852  0.3133 -0.8616
   27CHL1  H19C 1967   4.703   6.056  10.323  0.0055  1.0403  1.0551
   27CHL1    C1 1968   4.905   6.228  10.292 -0.3549 -0.3927 -1.0131
   27CHL1   H1A 1969   4.945   6.138  10.241  0.2094 -0.1091 -1.0798
   27CHL1   H1B 1970   4.971   6.311  10.258 -1.9686  0.5333 -2.0616
   27CHL1    C2 1971   4.918   6.204  10.447  0.0526  0.4631 -0.0105
   27CHL1   H2A 1972   5.020   6.180  10.483 -0.7380 -1.1717  1.3173
   27CHL1   H2B 1973   4.859   6.113  10.472  0.1494  0.1721 -0.8251
   27CHL1   C20 1974   4.717   6.368   9.547  0.1173  0.4580 -0.2769
   27CHL1   H20 1975   4.641   6.288   9.538 -0.4664  1.1027 -1.1911
   27CHL1   C21 1976   4.852   6.298   9.529  0.5103  0.1999 -0.4662
   27CHL1  H21A 1977   4.877   6.208   9.588  0.6572 -0.6935 -1.8348
   27CHL1  H21B 1978   4.934   6.371   9.549  1.6351 -0.8806 -1.0134
   27CHL1  H21C 1979   4.868   6.256   9.427 -0.3168  0.7910 -0.8512
   27CHL1   C22 1980   4.700   6.466   9.425  0.2309 -0.4183 -0.5375
   27CHL1  H22A 1981   4.611   6.530   9.441 -0.3511 -1.6018  1.2232
   27CHL1  H22B 1982   4.785   6.538   9.433 -0.1672  0.1746 -1.4119
   27CHL1   C23 1983   4.692   6.401   9.282  0.1163  1.0056  0.7763
   27CHL1  H23A 1984   4.768   6.320   9.271 -0.7125  0.5223 -1.9532
   27CHL1  H23B 1985   4.597   6.347   9.262  1.2781 -0.3737 -1.5008
   27CHL1   C24 1986   4.727   6.509   9.181  0.7251  0.0723  0.1284
   27CHL1  H24A 1987   4.659   6.592   9.210  0.0134  1.1640 -4.1232
   27CHL1  H24B 1988   4.826   6.555   9.203 -0.0039  0.6845  2.4737
   27CHL1   C25 1989   4.690   6.467   9.040 -0.2273  0.3616  0.1146
   27CHL1   H25 1990   4.580   6.453   9.030 -0.2004  0.3596 -0.1703
   27CHL1   C26 1991   4.742   6.566   8.941 -0.0851 -0.5204  0.0136
   27CHL1  H26A 1992   4.729   6.520   8.841  1.0757 -0.4130 -0.1929
   27CHL1  H26B 1993   4.682   6.660   8.938 -1.3811 -1.3409 -0.9207
   27CHL1  H26C 1994   4.850   6.592   8.949  0.1506 -1.2631 -0.6920
   27CHL1   C27 1995   4.751   6.333   9.003 -0.3215  0.0161 -0.1888
   27CHL1  H27A 1996   4.718   6.256   9.077  2.1630 -0.4512  0.5419
   27CHL1  H27B 1997   4.711   6.300   8.905  0.2864  0.8712 -0.7325
   27CHL1  H27C 1998   4.861   6.345   8.996 -0.4251  2.1393  1.0219
   28CHL1    C3 1999   3.934   5.519  10.068 -0.2800  0.4268  0.5480
   28CHL1    H3 2000   4.038   5.533  10.031 -0.0150 -1.9750  0.2559
   28CHL1    O3 2001   3.924   5.523  10.210  0.8795  0.0516  0.4977
   28CHL1   H3' 2002   3.884   5.610  10.223 -3.1311 -1.5213  0.2767
   28CHL1    C4 2003   3.855   5.640  10.012 -0.9993 -0.0201  0.6347
   28CHL1   H4A 2004   3.749   5.644  10.045 -1.1437  1.6938  0.0719
   28CHL1   H4B 2005   3.890   5.736  10.057 -1.3573 -0.6716  2.3972
   28CHL1    C5 2006   3.865   5.657   9.863  0.4351 -0.2317 -0.5181
   28CHL1    C6 2007   3.917   5.771   9.807 -0.7010  0.6515  0.4630
   28CHL1    H6 2008   3.934   5.859   9.871 -3.2794  1.7861 -0.2547
   28CHL1    C7 2009   3.941   5.790   9.660  0.5744  0.6634  0.2137
   28CHL1   H7A 2010   3.901   5.889   9.628 -1.2995  0.1005  0.7238
   28CHL1   H7B 2011   4.052   5.784   9.647  0.3958  0.3838 -1.4520
   28CHL1    C8 2012   3.869   5.677   9.584 -0.0759  0.4077  0.5798
   28CHL1    H8 2013   3.761   5.699   9.566 -0.0194 -2.0462 -4.3870
   28CHL1   C14 2014   3.928   5.676   9.436  0.2172  0.0601 -0.7209
   28CHL1   H14 2015   4.033   5.641   9.442 -1.2060 -4.8686  1.7116
   28CHL1   C15 2016   3.942   5.812   9.362  0.0494  0.3530  1.6726
   28CHL1  H15A 2017   3.855   5.881   9.373  0.9208  2.3611 -2.2113
   28CHL1  H15B 2018   4.038   5.866   9.376  1.6463 -1.3018 -1.6955
   28CHL1   C16 2019   3.946   5.767   9.214  0.2948 -0.6480  0.0826
   28CHL1  H16A 2020   3.887   5.832   9.146  1.7162  2.1050  1.3163
   28CHL1  H16B 2021   4.049   5.782   9.175 -0.7961 -0.7180 -3.1082
   28CHL1   C17 2022   3.925   5.616   9.209  0.0510  0.5273 -0.4947
   28CHL1   H17 2023   4.025   5.569   9.223  0.0831  1.3651  3.4494
   28CHL1   C13 2024   3.858   5.583   9.343  1.1092  0.4378 -0.3752
   28CHL1   C18 2025   3.710   5.610   9.333 -0.2193 -0.0236 -0.0884
   28CHL1  H18A 2026   3.687   5.713   9.299  2.9254  0.7878 -0.1350
   28CHL1  H18B 2027   3.674   5.553   9.245  2.6585 -1.8174 -0.2323
   28CHL1  H18C 2028   3.650   5.582   9.422  0.9161  1.4139  1.1849
   28CHL1   C12 2029   3.864   5.440   9.395  0.2952 -0.1298 -0.6754
   28CHL1  H12A 2030   3.809   5.364   9.337 -0.2274 -1.9400  2.0150
   28CHL1  H12B 2031   3.971   5.410   9.397 -0.3786 -2.7468  0.5174
   28CHL1   C11 2032   3.818   5.430   9.544  0.5770 -0.0781  0.6181
   28CHL1  H11A 2033   3.707   5.420   9.550  0.8684 -4.1583  3.1521
   28CHL1  H11B 2034   3.843   5.327   9.577  1.6422  0.3562  1.1931
   28CHL1    C9 2035   3.877   5.537   9.641  0.4925 -1.0949  0.0501
   28CHL1    H9 2036   3.986   5.521   9.657  0.9832 -0.0004 -1.8761
   28CHL1   C10 2037   3.827   5.526   9.784  0.0449  0.6714  0.1025
   28CHL1   C19 2038   3.672   5.511   9.780 -0.6549 -0.3722 -0.2658
   28CHL1  H19A 2039   3.619   5.603   9.748  0.8243  0.0467 -1.6384
   28CHL1  H19B 2040   3.630   5.425   9.723  0.4818 -0.4325 -1.0311
   28CHL1  H19C 2041   3.633   5.493   9.883  0.7616  0.8260  0.5286
   28CHL1    C1 2042   3.883   5.394   9.848  0.7369 -0.4094  0.1456
   28CHL1   H1A 2043   3.835   5.304   9.804  1.9659 -0.8919 -0.2435
   28CHL1   H1B 2044   3.989   5.383   9.818  0.2113 -1.4036 -1.4289
   28CHL1    C2 2045   3.872   5.384  10.005  0.0919 -0.5696  0.4318
   28CHL1   H2A 2046   3.930   5.302  10.054  0.0973 -1.0191 -0.3142
   28CHL1   H2B 2047   3.765   5.367  10.030 -0.9624 -1.2285 -3.8371
   28CHL1   C20 2048   3.874   5.565   9.072 -0.1436 -0.4513 -0.0560
   28CHL1   H20 2049   3.765   5.583   9.069 -0.4729 -2.2368  0.3290
   28CHL1   C21 2050   3.890   5.408   9.058 -0.6386 -0.4026 -0.0015
   28CHL1  H21A 2051   3.994   5.376   9.080 -0.9175 -0.2738  1.6304
   28CHL1  H21B 2052   3.863   5.370   8.957 -0.7961  0.7443 -0.4049
   28CHL1  H21C 2053   3.827   5.350   9.128 -1.5926 -2.2456 -2.2490
   28CHL1   C22 2054   3.942   5.632   8.945 -0.5118  0.1398 -1.0018
   28CHL1  H22A 2055   3.902   5.579   8.856  2.3942  0.3201 -2.5297
   28CHL1  H22B 2056   3.916   5.739   8.937  0.5897  0.6856  1.6597
   28CHL1   C23 2057   4.097   5.622   8.925  0.4624  0.1045 -0.3228
   28CHL1  H23A 2058   4.149   5.619   9.024 -1.3451 -1.4254  0.6301
   28CHL1  H23B 2059   4.133   5.529   8.877  0.8770  1.4278 -2.7476
   28CHL1   C24 2060   4.147   5.728   8.831  0.9922 -0.1856 -0.5297
   28CHL1  H24A 2061   4.085   5.711   8.740  2.4154 -2.8352 -1.1359
   28CHL1  H24B 2062   4.144   5.830   8.873  2.4583 -0.7919  1.1557
   28CHL1   C25 2063   4.285   5.690   8.785  0.0864  0.8161  0.1650
   28CHL1   H25 2064   4.285   5.580   8.770  1.5261  1.0400 -1.7696
   28CHL1   C26 2065   4.313   5.747   8.639  0.0789  0.3976  0.0378
   28CHL1  H26A 2066   4.228   5.720   8.572 -0.2102  1.5882 -0.0832
   28CHL1  H26B 2067   4.307   5.857   8.646  1.7032  0.7027 -2.0391
   28CHL1  H26C 2068   4.413   5.724   8.596 -1.4484 -0.6766 -3.2959
   28CHL1   C27 2069   4.384   5.733   8.890 -0.0514  0.2177  0.0789
   28CHL1  H27A 2070   4.365   5.837   8.923 -1.0229  0.3852 -0.9538
   28CHL1  H27B 2071   4.372   5.663   8.976 -0.9593  0.8274  0.4615
   28CHL1  H27C 2072   4.492   5.738   8.861  0.3824  0.3460  1.6090
   29CHL1    C3 2073   5.791   3.365   6.687  0.0720 -0.0724 -0.3831
   29CHL1    H3 2074   5.684   3.355   6.717  0.2783  1.4365  1.0149
   29CHL1    O3 2075   5.791   3.358   6.550  0.4170 -0.0015 -0.2161
   29CHL1   H3' 2076   5.876   3.398   6.530  0.2897  0.4099  0.0527
   29CHL1    C4 2077   5.847   3.504   6.735 -0.4642 -0.1277  0.2288
   29CHL1   H4A 2078   5.950   3.505   6.692 -1.0283 -0.8142 -1.1669
   29CHL1   H4B 2079   5.799   3.590   6.685 -1.8605 -0.0640  1.6163
   29CHL1    C5 2080   5.859   3.514   6.883 -0.4237 -0.1616  0.0386
   29CHL1    C6 2081   5.800   3.620   6.943  1.0434  0.1460  0.1725
   29CHL1    H6 2082   5.740   3.691   6.884  0.9616 -2.2399 -2.9068
   29CHL1    C7 2083   5.814   3.643   7.094 -0.4857  0.5211  0.6388
   29CHL1   H7A 2084   5.842   3.748   7.117 -1.1715  0.8204  0.1594
   29CHL1   H7B 2085   5.717   3.621   7.144  0.1321 -0.6887  1.3259
   29CHL1    C8 2086   5.910   3.547   7.161  0.3075 -0.4053  0.1944
   29CHL1    H8 2087   6.011   3.588   7.140 -0.1851  0.6884 -0.1006
   29CHL1   C14 2088   5.888   3.536   7.312  0.0000  0.1920  0.0574
   29CHL1   H14 2089   5.782   3.509   7.331  0.3508  0.3409  2.5919
   29CHL1   C15 2090   5.893   3.668   7.395  0.2508 -0.1324 -0.6638
   29CHL1  H15A 2091   5.971   3.745   7.377  2.0469 -1.2622  1.7366
   29CHL1  H15B 2092   5.798   3.724   7.393  0.6033  0.5109 -0.0457
   29CHL1   C16 2093   5.915   3.623   7.548 -0.3744 -0.0926 -0.0322
   29CHL1  H16A 2094   6.000   3.679   7.592 -0.9295  1.1893 -0.5248
   29CHL1  H16B 2095   5.823   3.649   7.605 -0.5435 -0.4980 -0.1164
   29CHL1   C17 2096   5.927   3.464   7.541  0.3017 -0.6790 -0.1252
   29CHL1   H17 2097   5.826   3.422   7.561 -0.4371  0.3117 -1.5993
   29CHL1   C13 2098   5.967   3.435   7.395 -0.2485  0.0718 -0.0665
   29CHL1   C18 2099   6.118   3.460   7.368 -0.0752 -0.5015 -0.8412
   29CHL1  H18A 2100   6.136   3.564   7.402  1.3961  0.3340 -3.7800
   29CHL1  H18B 2101   6.186   3.402   7.434 -0.1783 -0.6785 -0.8913
   29CHL1  H18C 2102   6.151   3.448   7.262  2.0096  0.4991 -0.3638
   29CHL1   C12 2103   5.936   3.302   7.341  0.1015  0.8290  0.2842
   29CHL1  H12A 2104   6.004   3.231   7.393  1.6700  1.7104 -0.5075
   29CHL1  H12B 2105   5.832   3.269   7.361 -0.0054  0.3324 -1.0387
   29CHL1   C11 2106   5.969   3.294   7.191  0.5299  0.1352 -0.7317
   29CHL1  H11A 2107   6.077   3.283   7.166  1.3264 -1.1962  2.6672
   29CHL1  H11B 2108   5.933   3.192   7.167 -0.7458 -0.6567  3.6696
   29CHL1    C9 2109   5.897   3.403   7.103  0.5711  0.0148 -0.5360
   29CHL1    H9 2110   5.791   3.373   7.111  0.5853  0.1562  0.2295
   29CHL1   C10 2111   5.924   3.404   6.957 -0.7070  0.2782 -0.2083
   29CHL1   C19 2112   6.077   3.400   6.942  0.2064 -0.3658  0.0678
   29CHL1  H19A 2113   6.130   3.489   6.981 -0.0783 -0.5593  0.9257
   29CHL1  H19B 2114   6.133   3.312   6.979  1.1606  0.5313  0.8148
   29CHL1  H19C 2115   6.102   3.392   6.835  1.8618 -1.3624  0.4979
   29CHL1    C1 2116   5.885   3.268   6.896  0.1205 -0.1223  0.6815
   29CHL1   H1A 2117   5.949   3.184   6.930  0.5204 -0.9278 -1.8727
   29CHL1   H1B 2118   5.782   3.254   6.936 -0.4850  0.0771 -0.7702
   29CHL1    C2 2119   5.877   3.257   6.744  0.1245  0.4957  0.1907
   29CHL1   H2A 2120   5.832   3.160   6.712  0.3365  0.5010 -0.1315
   29CHL1   H2B 2121   5.978   3.254   6.699  0.4185  1.6438  0.7452
   29CHL1   C20 2122   6.023   3.416   7.652 -0.9242  0.1200 -0.4586
   29CHL1   H20 2123   6.123   3.461   7.631 -1.2348  0.0181 -2.3168
   29CHL1   C21 2124   6.041   3.263   7.658 -0.3329  0.2808  0.1271
   29CHL1  H21A 2125   5.944   3.213   7.637  0.0245  0.4188 -2.0885
   29CHL1  H21B 2126   6.088   3.221   7.750  1.6955  0.2336 -0.8896
   29CHL1  H21C 2127   6.103   3.240   7.569  2.0319 -0.8343  1.9391
   29CHL1   C22 2128   5.989   3.464   7.795  0.3757 -0.6047  0.7848
   29CHL1  H22A 2129   6.054   3.414   7.870  0.2964 -0.8668  0.6765
   29CHL1  H22B 2130   6.003   3.575   7.789  0.2662 -0.6591 -3.3721
   29CHL1   C23 2131   5.844   3.436   7.832 -1.2187 -0.3056  0.5380
   29CHL1  H23A 2132   5.796   3.527   7.788  0.9595  0.4407 -0.4767
   29CHL1  H23B 2133   5.803   3.346   7.783  1.0785 -1.8528  1.2774
   29CHL1   C24 2134   5.823   3.417   7.980  0.1316 -0.3243  0.2775
   29CHL1  H24A 2135   5.870   3.326   8.024 -0.1129 -1.0080 -0.8402
   29CHL1  H24B 2136   5.866   3.500   8.039 -2.4514  0.8794  0.5977
   29CHL1   C25 2137   5.675   3.407   8.023  0.3419  0.1384  0.0948
   29CHL1   H25 2138   5.638   3.309   7.986  1.4122 -0.6116  0.9361
   29CHL1   C26 2139   5.659   3.389   8.179 -0.4858 -0.2672  0.4252
   29CHL1  H26A 2140   5.554   3.387   8.214 -0.3443  3.0497  1.3986
   29CHL1  H26B 2141   5.707   3.292   8.202 -0.4810 -0.2502  0.4875
   29CHL1  H26C 2142   5.703   3.473   8.236 -0.4368 -1.9878  3.0932
   29CHL1   C27 2143   5.588   3.522   7.973 -0.0314 -0.2926  0.2233
   29CHL1  H27A 2144   5.599   3.556   7.867  1.0884 -0.3559  0.3096
   29CHL1  H27B 2145   5.480   3.514   7.998  0.0932  1.2979  1.4564
   29CHL1  H27C 2146   5.624   3.613   8.025  0.2262  0.5152 -1.2947
   30CHL1    C3 2147   4.293   1.154   7.326  0.8953  0.2831  0.5547
   30CHL1    H3 2148   4.199   1.132   7.380  1.2282 -0.5059  0.8277
   30CHL1    O3 2149   4.249   1.178   7.190 -0.2178  0.3400 -0.7620
   30CHL1   H3' 2150   4.329   1.180   7.137 -0.2338  2.0513 -0.7589
   30CHL1    C4 2151   4.364   1.280   7.379  0.5142 -0.2516 -0.3997
   30CHL1   H4A 2152   4.457   1.295   7.320 -0.7773 -0.2700 -2.5448
   30CHL1   H4B 2153   4.298   1.367   7.362  1.4807  0.5594 -0.0622
   30CHL1    C5 2154   4.420   1.263   7.513 -0.3978  0.1615  0.0355
   30CHL1    C6 2155   4.391   1.349   7.610  0.1876  0.0529  0.3851
   30CHL1    H6 2156   4.337   1.437   7.572  3.1203  0.2530 -3.9885
   30CHL1    C7 2157   4.432   1.339   7.753  0.1166  0.6667 -0.1520
   30CHL1   H7A 2158   4.469   1.436   7.791 -1.8067  0.9861  1.0734
   30CHL1   H7B 2159   4.347   1.301   7.814  0.8461  0.2653  0.6267
   30CHL1    C8 2160   4.537   1.230   7.774  0.2706 -0.0308  0.2817
   30CHL1    H8 2161   4.635   1.275   7.745  0.3591 -0.3019  0.1629
   30CHL1   C14 2162   4.540   1.199   7.922 -0.5399 -0.3265  0.4873
   30CHL1   H14 2163   4.439   1.165   7.954 -1.3856  0.2831 -1.3905
   30CHL1   C15 2164   4.567   1.309   8.020  0.7503  0.3983  0.3298
   30CHL1  H15A 2165   4.649   1.378   7.991  2.0435 -1.2463 -0.1362
   30CHL1  H15B 2166   4.479   1.375   8.023 -0.0649 -0.6811  1.3788
   30CHL1   C16 2167   4.594   1.239   8.150 -0.0292 -0.1975  0.3897
   30CHL1  H16A 2168   4.694   1.272   8.186  0.3283  0.1236 -0.8305
   30CHL1  H16B 2169   4.514   1.245   8.226 -0.1654  0.1321  0.2206
   30CHL1   C17 2170   4.609   1.085   8.113 -0.2487 -0.4668 -1.0639
   30CHL1   H17 2171   4.506   1.044   8.115 -0.2911 -0.5226 -2.8479
   30CHL1   C13 2172   4.635   1.082   7.961  0.0062 -0.0391 -0.2742
   30CHL1   C18 2173   4.782   1.111   7.936 -0.5482  0.2533 -0.0334
   30CHL1  H18A 2174   4.817   1.196   7.997 -0.7634 -1.4123  2.5713
   30CHL1  H18B 2175   4.836   1.017   7.962 -0.9581 -1.2471 -3.9329
   30CHL1  H18C 2176   4.812   1.116   7.829 -1.9046 -1.2537 -0.5279
   30CHL1   C12 2177   4.584   0.959   7.895  0.8719  0.3502  0.7010
   30CHL1  H12A 2178   4.653   0.875   7.918 -0.8559 -1.2036  0.4834
   30CHL1  H12B 2179   4.484   0.922   7.928 -0.4557  1.9145 -1.3095
   30CHL1   C11 2180   4.579   0.981   7.746 -0.6314  0.1041 -0.0964
   30CHL1  H11A 2181   4.677   0.997   7.696 -1.0283  1.9740 -0.3399
   30CHL1  H11B 2182   4.542   0.884   7.707  1.9167 -2.1471  2.5511
   30CHL1    C9 2183   4.500   1.102   7.701 -0.2326  0.0920 -0.2582
   30CHL1    H9 2184   4.398   1.078   7.737 -1.2330 -0.3181 -3.0925
   30CHL1   C10 2185   4.488   1.130   7.543  0.1182 -0.0801 -0.4799
   30CHL1   C19 2186   4.638   1.144   7.482  0.5942 -0.1111 -0.4369
   30CHL1  H19A 2187   4.639   1.165   7.372 -1.7080 -1.1199 -0.7139
   30CHL1  H19B 2188   4.681   1.234   7.530  0.9970  0.7441 -2.2966
   30CHL1  H19C 2189   4.702   1.055   7.503  2.0642  0.1400 -3.2659
   30CHL1    C1 2190   4.424   1.009   7.471 -0.0327  0.8074  0.1448
   30CHL1   H1A 2191   4.489   0.919   7.476  1.8790  2.1223 -0.0480
   30CHL1   H1B 2192   4.329   0.983   7.523 -0.3763 -1.1345 -1.3668
   30CHL1    C2 2193   4.385   1.040   7.328 -1.1370 -0.6655  0.1513
   30CHL1   H2A 2194   4.356   0.947   7.275 -0.9250 -0.0616 -1.0536
   30CHL1   H2B 2195   4.476   1.070   7.272 -0.1570 -0.3243  1.8314
   30CHL1   C20 2196   4.702   1.011   8.214 -0.4835 -0.3841 -0.0121
   30CHL1   H20 2197   4.805   1.052   8.216 -0.0803 -1.4176  1.6787
   30CHL1   C21 2198   4.717   0.859   8.182  0.1746  0.6242 -0.1359
   30CHL1  H21A 2199   4.781   0.851   8.092 -0.5644 -0.4845 -0.5847
   30CHL1  H21B 2200   4.614   0.822   8.163 -0.0627  1.3796 -0.3575
   30CHL1  H21C 2201   4.772   0.812   8.267 -1.8846  1.9687  2.0753
   30CHL1   C22 2202   4.655   1.030   8.363 -0.2651 -0.2883 -0.8692
   30CHL1  H22A 2203   4.718   0.957   8.419 -0.8108 -1.7302 -2.0564
   30CHL1  H22B 2204   4.673   1.135   8.392  2.1158 -1.3526  1.9755
   30CHL1   C23 2205   4.499   1.012   8.398  0.8707 -0.5005 -0.2282
   30CHL1  H23A 2206   4.446   1.104   8.363  0.4846 -0.7433 -0.2915
   30CHL1  H23B 2207   4.462   0.920   8.349  0.1873  0.4531 -1.5833
   30CHL1   C24 2208   4.468   1.003   8.542 -0.0070  0.4964 -0.2738
   30CHL1  H24A 2209   4.520   0.909   8.570  1.3612  1.0068 -0.9708
   30CHL1  H24B 2210   4.527   1.077   8.600  0.7336 -0.4038  0.1557
   30CHL1   C25 2211   4.323   0.970   8.592 -0.1938 -0.1550  0.5800
   30CHL1   H25 2212   4.262   1.057   8.561  1.9138  0.5124 -2.0820
   30CHL1   C26 2213   4.259   0.853   8.520  1.1341 -0.3086 -0.1722
   30CHL1  H26A 2214   4.240   0.884   8.415  1.0255 -0.2848 -0.1460
   30CHL1  H26B 2215   4.331   0.768   8.514  1.3665 -0.2386  1.1983
   30CHL1  H26C 2216   4.168   0.810   8.568 -0.2335  0.0160 -2.3550
   30CHL1   C27 2217   4.316   0.935   8.743 -0.4106 -0.2254  0.2870
   30CHL1  H27A 2218   4.360   1.025   8.791  0.8868  0.7150 -2.4340
   30CHL1  H27B 2219   4.215   0.906   8.778 -0.3561 -1.7894 -0.7505
   30CHL1  H27C 2220   4.383   0.848   8.756  0.0256  0.0408 -0.1208
   31CHL1    C3 2221   3.126   3.365   7.079  0.0349 -0.0834  1.4683
   31CHL1    H3 2222   3.212   3.433   7.062  0.5170 -0.9146  0.4763
   31CHL1    O3 2223   3.098   3.296   6.953 -0.6077  0.0276  0.1888
   31CHL1   H3' 2224   3.092   3.364   6.884 -0.9528  1.2842  1.4144
   31CHL1    C4 2225   3.160   3.255   7.175 -0.2367  0.1544  0.8361
   31CHL1   H4A 2226   3.075   3.184   7.173  0.2262 -0.3982  0.2295
   31CHL1   H4B 2227   3.247   3.203   7.129 -1.0554 -0.4458 -0.0518
   31CHL1    C5 2228   3.183   3.308   7.309 -0.2808 -0.0085 -0.2249
   31CHL1    C6 2229   3.297   3.280   7.371 -0.9164 -0.4676  0.4197
   31CHL1    H6 2230   3.364   3.215   7.313 -1.3746 -0.5535 -0.0201
   31CHL1    C7 2231   3.323   3.328   7.514  0.1672  0.1525  0.3095
   31CHL1   H7A 2232   3.368   3.248   7.576 -3.1329 -1.1581  1.2161
   31CHL1   H7B 2233   3.386   3.420   7.508 -0.5905  0.6344 -0.5883
   31CHL1    C8 2234   3.202   3.372   7.593 -0.0221 -0.0805  1.4163
   31CHL1    H8 2235   3.139   3.285   7.620  0.1930 -0.9965 -0.7763
   31CHL1   C14 2236   3.245   3.437   7.723 -0.1512 -0.0749 -0.0786
   31CHL1   H14 2237   3.294   3.531   7.688 -1.2938  1.5703  2.4929
   31CHL1   C15 2238   3.341   3.375   7.823  0.6594  0.4612 -0.1094
   31CHL1  H15A 2239   3.313   3.269   7.802 -0.6084  1.1238 -2.0858
   31CHL1  H15B 2240   3.445   3.389   7.786  0.3489  2.2750 -0.3562
   31CHL1   C16 2241   3.307   3.429   7.959  0.5476 -0.5356 -0.1239
   31CHL1  H16A 2242   3.262   3.358   8.032  1.3445 -0.5897  0.3242
   31CHL1  H16B 2243   3.392   3.485   8.005 -0.4911 -0.2671  1.5641
   31CHL1   C17 2244   3.196   3.544   7.932 -0.1574  0.0593 -0.0395
   31CHL1   H17 2245   3.250   3.631   7.889  1.3988  0.5804  2.6992
   31CHL1   C13 2246   3.122   3.493   7.806 -0.0623  0.9023 -0.0043
   31CHL1   C18 2247   3.034   3.383   7.852 -0.4871 -0.3788  0.1832
   31CHL1  H18A 2248   2.986   3.331   7.766  0.2051  0.4894 -0.7463
   31CHL1  H18B 2249   3.088   3.309   7.914 -2.2025 -1.9995 -0.1528
   31CHL1  H18C 2250   2.948   3.413   7.917 -0.9187  0.3340 -0.6951
   31CHL1   C12 2251   3.059   3.593   7.711 -0.2736 -0.0262 -1.1003
   31CHL1  H12A 2252   2.976   3.645   7.764  0.1689  1.6254 -1.9336
   31CHL1  H12B 2253   3.126   3.681   7.698  0.5710 -0.6509 -1.0246
   31CHL1   C11 2254   3.010   3.539   7.575 -0.1547 -0.2547 -0.1233
   31CHL1  H11A 2255   2.919   3.480   7.601 -0.7937  1.3484  1.5481
   31CHL1  H11B 2256   2.977   3.631   7.521  0.1521  1.9015  3.0767
   31CHL1    C9 2257   3.117   3.463   7.500  0.0031 -0.0675 -0.9964
   31CHL1    H9 2258   3.193   3.538   7.472 -0.3668  1.1099  0.9355
   31CHL1   C10 2259   3.069   3.393   7.367  0.0118  0.2004 -0.2854
   31CHL1   C19 2260   2.953   3.299   7.405  0.6114  0.1546  0.5707
   31CHL1  H19A 2261   2.867   3.341   7.461  1.1384 -0.2590  1.7172
   31CHL1  H19B 2262   2.911   3.249   7.315 -1.4648  1.7558  0.5745
   31CHL1  H19C 2263   2.991   3.219   7.472  3.3565  1.0150  0.1337
   31CHL1    C1 2264   3.016   3.497   7.264  0.2536 -0.0635 -0.1340
   31CHL1   H1A 2265   2.916   3.528   7.301  0.0306 -1.9276  0.9394
   31CHL1   H1B 2266   3.090   3.580   7.256  1.3573 -1.1603 -2.1923
   31CHL1    C2 2267   2.996   3.432   7.125 -0.2988 -0.0353  1.0070
   31CHL1   H2A 2268   2.964   3.505   7.047 -1.4725 -1.0223  0.5227
   31CHL1   H2B 2269   2.918   3.352   7.123 -1.1181  0.7550  0.8157
   31CHL1   C20 2270   3.113   3.596   8.053  0.0510 -0.0651  0.8520
   31CHL1   H20 2271   3.028   3.657   8.014  1.2271  0.2726 -1.3236
   31CHL1   C21 2272   3.205   3.698   8.125  0.0130  0.0678 -0.1872
   31CHL1  H21A 2273   3.286   3.654   8.187 -0.1886  0.5997  0.4641
   31CHL1  H21B 2274   3.144   3.767   8.186 -1.5639 -1.5625  0.1674
   31CHL1  H21C 2275   3.260   3.762   8.052  0.6323 -1.0316 -0.7100
   31CHL1   C22 2276   3.068   3.498   8.156  0.6375 -0.3689  0.3488
   31CHL1  H22A 2277   3.036   3.403   8.107  1.5713 -0.5823  0.1397
   31CHL1  H22B 2278   3.158   3.485   8.220  1.8001 -3.1855 -1.6567
   31CHL1   C23 2279   2.959   3.547   8.252 -0.3355  0.7971 -0.0615
   31CHL1  H23A 2280   3.003   3.634   8.304  3.2479 -0.4915 -0.6827
   31CHL1  H23B 2281   2.863   3.572   8.201  0.1325  1.4845 -0.6223
   31CHL1   C24 2282   2.935   3.439   8.363 -0.1659 -0.7671  0.6460
   31CHL1  H24A 2283   2.862   3.362   8.329 -0.7323  0.8888 -2.2274
   31CHL1  H24B 2284   3.036   3.395   8.378  0.6944  0.4829 -1.1331
   31CHL1   C25 2285   2.876   3.487   8.499  0.2300  0.9952  0.1723
   31CHL1   H25 2286   2.768   3.504   8.478  0.0965 -0.2894 -0.2783
   31CHL1   C26 2287   2.877   3.369   8.599 -0.2557 -0.0651 -0.1829
   31CHL1  H26A 2288   2.812   3.400   8.684  1.1659  3.8034 -0.3335
   31CHL1  H26B 2289   2.841   3.274   8.554  2.2505 -0.5204 -1.3619
   31CHL1  H26C 2290   2.981   3.353   8.636  1.2229  1.6734 -3.2814
   31CHL1   C27 2291   2.951   3.602   8.564  0.1662 -0.2069  0.1486
   31CHL1  H27A 2292   3.056   3.569   8.580  0.0791  0.0266  1.2213
   31CHL1  H27B 2293   2.896   3.636   8.654 -0.4095  0.6431 -0.5094
   31CHL1  H27C 2294   2.950   3.686   8.491 -0.1999 -1.0965 -0.9084
   32CHL1    C3 2295   4.612   0.567   7.035 -0.4712  0.1463 -0.2677
   32CHL1    H3 2296   4.705   0.620   7.065 -0.3361 -0.0969 -0.2536
   32CHL1    O3 2297   4.588   0.568   6.895 -0.8374 -0.1421 -0.2690
   32CHL1   H3' 2298   4.532   0.490   6.884  2.4232 -3.0883  1.9171
   32CHL1    C4 2299   4.643   0.421   7.087  0.8856 -0.1170 -0.5664
   32CHL1   H4A 2300   4.565   0.358   7.039 -1.9456  2.9456 -0.3854
   32CHL1   H4B 2301   4.740   0.387   7.046  0.8348  1.4365 -2.0881
   32CHL1    C5 2302   4.628   0.411   7.242 -0.6652  0.3803 -0.0807
   32CHL1    C6 2303   4.729   0.360   7.320 -0.0938  0.0999 -0.1025
   32CHL1    H6 2304   4.818   0.319   7.270 -0.5985 -2.5132  0.9774
   32CHL1    C7 2305   4.722   0.348   7.468  0.3217  0.3703  0.4190
   32CHL1   H7A 2306   4.741   0.240   7.486 -2.2816 -0.5601 -1.6547
   32CHL1   H7B 2307   4.793   0.415   7.521  0.8137  1.0408 -1.0466
   32CHL1    C8 2308   4.578   0.361   7.515  1.1710  0.3248 -0.0341
   32CHL1    H8 2309   4.522   0.274   7.474  1.4869  1.0579 -2.1809
   32CHL1   C14 2310   4.582   0.372   7.669 -0.4777  0.4642 -0.2831
   32CHL1   H14 2311   4.631   0.465   7.705  0.9623 -0.6431  0.7080
   32CHL1   C15 2312   4.645   0.251   7.747  0.0818 -0.2638  0.2436
   32CHL1  H15A 2313   4.606   0.161   7.696 -2.2175 -0.1150  1.6023
   32CHL1  H15B 2314   4.755   0.258   7.729  0.2675 -0.4514  1.2457
   32CHL1   C16 2315   4.599   0.265   7.892 -0.6275 -0.8215  0.3855
   32CHL1  H16A 2316   4.546   0.171   7.918  0.2344 -1.0115  1.5427
   32CHL1  H16B 2317   4.693   0.291   7.946 -0.2986  0.3887 -0.7281
   32CHL1   C17 2318   4.486   0.378   7.887  0.2412  0.3613  0.1627
   32CHL1   H17 2319   4.537   0.472   7.917 -1.6741  1.2545  0.7696
   32CHL1   C13 2320   4.447   0.392   7.745  0.0195  0.6177 -0.1567
   32CHL1   C18 2321   4.353   0.268   7.723 -0.1388 -0.2142  0.6306
   32CHL1  H18A 2322   4.357   0.236   7.617 -0.9909  1.3882  0.0773
   32CHL1  H18B 2323   4.388   0.179   7.779  1.2171  0.2310  0.5227
   32CHL1  H18C 2324   4.245   0.279   7.749 -0.7906 -3.7461 -0.1457
   32CHL1   C12 2325   4.383   0.519   7.693 -0.6009 -0.1381 -0.1451
   32CHL1  H12A 2326   4.280   0.545   7.727 -1.9683 -3.1871 -1.6271
   32CHL1  H12B 2327   4.450   0.605   7.716 -0.8981  0.0925 -0.1256
   32CHL1   C11 2328   4.375   0.512   7.537 -0.0645 -0.2734  0.0388
   32CHL1  H11A 2329   4.304   0.428   7.522  0.7105 -1.1340  1.0696
   32CHL1  H11B 2330   4.335   0.603   7.487  1.8658 -0.6343 -2.3882
   32CHL1    C9 2331   4.510   0.482   7.461 -0.1709  0.0153  0.4512
   32CHL1    H9 2332   4.575   0.567   7.492 -1.9862  0.9988  1.7945
   32CHL1   C10 2333   4.507   0.479   7.309  0.2239  0.2870  0.5613
   32CHL1   C19 2334   4.379   0.405   7.265 -0.0457  0.7247  0.3995
   32CHL1  H19A 2335   4.285   0.450   7.303 -0.1860  0.0408  0.8687
   32CHL1  H19B 2336   4.357   0.381   7.158 -2.4723 -1.2057  1.2367
   32CHL1  H19C 2337   4.380   0.308   7.318 -1.4124  0.9752  0.9215
   32CHL1    C1 2338   4.496   0.626   7.261  0.0094  0.4625 -0.7706
   32CHL1   H1A 2339   4.401   0.658   7.309  0.7268  1.0893  0.2698
   32CHL1   H1B 2340   4.582   0.675   7.311 -1.5551  0.6485  1.8820
   32CHL1    C2 2341   4.487   0.627   7.104 -0.3421 -0.2707 -0.3906
   32CHL1   H2A 2342   4.489   0.735   7.080 -0.7773  0.5334  2.7623
   32CHL1   H2B 2343   4.390   0.595   7.061 -0.6373 -0.1494  0.1772
   32CHL1   C20 2344   4.372   0.362   7.986 -0.5004 -0.6867  0.2597
   32CHL1   H20 2345   4.325   0.263   7.965  1.0926 -2.0203  2.4429
   32CHL1   C21 2346   4.275   0.484   7.996  0.2626  0.4926 -0.0682
   32CHL1  H21A 2347   4.202   0.492   7.912 -0.4433 -0.4920  0.4321
   32CHL1  H21B 2348   4.341   0.573   7.996  2.2365 -0.8995 -0.2056
   32CHL1  H21C 2349   4.216   0.480   8.090  2.0608  0.1555  1.0923
   32CHL1   C22 2350   4.410   0.343   8.136 -0.3331 -0.3190 -0.8788
   32CHL1  H22A 2351   4.314   0.349   8.192 -0.9343  3.3483 -2.0197
   32CHL1  H22B 2352   4.451   0.243   8.162 -0.9677  0.0319  1.6446
   32CHL1   C23 2353   4.501   0.449   8.196  0.5394 -0.4335  0.9806
   32CHL1  H23A 2354   4.604   0.413   8.173 -0.5577 -1.9350 -2.1777
   32CHL1  H23B 2355   4.486   0.540   8.134 -0.2697 -0.3227  1.3344
   32CHL1   C24 2356   4.487   0.467   8.347 -0.2465  0.0814 -0.4712
   32CHL1  H24A 2357   4.384   0.497   8.376 -0.5168 -1.2906  0.0543
   32CHL1  H24B 2358   4.510   0.380   8.412  0.2239  1.4518  1.2853
   32CHL1   C25 2359   4.572   0.576   8.420  0.0031 -0.6128  0.5203
   32CHL1   H25 2360   4.542   0.679   8.390 -1.6639 -0.6577  1.9204
   32CHL1   C26 2361   4.554   0.569   8.576  0.4650 -0.2299 -0.0059
   32CHL1  H26A 2362   4.608   0.652   8.627 -0.2747 -0.6648  1.5449
   32CHL1  H26B 2363   4.445   0.570   8.601 -0.0248  1.6457 -1.8920
   32CHL1  H26C 2364   4.598   0.479   8.623 -0.6278 -1.7037 -1.6842
   32CHL1   C27 2365   4.721   0.572   8.389  0.6167 -0.3573  0.0460
   32CHL1  H27A 2366   4.725   0.581   8.278 -1.5350  1.9829  0.0586
   32CHL1  H27B 2367   4.779   0.656   8.433 -1.6121  1.8134 -0.9111
   32CHL1  H27C 2368   4.761   0.473   8.420  0.1028 -0.9303 -1.0595
   33CHL1    C3 2369   6.351   1.163   6.777 -0.2854 -0.0953  0.4584
   33CHL1    H3 2370   6.393   1.066   6.810  2.4229 -0.0017 -2.2372
   33CHL1    O3 2371   6.355   1.174   6.634 -0.0597  0.2483 -0.5792
   33CHL1   H3' 2372   6.407   1.250   6.605  2.8650 -2.0279 -1.8383
   33CHL1    C4 2373   6.215   1.166   6.835 -0.0801  0.1101 -0.7603
   33CHL1   H4A 2374   6.181   1.267   6.804  0.4501  1.1517  1.8193
   33CHL1   H4B 2375   6.142   1.092   6.797 -0.5315  1.1003 -1.8981
   33CHL1    C5 2376   6.225   1.159   6.992 -0.5547  0.0732  0.0842
   33CHL1    C6 2377   6.162   1.063   7.057  1.1300  0.4503 -0.0644
   33CHL1    H6 2378   6.101   1.001   6.990  0.7434  3.1269 -2.3662
   33CHL1    C7 2379   6.163   1.037   7.204 -0.0786  0.2389 -0.5222
   33CHL1   H7A 2380   6.062   1.003   7.236  0.7973 -0.9539  1.1292
   33CHL1   H7B 2381   6.241   0.959   7.218  1.5791  1.7472 -0.9223
   33CHL1    C8 2382   6.223   1.151   7.284  0.0041 -0.2807  0.2879
   33CHL1    H8 2383   6.151   1.235   7.291 -0.3855 -0.7399  3.4629
   33CHL1   C14 2384   6.251   1.110   7.425  0.1792  0.1090  0.7198
   33CHL1   H14 2385   6.335   1.040   7.405 -0.8105 -0.5272 -1.4775
   33CHL1   C15 2386   6.140   1.026   7.498  0.2358 -0.1047 -0.1749
   33CHL1  H15A 2387   6.048   1.073   7.458  0.5504  1.2269  0.6195
   33CHL1  H15B 2388   6.128   0.917   7.480 -0.4226 -0.4581  2.1319
   33CHL1   C16 2389   6.173   1.040   7.641 -0.5926 -0.5043 -0.4433
   33CHL1  H16A 2390   6.081   1.087   7.682  1.3302  2.8122  0.4535
   33CHL1  H16B 2391   6.189   0.943   7.693 -0.2684 -0.0103  0.3987
   33CHL1   C17 2392   6.296   1.140   7.652 -0.1841  0.0712 -0.6851
   33CHL1   H17 2393   6.388   1.077   7.655  0.3038  0.7871  1.4725
   33CHL1   C13 2394   6.286   1.221   7.521 -0.2481 -0.0630  0.0665
   33CHL1   C18 2395   6.176   1.337   7.537 -0.6700  0.5015 -0.7857
   33CHL1  H18A 2396   6.198   1.403   7.623 -1.2109 -2.5443  1.8594
   33CHL1  H18B 2397   6.154   1.394   7.444  0.6569  2.9774  0.3189
   33CHL1  H18C 2398   6.079   1.299   7.574  0.2970 -0.5871  0.7562
   33CHL1   C12 2399   6.417   1.280   7.462 -0.6646  0.5804  0.8318
   33CHL1  H12A 2400   6.454   1.370   7.516  0.3776  0.6838 -0.0291
   33CHL1  H12B 2401   6.501   1.208   7.453 -0.0279  1.6033 -2.6677
   33CHL1   C11 2402   6.408   1.324   7.313 -0.0936  0.1923 -0.0760
   33CHL1  H11A 2403   6.329   1.402   7.316 -0.2739  0.1276 -1.9431
   33CHL1  H11B 2404   6.499   1.378   7.279 -1.3716  0.9063 -2.6369
   33CHL1    C9 2405   6.344   1.215   7.217  0.0558 -0.4148  0.1945
   33CHL1    H9 2406   6.417   1.132   7.214  0.4641 -0.0607  0.1101
   33CHL1   C10 2407   6.316   1.258   7.065 -0.0159 -0.1887 -0.6643
   33CHL1   C19 2408   6.243   1.399   7.048  0.2584  0.1614  0.0977
   33CHL1  H19A 2409   6.268   1.453   6.954 -0.0062  1.1607  0.5913
   33CHL1  H19B 2410   6.132   1.391   7.056  0.1979 -0.9630 -1.3526
   33CHL1  H19C 2411   6.271   1.456   7.138  0.8912 -1.8788  1.2654
   33CHL1    C1 2412   6.460   1.272   6.988 -0.2075 -0.8549  0.4950
   33CHL1   H1A 2413   6.508   1.364   7.030  1.9880 -0.4280 -2.6069
   33CHL1   H1B 2414   6.527   1.185   7.005  0.5018 -0.7731 -1.6094
   33CHL1    C2 2415   6.439   1.273   6.833 -0.3499  0.3888 -0.6058
   33CHL1   H2A 2416   6.536   1.269   6.779  0.0526 -0.0781  0.1287
   33CHL1   H2B 2417   6.389   1.369   6.806 -0.0908  0.0726 -2.2934
   33CHL1   C20 2418   6.285   1.221   7.785  0.1111 -0.7199 -0.0850
   33CHL1   H20 2419   6.192   1.282   7.777 -1.2404 -2.5328  0.8221
   33CHL1   C21 2420   6.403   1.324   7.800  0.0276 -0.0875  0.2895
   33CHL1  H21A 2421   6.501   1.280   7.771 -0.1643  1.1650 -2.6074
   33CHL1  H21B 2422   6.406   1.368   7.902  0.0090 -2.9141  1.5916
   33CHL1  H21C 2423   6.393   1.417   7.740  2.6201 -0.7318 -1.3149
   33CHL1   C22 2424   6.266   1.130   7.913 -0.1962 -0.1283  0.6271
   33CHL1  H22A 2425   6.172   1.078   7.885  0.6707 -0.1949 -2.4778
   33CHL1  H22B 2426   6.350   1.058   7.913 -3.4484 -4.3857  0.1479
   33CHL1   C23 2427   6.247   1.208   8.046  0.3427  0.1756 -0.1123
   33CHL1  H23A 2428   6.235   1.133   8.127 -0.9640 -0.1888 -0.6077
   33CHL1  H23B 2429   6.326   1.280   8.073  0.5076 -0.5808  1.5614
   33CHL1   C24 2430   6.116   1.280   8.044  0.0205  0.1359  0.2310
   33CHL1  H24A 2431   6.119   1.365   7.972 -0.1241 -0.5751 -0.6384
   33CHL1  H24B 2432   6.039   1.202   8.022  1.9591 -1.4145 -1.5288
   33CHL1   C25 2433   6.075   1.354   8.178  0.2002 -0.2953  0.5247
   33CHL1   H25 2434   6.080   1.274   8.254 -0.9352  1.2152  2.2672
   33CHL1   C26 2435   6.161   1.478   8.207 -0.2459  0.3813 -0.0448
   33CHL1  H26A 2436   6.160   1.521   8.310  2.5733  0.1550  0.1560
   33CHL1  H26B 2437   6.264   1.439   8.193 -0.2444  0.4323 -0.1738
   33CHL1  H26C 2438   6.153   1.570   8.145 -0.3285  1.6082  1.7133
   33CHL1   C27 2439   5.931   1.407   8.177  0.2750 -0.3159 -0.1378
   33CHL1  H27A 2440   5.904   1.447   8.278 -0.4438  1.3545 -0.9523
   33CHL1  H27B 2441   5.934   1.489   8.102  0.0362  0.6259  0.8433
   33CHL1  H27C 2442   5.864   1.320   8.160 -1.5689  0.6652  1.5803
   34CHL1    C3 2443   5.646   6.610   7.217 -0.2917 -0.7643  0.5032
   34CHL1    H3 2444   5.726   6.654   7.280  0.5849  0.6422 -1.4669
   34CHL1    O3 2445   5.694   6.638   7.087  0.2432  0.0226 -0.0788
   34CHL1   H3' 2446   5.662   6.568   7.029 -0.7525  0.2191  0.2057
   34CHL1    C4 2447   5.637   6.466   7.239  0.6550 -0.1320  0.0230
   34CHL1   H4A 2448   5.555   6.426   7.176 -2.1751  1.6651  2.3357
   34CHL1   H4B 2449   5.735   6.420   7.214  1.4053  1.2206  0.3417
   34CHL1    C5 2450   5.606   6.447   7.386 -0.5651  0.1788 -0.1011
   34CHL1    C6 2451   5.690   6.377   7.461 -0.0736  0.5535  0.3257
   34CHL1    H6 2452   5.774   6.329   7.409 -0.7844  2.6022 -3.0408
   34CHL1    C7 2453   5.670   6.342   7.601  0.1601 -0.6457  0.0004
   34CHL1   H7A 2454   5.676   6.231   7.597 -3.7836 -1.0108  0.6480
   34CHL1   H7B 2455   5.755   6.381   7.661 -0.5602  0.9944  0.0044
   34CHL1    C8 2456   5.528   6.385   7.652  0.3700 -0.9103 -0.4123
   34CHL1    H8 2457   5.453   6.309   7.622 -1.0259 -0.0864  0.8560
   34CHL1   C14 2458   5.534   6.417   7.802  0.0896 -0.3607 -0.2909
   34CHL1   H14 2459   5.594   6.511   7.803 -0.4696 -0.0016 -0.2127
   34CHL1   C15 2460   5.603   6.321   7.902 -0.1804  0.7299  0.4013
   34CHL1  H15A 2461   5.570   6.215   7.896  1.4334  0.2498 -0.5807
   34CHL1  H15B 2462   5.714   6.319   7.900  0.0006 -2.1198  3.9391
   34CHL1   C16 2463   5.557   6.365   8.041 -0.0987  0.0521 -0.0128
   34CHL1  H16A 2464   5.497   6.284   8.088 -1.8393  1.0703 -0.3785
   34CHL1  H16B 2465   5.639   6.394   8.110  0.6567 -0.4063 -0.7092
   34CHL1   C17 2466   5.448   6.470   8.016  0.6122 -0.4550  0.6992
   34CHL1   H17 2467   5.497   6.570   8.013  0.6657 -0.4987  0.0276
   34CHL1   C13 2468   5.398   6.452   7.864  0.2646 -0.3046 -0.1282
   34CHL1   C18 2469   5.287   6.342   7.862  0.3389 -0.2190  0.0878
   34CHL1  H18A 2470   5.327   6.252   7.915  1.0051  0.2763  0.4427
   34CHL1  H18B 2471   5.189   6.373   7.905 -1.0762 -2.3838 -1.3405
   34CHL1  H18C 2472   5.264   6.306   7.759 -0.6609 -0.2676  0.3206
   34CHL1   C12 2473   5.354   6.592   7.803  0.0011  0.4641  0.0862
   34CHL1  H12A 2474   5.254   6.630   7.833 -1.1067 -0.8427 -1.7210
   34CHL1  H12B 2475   5.432   6.669   7.824  0.9263 -0.8252  1.6559
   34CHL1   C11 2476   5.346   6.574   7.651 -0.7620  0.6168 -0.2972
   34CHL1  H11A 2477   5.273   6.491   7.639  0.1595 -0.5401  1.6585
   34CHL1  H11B 2478   5.302   6.666   7.607  1.9364  2.0000 -0.2563
   34CHL1    C9 2479   5.478   6.516   7.585  0.0181  0.2982 -0.6003
   34CHL1    H9 2480   5.552   6.593   7.616 -0.4401  0.7457 -0.6090
   34CHL1   C10 2481   5.479   6.511   7.433 -1.0579  0.4182  0.1084
   34CHL1   C19 2482   5.354   6.430   7.378 -0.0307 -0.1300  0.2874
   34CHL1  H19A 2483   5.257   6.479   7.403 -1.4190 -0.4679 -3.6828
   34CHL1  H19B 2484   5.347   6.439   7.267  0.6597 -0.0254  0.2534
   34CHL1  H19C 2485   5.361   6.320   7.390  2.5435 -0.4418 -2.8047
   34CHL1    C1 2486   5.464   6.657   7.385 -0.3500  0.0534  0.5873
   34CHL1   H1A 2487   5.357   6.680   7.399 -0.1002  1.6428  0.0309
   34CHL1   H1B 2488   5.527   6.729   7.441 -0.1096 -0.1718  0.6117
   34CHL1    C2 2489   5.511   6.683   7.245 -0.2884  0.1142  0.3410
   34CHL1   H2A 2490   5.503   6.792   7.228 -0.2909  0.0138 -0.3452
   34CHL1   H2B 2491   5.438   6.635   7.176 -0.9954  0.6370  0.7167
   34CHL1   C20 2492   5.338   6.481   8.125 -0.7605  0.0029 -0.4702
   34CHL1   H20 2493   5.282   6.386   8.114 -1.3225  0.4087 -1.2413
   34CHL1   C21 2494   5.259   6.608   8.117  0.3330 -0.2475  0.3071
   34CHL1  H21A 2495   5.180   6.590   8.041  0.1077 -0.7000  0.6487
   34CHL1  H21B 2496   5.304   6.699   8.071 -0.7504 -0.1270 -0.5571
   34CHL1  H21C 2497   5.205   6.638   8.208 -1.1861  1.6811 -1.1404
   34CHL1   C22 2498   5.402   6.475   8.272  0.0336  0.1577  0.0104
   34CHL1  H22A 2499   5.486   6.402   8.277  1.9580  1.9362 -2.8603
   34CHL1  H22B 2500   5.441   6.576   8.299  3.2952 -1.3746  1.6883
   34CHL1   C23 2501   5.304   6.433   8.381  0.4313 -0.0564  0.1076
   34CHL1  H23A 2502   5.220   6.506   8.379 -1.4818 -2.1947 -0.5724
   34CHL1  H23B 2503   5.258   6.334   8.366  1.3632 -0.5110  0.1685
   34CHL1   C24 2504   5.361   6.441   8.526 -0.3146 -0.6947  0.2092
   34CHL1  H24A 2505   5.454   6.383   8.543  0.8132  1.3824  1.6173
   34CHL1  H24B 2506   5.381   6.548   8.547 -2.2930 -0.4766  1.3090
   34CHL1   C25 2507   5.272   6.384   8.635  0.2973  0.0796  0.7324
   34CHL1   H25 2508   5.243   6.285   8.595  1.0083  0.2680 -0.2710
   34CHL1   C26 2509   5.345   6.361   8.768 -0.1694 -0.1801  0.0252
   34CHL1  H26A 2510   5.370   6.456   8.819 -3.5438  1.0244 -0.3290
   34CHL1  H26B 2511   5.285   6.298   8.838  1.6799 -1.2378  0.7587
   34CHL1  H26C 2512   5.437   6.299   8.760  1.7900  2.7361 -2.3231
   34CHL1   C27 2513   5.136   6.460   8.656  0.6412  0.4553  0.0135
   34CHL1  H27A 2514   5.062   6.437   8.576  1.1662  1.5750 -0.8197
   34CHL1  H27B 2515   5.096   6.431   8.756 -0.0087 -1.5045 -0.7596
   34CHL1  H27C 2516   5.151   6.570   8.660 -0.9756  0.7922 -1.9076
   35CHL1    C3 2517   2.894   1.550   7.471  0.8593 -0.5577  0.4178
   35CHL1    H3 2518   2.833   1.642   7.466  1.0855 -0.3662  1.0996
   35CHL1    O3 2519   2.909   1.515   7.331  0.1317 -0.0848  0.0492
   35CHL1   H3' 2520   2.905   1.419   7.333 -1.7710 -0.0985 -1.4880
   35CHL1    C4 2521   3.027   1.568   7.538 -0.0131 -0.0640  0.8835
   35CHL1   H4A 2522   3.084   1.474   7.521  0.0651 -0.0312  0.9688
   35CHL1   H4B 2523   3.085   1.641   7.477 -0.9042 -1.5628 -1.9295
   35CHL1    C5 2524   3.026   1.586   7.688 -0.3383 -1.1668  0.7351
   35CHL1    C6 2525   3.080   1.695   7.744  0.3533 -0.3231 -0.3339
   35CHL1    H6 2526   3.125   1.770   7.678 -3.6556  1.9995 -0.7940
   35CHL1    C7 2527   3.076   1.712   7.895  0.4174  0.4541  0.5632
   35CHL1   H7A 2528   3.166   1.762   7.935  1.5606 -0.7953 -0.3458
   35CHL1   H7B 2529   2.993   1.778   7.927 -0.1979  0.4399 -0.9379
   35CHL1    C8 2530   3.042   1.579   7.973  0.4919 -0.2891  0.2439
   35CHL1    H8 2531   3.127   1.508   7.982 -0.5327 -1.5802  0.1094
   35CHL1   C14 2532   3.009   1.620   8.118 -0.3395  0.5732  0.3844
   35CHL1   H14 2533   2.931   1.699   8.120 -0.9267  0.0082  2.3501
   35CHL1   C15 2534   3.125   1.693   8.198 -0.6295  0.1737  0.4391
   35CHL1  H15A 2535   3.219   1.636   8.185 -1.0794 -0.8401  1.4496
   35CHL1  H15B 2536   3.140   1.802   8.183 -0.6653  0.1951  0.5533
   35CHL1   C16 2537   3.091   1.666   8.344 -0.8754  0.0601  0.1194
   35CHL1  H16A 2538   3.166   1.594   8.384  1.0707 -0.3087 -3.7658
   35CHL1  H16B 2539   3.098   1.759   8.405  1.4087 -0.1412  0.2308
   35CHL1   C17 2540   2.956   1.583   8.335  0.3232  0.6217 -0.2935
   35CHL1   H17 2541   2.885   1.665   8.312 -0.3896  1.1018  3.1270
   35CHL1   C13 2542   2.962   1.507   8.206  0.2800  0.2392 -0.1464
   35CHL1   C18 2543   3.070   1.399   8.214  0.7454 -0.2348  0.8141
   35CHL1  H18A 2544   3.037   1.316   8.281 -0.4731  0.2245  0.8058
   35CHL1  H18B 2545   3.083   1.347   8.117  0.1194 -0.0026  0.6076
   35CHL1  H18C 2546   3.169   1.428   8.257  1.7756 -2.2619 -0.0474
   35CHL1   C12 2547   2.829   1.453   8.155  0.3647 -0.0655 -0.0746
   35CHL1  H12A 2548   2.783   1.371   8.214  1.3330 -1.4171 -1.1408
   35CHL1  H12B 2549   2.755   1.536   8.149  0.8454  0.4008  0.3392
   35CHL1   C11 2550   2.850   1.413   8.003  0.2694 -0.2404 -0.0223
   35CHL1  H11A 2551   2.903   1.315   8.001  0.7458 -0.1257  2.9623
   35CHL1  H11B 2552   2.750   1.390   7.960  0.4046 -2.0062  0.5496
   35CHL1    C9 2553   2.915   1.519   7.910 -0.5263  0.4869 -0.3447
   35CHL1    H9 2554   2.839   1.600   7.910 -0.6583  0.3830  0.7617
   35CHL1   C10 2555   2.943   1.483   7.757  0.0762  0.2813 -0.3573
   35CHL1   C19 2556   3.006   1.340   7.753  0.3947 -0.4453  0.1368
   35CHL1  H19A 2557   2.955   1.262   7.814  0.6156 -1.8319 -1.3732
   35CHL1  H19B 2558   3.024   1.285   7.658  1.9461 -0.6936  0.5407
   35CHL1  H19C 2559   3.107   1.349   7.799 -0.0876 -0.1577  1.1679
   35CHL1    C1 2560   2.802   1.482   7.691  0.3309 -0.3003  0.1053
   35CHL1   H1A 2561   2.742   1.400   7.736  0.6810 -0.5582  0.1137
   35CHL1   H1B 2562   2.739   1.573   7.700 -2.0455 -1.7369 -1.2508
   35CHL1    C2 2563   2.807   1.443   7.540 -0.0244 -0.3319 -0.3775
   35CHL1   H2A 2564   2.708   1.447   7.489  1.2206  3.2057 -2.9994
   35CHL1   H2B 2565   2.849   1.341   7.529  0.7811 -0.2680  1.7397
   35CHL1   C20 2566   2.920   1.498   8.458 -0.2151 -0.5247 -0.7065
   35CHL1   H20 2567   2.847   1.419   8.428 -0.2840 -1.3854  1.5409
   35CHL1   C21 2568   2.843   1.601   8.544 -0.1694  0.2971  0.1872
   35CHL1  H21A 2569   2.914   1.686   8.556  1.9010 -0.9054 -2.4371
   35CHL1  H21B 2570   2.819   1.557   8.643  1.5768 -2.7522 -0.6089
   35CHL1  H21C 2571   2.753   1.653   8.505  0.0973  1.2276  0.7829
   35CHL1   C22 2572   3.040   1.429   8.535  0.6982  0.2546  0.4776
   35CHL1  H22A 2573   3.104   1.361   8.474  0.6627  0.1388  0.5686
   35CHL1  H22B 2574   3.109   1.509   8.570  0.1567  0.2903  1.4903
   35CHL1   C23 2575   2.989   1.347   8.656  0.3726 -0.0208  0.0857
   35CHL1  H23A 2576   2.934   1.399   8.738  2.4892  1.4062  0.7001
   35CHL1  H23B 2577   2.914   1.273   8.622  0.8921  0.2923 -1.8086
   35CHL1   C24 2578   3.107   1.293   8.732 -0.2097  0.6630  0.3316
   35CHL1  H24A 2579   3.073   1.204   8.790  0.8981  0.4965  0.7605
   35CHL1  H24B 2580   3.178   1.255   8.656 -1.0722 -0.8130  0.2258
   35CHL1   C25 2581   3.160   1.394   8.828 -0.1301 -0.4695  0.0093
   35CHL1   H25 2582   3.177   1.483   8.764  0.0777  1.1132  2.1421
   35CHL1   C26 2583   3.066   1.435   8.949  0.3796 -0.6520 -0.4033
   35CHL1  H26A 2584   3.117   1.499   9.024  0.5679 -0.0977 -0.9944
   35CHL1  H26B 2585   2.973   1.489   8.921  1.8798  1.6455 -1.1476
   35CHL1  H26C 2586   3.050   1.339   9.003 -0.1615 -1.2159 -1.5263
   35CHL1   C27 2587   3.295   1.362   8.889 -0.5189  0.3093  0.5963
   35CHL1  H27A 2588   3.328   1.439   8.962 -1.1515  2.6341 -1.4435
   35CHL1  H27B 2589   3.368   1.360   8.805 -1.4685 -1.5550 -0.2627
   35CHL1  H27C 2590   3.296   1.260   8.932  0.9728 -0.1301 -0.4177
   36CHL1    C3 2591   3.063   0.604   7.082 -0.1179 -0.7030  0.4479
   36CHL1    H3 2592   3.063   0.714   7.096  4.3960 -0.4214 -0.2951
   36CHL1    O3 2593   3.079   0.575   6.943 -0.1835 -0.6932 -0.0191
   36CHL1   H3' 2594   3.090   0.481   6.933  0.9899 -0.4029 -1.7037
   36CHL1    C4 2595   3.181   0.549   7.158 -0.1536  0.3891 -0.0098
   36CHL1   H4A 2596   3.215   0.452   7.115  1.4652  1.1454 -0.5253
   36CHL1   H4B 2597   3.264   0.613   7.123  0.9859  0.0720  1.9622
   36CHL1    C5 2598   3.171   0.544   7.306 -0.1109 -0.2343 -0.0190
   36CHL1    C6 2599   3.268   0.597   7.383  0.3964 -1.2880 -0.1023
   36CHL1    H6 2600   3.350   0.650   7.331  0.5290 -0.6165  0.7670
   36CHL1    C7 2601   3.275   0.589   7.536 -0.9362 -0.5093  0.4767
   36CHL1   H7A 2602   3.372   0.548   7.574 -0.2407  1.5236  1.0281
   36CHL1   H7B 2603   3.251   0.688   7.580 -0.4569  0.3520 -1.1373
   36CHL1    C8 2604   3.163   0.499   7.600 -0.6844  0.0967  0.2222
   36CHL1    H8 2605   3.204   0.396   7.593  1.9808  0.9239  1.9030
   36CHL1   C14 2606   3.135   0.531   7.744 -0.1512  0.2121  0.0010
   36CHL1   H14 2607   3.099   0.636   7.755 -1.5005 -0.3747  1.9464
   36CHL1   C15 2608   3.255   0.525   7.837 -0.5052  0.3534  0.2834
   36CHL1  H15A 2609   3.336   0.453   7.811 -0.5778  0.7320 -1.0657
   36CHL1  H15B 2610   3.323   0.614   7.839  1.0407 -0.7861  0.0604
   36CHL1   C16 2611   3.196   0.496   7.982  0.2857 -0.5299 -0.1388
   36CHL1  H16A 2612   3.238   0.395   8.006 -0.8260 -0.9327  0.1565
   36CHL1  H16B 2613   3.221   0.559   8.070  0.4458  1.4566 -1.5704
   36CHL1   C17 2614   3.037   0.482   7.960  0.2525  0.1778  0.0906
   36CHL1   H17 2615   2.990   0.582   7.974  0.4357  0.6764 -2.4406
   36CHL1   C13 2616   3.032   0.441   7.811  0.0984  0.8604  0.0961
   36CHL1   C18 2617   3.072   0.289   7.808 -0.1258  0.8766  0.1032
   36CHL1  H18A 2618   2.982   0.232   7.839 -1.7111  1.9617 -2.1709
   36CHL1  H18B 2619   3.103   0.266   7.703  1.5165 -2.9240  1.2481
   36CHL1  H18C 2620   3.162   0.269   7.869  0.3611  1.6609 -0.3357
   36CHL1   C12 2621   2.901   0.461   7.739  0.1234  0.2234  0.6674
   36CHL1  H12A 2622   2.819   0.398   7.780 -0.2812  1.0429  1.1364
   36CHL1  H12B 2623   2.879   0.568   7.761 -0.4002 -0.1213  1.9301
   36CHL1   C11 2624   2.913   0.438   7.587 -0.1587  0.1010  0.0095
   36CHL1  H11A 2625   2.926   0.332   7.557  0.4121  0.2720 -0.3707
   36CHL1  H11B 2626   2.824   0.476   7.533  0.5297  1.1369 -0.4404
   36CHL1    C9 2627   3.029   0.517   7.521 -0.3043  1.0791 -0.2297
   36CHL1    H9 2628   2.997   0.622   7.534 -1.6483  0.3752  3.0951
   36CHL1   C10 2629   3.045   0.485   7.362  1.0558 -0.3456 -0.3615
   36CHL1   C19 2630   3.048   0.333   7.339 -0.9804  0.6054  0.4585
   36CHL1  H19A 2631   3.087   0.309   7.238 -0.8364  1.3329  0.3319
   36CHL1  H19B 2632   3.117   0.285   7.411 -1.1891 -0.0616  0.2202
   36CHL1  H19C 2633   2.946   0.293   7.353 -1.1711  1.0966  0.4957
   36CHL1    C1 2634   2.928   0.552   7.286 -0.3981  0.0220 -0.1586
   36CHL1   H1A 2635   2.836   0.496   7.312  0.2128  0.1043  2.4009
   36CHL1   H1B 2636   2.902   0.656   7.317 -0.5364  0.2037 -0.8489
   36CHL1    C2 2637   2.942   0.534   7.134  0.7528 -0.2506  0.0926
   36CHL1   H2A 2638   2.848   0.575   7.092 -0.4552 -0.7173  2.2255
   36CHL1   H2B 2639   2.940   0.428   7.102  0.1513  0.0179 -0.8145
   36CHL1   C20 2640   2.977   0.389   8.063 -0.9124 -0.4977 -0.2258
   36CHL1   H20 2641   3.020   0.288   8.047 -1.8997 -0.9962  0.1802
   36CHL1   C21 2642   2.822   0.372   8.068  0.1956 -0.5377  0.1373
   36CHL1  H21A 2643   2.790   0.312   8.157 -1.2410  1.1201  0.7922
   36CHL1  H21B 2644   2.787   0.325   7.974  0.4110 -3.2296  1.2913
   36CHL1  H21C 2645   2.776   0.473   8.076 -0.4222 -0.4741 -3.0383
   36CHL1   C22 2646   3.021   0.427   8.208  0.5882  0.2516 -0.6138
   36CHL1  H22A 2647   2.979   0.354   8.280  0.7212 -0.4962 -1.2767
   36CHL1  H22B 2648   3.132   0.419   8.202  0.5633  0.6620 -1.8216
   36CHL1   C23 2649   2.973   0.562   8.262 -0.0991 -0.2797 -0.4161
   36CHL1  H23A 2650   3.048   0.637   8.230  0.5021 -1.2910 -1.4526
   36CHL1  H23B 2651   2.874   0.588   8.219 -0.6777 -0.5713  0.6981
   36CHL1   C24 2652   2.965   0.575   8.419 -0.2588 -0.7339 -0.0881
   36CHL1  H24A 2653   2.913   0.670   8.445 -1.5332 -1.6410  0.8306
   36CHL1  H24B 2654   2.902   0.491   8.455 -0.4292 -1.9026 -2.8537
   36CHL1   C25 2655   3.102   0.584   8.475 -0.4763  0.0550 -0.5068
   36CHL1   H25 2656   3.171   0.512   8.425  1.6177  0.7477  1.2371
   36CHL1   C26 2657   3.170   0.722   8.462  0.1584  0.2622  0.0244
   36CHL1  H26A 2658   3.184   0.756   8.357 -0.1343  0.4572  0.0485
   36CHL1  H26B 2659   3.105   0.800   8.506 -0.7206  1.1420 -2.6127
   36CHL1  H26C 2660   3.266   0.719   8.517 -0.1057 -0.8726  0.4562
   36CHL1   C27 2661   3.094   0.542   8.624  0.5078 -0.2682  0.2493
   36CHL1  H27A 2662   3.196   0.543   8.669  0.8774 -1.8703 -0.4904
   36CHL1  H27B 2663   3.033   0.613   8.682  0.6043  1.3868 -1.5497
   36CHL1  H27C 2664   3.047   0.442   8.638  0.7076 -0.1795  1.7017
   37CHL1    C3 2665   0.165   2.294   7.115 -0.1215  0.8722  0.1998
   37CHL1    H3 2666   0.241   2.217   7.140  0.3350  1.7536  1.6581
   37CHL1    O3 2667   0.143   2.293   6.972 -0.9068 -0.4543  0.0017
   37CHL1   H3' 2668   0.090   2.369   6.949  0.5420  1.0159  1.2556
   37CHL1    C4 2669   0.029   2.251   7.180 -0.2402 -0.6476  0.1078
   37CHL1   H4A 2670  -0.055   2.317   7.151 -0.4280 -1.2749 -0.8171
   37CHL1   H4B 2671   0.015   2.150   7.135  3.0393 -1.1978  0.0139
   37CHL1    C5 2672   0.047   2.240   7.326 -0.4321  0.8037 -0.4776
   37CHL1    C6 2673   0.036   2.122   7.399  0.3620  0.1225 -0.4881
   37CHL1    H6 2674   0.032   2.023   7.352  0.3137 -0.2259  0.2387
   37CHL1    C7 2675   0.044   2.124   7.548 -0.2585  0.3796 -0.8491
   37CHL1   H7A 2676  -0.020   2.052   7.605  2.0020  1.2964  3.2782
   37CHL1   H7B 2677   0.151   2.106   7.572  0.0481 -0.9520 -2.9960
   37CHL1    C8 2678   0.017   2.260   7.616 -0.9871 -0.3557 -0.4633
   37CHL1    H8 2679  -0.088   2.295   7.608 -1.4777 -1.6608 -0.0585
   37CHL1   C14 2680   0.074   2.259   7.762  0.3081  1.0097 -0.2626
   37CHL1   H14 2681   0.183   2.236   7.756  0.6948  1.3269  3.2887
   37CHL1   C15 2682   0.014   2.150   7.855 -0.1561  0.0776  0.1089
   37CHL1  H15A 2683  -0.095   2.164   7.844 -0.0066  0.7494 -0.5847
   37CHL1  H15B 2684   0.044   2.045   7.832  0.1752  0.3790 -0.9112
   37CHL1   C16 2685   0.057   2.201   7.997  0.6629  0.5721 -0.1611
   37CHL1  H16A 2686  -0.036   2.210   8.057 -0.8253  2.4266 -2.5356
   37CHL1  H16B 2687   0.138   2.144   8.046  0.0391 -0.8322 -0.7123
   37CHL1   C17 2688   0.102   2.349   7.981 -0.1301 -0.1592  0.1065
   37CHL1   H17 2689   0.212   2.355   7.981  0.2753 -4.3087  1.0447
   37CHL1   C13 2690   0.059   2.391   7.840  0.1841  0.4125  0.2235
   37CHL1   C18 2691  -0.093   2.433   7.846  0.5355 -0.4865  0.3044
   37CHL1  H18A 2692  -0.147   2.360   7.909  0.2606 -0.6186 -0.0836
   37CHL1  H18B 2693  -0.100   2.534   7.892  0.8914 -0.6480  0.7252
   37CHL1  H18C 2694  -0.135   2.436   7.743 -1.5396 -1.7906  1.0559
   37CHL1   C12 2695   0.142   2.501   7.767  0.4135 -0.0613  0.0853
   37CHL1  H12A 2696   0.124   2.594   7.826 -1.8641 -0.7456  0.5695
   37CHL1  H12B 2697   0.248   2.482   7.793 -0.0393 -3.0550  0.0805
   37CHL1   C11 2698   0.112   2.506   7.614  0.6285  1.0207  0.2778
   37CHL1  H11A 2699   0.014   2.559   7.617  0.8355  1.3705  1.2707
   37CHL1  H11B 2700   0.183   2.569   7.556  1.2791 -0.1625 -0.2519
   37CHL1    C9 2701   0.106   2.366   7.543 -0.0504 -0.9095  0.2082
   37CHL1    H9 2702   0.209   2.324   7.546  0.0571 -0.7168 -0.5772
   37CHL1   C10 2703   0.080   2.381   7.394  0.5020  0.6510 -0.1485
   37CHL1   C19 2704  -0.040   2.478   7.369 -0.0053  0.3270  0.3983
   37CHL1  H19A 2705  -0.019   2.582   7.403  0.8549 -0.1920  1.4898
   37CHL1  H19B 2706  -0.055   2.487   7.259  1.0522 -2.0921 -0.0064
   37CHL1  H19C 2707  -0.137   2.442   7.410 -0.9784  0.5153 -1.5755
   37CHL1    C1 2708   0.203   2.436   7.315 -0.3317 -0.2606 -0.7362
   37CHL1   H1A 2709   0.228   2.538   7.350  1.6585 -0.8064 -0.4750
   37CHL1   H1B 2710   0.278   2.358   7.340 -1.4845 -1.2533 -0.1974
   37CHL1    C2 2711   0.203   2.437   7.163 -0.3543  0.0580 -0.4206
   37CHL1   H2A 2712   0.297   2.480   7.122 -1.6652  1.4852 -2.0734
   37CHL1   H2B 2713   0.124   2.506   7.127 -1.6156 -0.5813  1.0182
   37CHL1   C20 2714   0.060   2.431   8.101  0.2322  0.2253 -0.5859
   37CHL1   H20 2715  -0.050   2.445   8.098  0.4906  2.4686 -1.8670
   37CHL1   C21 2716   0.113   2.583   8.098 -0.2019 -0.0662  1.0997
   37CHL1  H21A 2717   0.100   2.639   8.193  1.1643  0.4517  1.0105
   37CHL1  H21B 2718   0.051   2.629   8.018  0.1598 -0.0916  0.8027
   37CHL1  H21C 2719   0.219   2.588   8.063 -0.6133  0.3140 -0.1452
   37CHL1   C22 2720   0.093   2.362   8.240 -0.1737 -0.1707  0.8556
   37CHL1  H22A 2721   0.040   2.265   8.239  0.8187 -0.7567 -1.3121
   37CHL1  H22B 2722   0.204   2.349   8.232 -0.0291  1.7616 -1.9324
   37CHL1   C23 2723   0.060   2.441   8.374 -0.1440 -0.3523  0.6423
   37CHL1  H23A 2724   0.132   2.526   8.372  0.3871 -0.7615  1.6293
   37CHL1  H23B 2725  -0.040   2.486   8.384  0.7354  2.7529 -2.5734
   37CHL1   C24 2726   0.080   2.352   8.496  0.1309 -0.2295 -0.4939
   37CHL1  H24A 2727   0.007   2.269   8.493 -1.0446  0.6952  1.2800
   37CHL1  H24B 2728   0.187   2.322   8.492  0.4467  0.8728 -0.8483
   37CHL1   C25 2729   0.052   2.424   8.629  0.2103 -0.2156  0.2642
   37CHL1   H25 2730   0.084   2.352   8.707  0.3408  1.6450  2.0047
   37CHL1   C26 2731   0.135   2.560   8.640 -0.6574  0.1841  0.1942
   37CHL1  H26A 2732   0.242   2.528   8.633 -1.0737 -1.6333  1.3868
   37CHL1  H26B 2733   0.107   2.631   8.559 -0.6380  1.0165  0.9080
   37CHL1  H26C 2734   0.131   2.616   8.735 -0.1776 -1.0393  0.9664
   37CHL1   C27 2735  -0.096   2.450   8.646  0.2515  0.0878  0.1072
   37CHL1  H27A 2736  -0.140   2.523   8.575 -0.7944 -0.5754  0.0552
   37CHL1  H27B 2737  -0.147   2.353   8.627  0.6803 -0.5324  1.9117
   37CHL1  H27C 2738  -0.122   2.493   8.745 -0.8801 -0.9865  0.3003
   38CHL1    C3 2739   3.390   2.358   6.746  0.1331  0.2154 -0.3729
   38CHL1    H3 2740   3.395   2.247   6.750  2.2804  0.1680 -2.3928
   38CHL1    O3 2741   3.339   2.383   6.621  0.4866 -0.0696 -0.0721
   38CHL1   H3' 2742   3.323   2.477   6.611  1.3635  0.2027  0.8752
   38CHL1    C4 2743   3.282   2.398   6.840  0.1093  0.4812  1.0862
   38CHL1   H4A 2744   3.247   2.502   6.822 -2.2342  0.5897  4.9062
   38CHL1   H4B 2745   3.196   2.328   6.829  0.1730  0.3036  1.6706
   38CHL1    C5 2746   3.322   2.401   6.988  0.1226 -0.4528 -0.8133
   38CHL1    C6 2747   3.260   2.341   7.095  0.6034 -0.2028  0.7612
   38CHL1    H6 2748   3.165   2.287   7.084 -0.7642  2.4112 -1.6768
   38CHL1    C7 2749   3.301   2.354   7.238 -0.0087 -0.3592  0.0965
   38CHL1   H7A 2750   3.215   2.389   7.299  1.0915  2.9601 -0.0642
   38CHL1   H7B 2751   3.333   2.261   7.289  0.5087 -0.1833  0.0930
   38CHL1    C8 2752   3.405   2.462   7.268  0.5495 -0.1292  0.7085
   38CHL1    H8 2753   3.352   2.559   7.254  1.4362  0.3491  0.6128
   38CHL1   C14 2754   3.461   2.460   7.401  0.7518  0.0618  0.0254
   38CHL1   H14 2755   3.504   2.358   7.404 -0.2704 -0.6598 -3.9157
   38CHL1   C15 2756   3.374   2.487   7.520 -0.2150  0.2343 -0.4157
   38CHL1  H15A 2757   3.297   2.567   7.508 -3.1591 -2.0698  1.4794
   38CHL1  H15B 2758   3.316   2.395   7.542  1.9401 -1.3816 -1.1920
   38CHL1   C16 2759   3.465   2.530   7.641 -0.1173 -0.1148 -0.2641
   38CHL1  H16A 2760   3.429   2.623   7.688 -0.7887 -0.1408 -0.7107
   38CHL1  H16B 2761   3.461   2.454   7.722  0.5299  0.0706 -0.0589
   38CHL1   C17 2762   3.607   2.540   7.581 -0.2080 -0.0987  0.8332
   38CHL1   H17 2763   3.656   2.441   7.596 -1.4498 -0.6828  1.1405
   38CHL1   C13 2764   3.575   2.562   7.430 -0.4772  0.7473 -0.8832
   38CHL1   C18 2765   3.531   2.702   7.407  0.4594 -0.1280  0.4275
   38CHL1  H18A 2766   3.607   2.781   7.427 -0.4307  0.8121  0.1804
   38CHL1  H18B 2767   3.493   2.724   7.305 -1.4282  2.6677  1.5732
   38CHL1  H18C 2768   3.448   2.730   7.476  0.1223 -1.4901  0.6100
   38CHL1   C12 2769   3.692   2.520   7.336  0.4521  0.4204  0.0427
   38CHL1  H12A 2770   3.780   2.587   7.341  0.8812 -0.2311  1.6566
   38CHL1  H12B 2771   3.731   2.417   7.353 -1.3748 -0.9682 -3.0919
   38CHL1   C11 2772   3.649   2.514   7.188 -0.1248 -0.4117 -0.3690
   38CHL1  H11A 2773   3.649   2.620   7.154 -1.2601 -0.3433 -0.1853
   38CHL1  H11B 2774   3.727   2.459   7.132  1.3216  0.4051  0.7581
   38CHL1    C9 2775   3.515   2.442   7.165  0.5649  0.0496  0.9737
   38CHL1    H9 2776   3.535   2.333   7.155  0.8982  0.2204 -0.4458
   38CHL1   C10 2777   3.464   2.472   7.016  1.1291  0.2870 -0.7792
   38CHL1   C19 2778   3.456   2.627   6.999  0.5843  0.7051 -0.1995
   38CHL1  H19A 2779   3.376   2.657   6.928 -2.9605 -0.6882  2.8489
   38CHL1  H19B 2780   3.416   2.680   7.089  0.4514 -1.4131  1.0585
   38CHL1  H19C 2781   3.559   2.657   6.974  0.9859 -1.1536 -0.9410
   38CHL1    C1 2782   3.558   2.418   6.912 -0.4742  0.2557 -0.0407
   38CHL1   H1A 2783   3.660   2.456   6.929 -1.0243  1.7490  0.0647
   38CHL1   H1B 2784   3.567   2.309   6.929  0.4642  0.3254 -0.0580
   38CHL1    C2 2785   3.512   2.438   6.766 -0.3726  0.7421 -0.2413
   38CHL1   H2A 2786   3.586   2.395   6.695 -1.1781  0.7167 -1.0749
   38CHL1   H2B 2787   3.502   2.545   6.738  1.1968  0.5077 -1.9391
   38CHL1   C20 2788   3.688   2.645   7.661 -0.3977  0.0452 -0.3923
   38CHL1   H20 2789   3.627   2.738   7.660 -0.2029  0.1796 -0.1120
   38CHL1   C21 2790   3.823   2.677   7.591 -0.0362 -0.3212 -0.4039
   38CHL1  H21A 2791   3.882   2.586   7.569 -2.2949 -1.7641 -0.8107
   38CHL1  H21B 2792   3.873   2.740   7.668  0.0079  0.3845 -0.9966
   38CHL1  H21C 2793   3.795   2.736   7.501 -1.1079 -1.9446 -1.1826
   38CHL1   C22 2794   3.709   2.616   7.807  0.7869 -0.1673  0.2631
   38CHL1  H22A 2795   3.754   2.706   7.854  2.8100  0.4725 -2.6325
   38CHL1  H22B 2796   3.603   2.601   7.839  0.2735  1.0931 -0.7429
   38CHL1   C23 2797   3.783   2.483   7.840  0.0323  0.2909  0.1162
   38CHL1  H23A 2798   3.743   2.396   7.784 -0.8279  0.6218  0.2087
   38CHL1  H23B 2799   3.892   2.492   7.818  0.6186 -1.5847  1.9016
   38CHL1   C24 2800   3.779   2.444   7.991 -0.0848  0.0838 -0.1466
   38CHL1  H24A 2801   3.673   2.423   8.019  0.6443  0.0787  2.9873
   38CHL1  H24B 2802   3.823   2.343   8.006  1.0232  0.3921 -1.1623
   38CHL1   C25 2803   3.843   2.542   8.099 -0.5246  0.2388 -0.0302
   38CHL1   H25 2804   3.781   2.632   8.120  1.4252  2.1823 -2.0584
   38CHL1   C26 2805   3.865   2.465   8.231 -0.5845  0.2372 -0.9912
   38CHL1  H26A 2806   3.936   2.532   8.282  1.0441 -0.7465 -1.8771
   38CHL1  H26B 2807   3.775   2.458   8.296 -0.7724  0.1674 -1.2561
   38CHL1  H26C 2808   3.908   2.364   8.210  1.7247  1.0403 -0.3453
   38CHL1   C27 2809   3.978   2.594   8.054  0.6929  0.6282  0.0037
   38CHL1  H27A 2810   3.970   2.663   7.968  0.3056  0.8797  0.2385
   38CHL1  H27B 2811   4.019   2.652   8.139 -0.2559  0.9126  0.2818
   38CHL1  H27C 2812   4.046   2.511   8.025  0.5304  0.6008 -0.3012
   39CHL1    C3 2813   3.335   1.709   7.071 -0.2031 -0.2472  0.5559
   39CHL1    H3 2814   3.246   1.769   7.101 -1.0088 -2.0121  1.8698
   39CHL1    O3 2815   3.329   1.676   6.934  0.4434 -0.5168  0.0279
   39CHL1   H3' 2816   3.335   1.581   6.929 -0.7779 -0.6519  0.7758
   39CHL1    C4 2817   3.459   1.784   7.096  0.2218 -0.2184  0.2250
   39CHL1   H4A 2818   3.542   1.717   7.063 -0.6488 -0.8492 -0.7284
   39CHL1   H4B 2819   3.463   1.864   7.019  0.4250 -0.3729  0.0743
   39CHL1    C5 2820   3.481   1.829   7.242 -0.2351 -0.0734  0.4154
   39CHL1    C6 2821   3.493   1.953   7.267  1.3665  0.1005 -0.7016
   39CHL1    H6 2822   3.495   2.028   7.187 -0.3137  1.7498  0.7054
   39CHL1    C7 2823   3.509   2.011   7.404  0.1117  0.1365 -0.4143
   39CHL1   H7A 2824   3.593   2.084   7.401  0.0904  0.1816  0.0848
   39CHL1   H7B 2825   3.423   2.073   7.436  2.0954  2.8041  0.0798
   39CHL1    C8 2826   3.549   1.901   7.509  0.0008 -0.2438 -0.4421
   39CHL1    H8 2827   3.656   1.874   7.503 -0.2917 -1.5496 -0.1454
   39CHL1   C14 2828   3.540   1.955   7.652  0.5319 -0.0909 -0.0645
   39CHL1   H14 2829   3.433   1.985   7.656  1.4277  3.3856  1.6307
   39CHL1   C15 2830   3.605   2.091   7.682  0.3312 -0.1005  0.2713
   39CHL1  H15A 2831   3.714   2.083   7.664  0.3092  0.7619 -0.2837
   39CHL1  H15B 2832   3.557   2.168   7.618 -1.1988 -1.7771 -0.6709
   39CHL1   C16 2833   3.583   2.104   7.832 -0.2124 -0.8349 -0.4215
   39CHL1  H16A 2834   3.669   2.148   7.887 -0.7834 -0.8169  0.4683
   39CHL1  H16B 2835   3.492   2.167   7.838 -1.7318 -2.7663 -1.7978
   39CHL1   C17 2836   3.544   1.965   7.889  0.1065  0.2566 -0.4756
   39CHL1   H17 2837   3.434   1.982   7.894 -0.0104 -0.3690 -0.7750
   39CHL1   C13 2838   3.563   1.870   7.770  0.3791 -0.0478  0.4052
   39CHL1   C18 2839   3.711   1.815   7.767  0.0762  0.1228  0.8475
   39CHL1  H18A 2840   3.720   1.763   7.669 -0.7179  0.6340  0.4938
   39CHL1  H18B 2841   3.781   1.901   7.764 -0.0966  0.2408 -0.2486
   39CHL1  H18C 2842   3.744   1.743   7.845  1.5718 -0.3884 -0.2050
   39CHL1   C12 2843   3.460   1.751   7.757 -0.4706  0.2123 -0.2177
   39CHL1  H12A 2844   3.466   1.674   7.837 -0.1462 -0.9352 -1.3292
   39CHL1  H12B 2845   3.358   1.795   7.768 -0.0124  1.4413 -0.6986
   39CHL1   C11 2846   3.469   1.677   7.614  0.5426  0.3769 -0.8109
   39CHL1  H11A 2847   3.551   1.603   7.624 -1.3506 -1.7625 -0.4784
   39CHL1  H11B 2848   3.376   1.616   7.613  0.0540  1.0633  0.3621
   39CHL1    C9 2849   3.460   1.775   7.490  0.0612  0.9934  0.1807
   39CHL1    H9 2850   3.355   1.812   7.499  0.0230  0.9569 -0.1097
   39CHL1   C10 2851   3.468   1.716   7.342 -0.4964 -0.4261  0.2185
   39CHL1   C19 2852   3.607   1.636   7.341 -0.7269  0.3412  0.4256
   39CHL1  H19A 2853   3.599   1.546   7.406  0.1427 -0.5841 -0.7048
   39CHL1  H19B 2854   3.601   1.598   7.236 -2.0581  2.8987 -0.5135
   39CHL1  H19C 2855   3.696   1.696   7.370  0.8837 -2.6391  2.1171
   39CHL1    C1 2856   3.344   1.625   7.309  0.0755  0.1473 -0.3289
   39CHL1   H1A 2857   3.359   1.530   7.365  0.8110 -0.6887 -1.8680
   39CHL1   H1B 2858   3.256   1.680   7.348  1.3931  1.7218  0.5845
   39CHL1    C2 2859   3.330   1.582   7.163  0.6041 -1.0766  0.1139
   39CHL1   H2A 2860   3.232   1.531   7.149  1.4138 -2.4886 -0.7185
   39CHL1   H2B 2861   3.413   1.514   7.134  0.6416 -1.1165  0.3209
   39CHL1   C20 2862   3.599   1.932   8.030 -0.4027 -0.2609 -1.0612
   39CHL1   H20 2863   3.710   1.923   8.037 -0.5832 -1.0558  2.3347
   39CHL1   C21 2864   3.546   1.799   8.087 -0.0198  0.4233  0.1443
   39CHL1  H21A 2865   3.577   1.780   8.192 -0.1704  0.8476  0.2670
   39CHL1  H21B 2866   3.594   1.714   8.033  1.3346  0.9485  0.5004
   39CHL1  H21C 2867   3.435   1.796   8.080 -0.0973  0.4043  1.2630
   39CHL1   C22 2868   3.565   2.040   8.140  0.3556 -0.1827 -0.3746
   39CHL1  H22A 2869   3.528   2.132   8.090 -0.4854 -1.1080 -1.5160
   39CHL1  H22B 2870   3.470   2.008   8.188 -0.2284 -0.3758 -1.6267
   39CHL1   C23 2871   3.659   2.059   8.261  0.1910 -0.2596  0.0752
   39CHL1  H23A 2872   3.692   1.955   8.285  0.8073  0.0208  0.4910
   39CHL1  H23B 2873   3.748   2.123   8.241 -1.2074  2.4196  1.8348
   39CHL1   C24 2874   3.595   2.108   8.396 -0.2986 -0.5523 -0.2205
   39CHL1  H24A 2875   3.577   2.218   8.393 -2.2178 -0.8614 -1.6118
   39CHL1  H24B 2876   3.501   2.050   8.409 -1.3427  1.3127  1.0027
   39CHL1   C25 2877   3.672   2.073   8.526 -0.1421  0.2413 -0.1817
   39CHL1   H25 2878   3.676   1.963   8.532 -2.0680  0.1323 -0.2213
   39CHL1   C26 2879   3.819   2.114   8.524  0.1709 -0.0002  0.0234
   39CHL1  H26A 2880   3.880   2.068   8.443  1.5604 -0.2625  1.1685
   39CHL1  H26B 2881   3.817   2.225   8.521 -3.9397  0.0520 -1.3581
   39CHL1  H26C 2882   3.874   2.086   8.617 -0.4678  1.9042  1.0153
   39CHL1   C27 2883   3.606   2.121   8.650 -0.7548 -0.4946 -0.0532
   39CHL1  H27A 2884   3.498   2.093   8.649 -0.2689 -2.5072 -1.0018
   39CHL1  H27B 2885   3.667   2.088   8.737  1.4317  2.3046 -0.3912
   39CHL1  H27C 2886   3.596   2.231   8.642 -1.2325 -0.5042  0.3676
   40CHL1    C3 2887   5.772   1.330   6.901  0.1649 -0.3587  0.1334
   40CHL1    H3 2888   5.675   1.277   6.889 -0.1224  0.6330 -2.6011
   40CHL1    O3 2889   5.817   1.347   6.770 -0.9472  0.0385 -0.0011
   40CHL1   H3' 2890   5.857   1.434   6.761 -2.6999  0.7722 -1.3148
   40CHL1    C4 2891   5.741   1.469   6.963  0.1972  0.2756 -1.0907
   40CHL1   H4A 2892   5.836   1.527   6.959  1.0930 -1.1139 -0.7643
   40CHL1   H4B 2893   5.674   1.528   6.898 -0.6294 -0.2983 -0.7697
   40CHL1    C5 2894   5.693   1.455   7.106 -0.2864  0.6132  0.2176
   40CHL1    C6 2895   5.578   1.506   7.147 -0.0755 -0.1513 -0.0664
   40CHL1    H6 2896   5.511   1.551   7.072 -0.0399 -1.6658 -1.0542
   40CHL1    C7 2897   5.528   1.508   7.292  0.0745 -0.7600 -0.1002
   40CHL1   H7A 2898   5.504   1.615   7.314 -0.4280 -1.2046  1.6174
   40CHL1   H7B 2899   5.442   1.439   7.289 -0.7761  0.1572  1.5098
   40CHL1    C8 2900   5.637   1.470   7.394 -0.0020 -0.1450 -0.0312
   40CHL1    H8 2901   5.708   1.552   7.415  0.2293  0.1019 -1.7039
   40CHL1   C14 2902   5.570   1.429   7.526  0.1961  0.3141 -0.0006
   40CHL1   H14 2903   5.514   1.336   7.498  0.9794 -0.1627 -0.0145
   40CHL1   C15 2904   5.463   1.524   7.582  0.2034  0.7220  0.0577
   40CHL1  H15A 2905   5.511   1.624   7.568  1.3568  0.0870 -0.6609
   40CHL1  H15B 2906   5.367   1.520   7.527  0.3035  0.4467 -0.0965
   40CHL1   C16 2907   5.443   1.478   7.727 -0.9117 -0.0869 -0.1628
   40CHL1  H16A 2908   5.441   1.566   7.794  0.4384 -0.2278  0.0860
   40CHL1  H16B 2909   5.350   1.418   7.744  0.5565 -2.0855  1.4228
   40CHL1   C17 2910   5.559   1.363   7.751 -0.1133 -0.0955  0.3959
   40CHL1   H17 2911   5.517   1.264   7.722  1.3987 -1.6243  3.0667
   40CHL1   C13 2912   5.663   1.388   7.635 -0.7305  0.6837 -0.2389
   40CHL1   C18 2913   5.759   1.502   7.677  0.5875  0.3418 -0.1717
   40CHL1  H18A 2914   5.799   1.545   7.583 -1.1893  0.8211 -0.7590
   40CHL1  H18B 2915   5.718   1.581   7.744  1.9870  0.3965  0.6407
   40CHL1  H18C 2916   5.855   1.465   7.718  0.0199  0.9769  1.8236
   40CHL1   C12 2917   5.743   1.272   7.577 -0.3586 -0.2617  0.3859
   40CHL1  H12A 2918   5.809   1.237   7.659 -0.6636  0.8675  1.1359
   40CHL1  H12B 2919   5.673   1.192   7.545  0.1371 -0.7639  0.5598
   40CHL1   C11 2920   5.823   1.305   7.455 -0.6621  0.0804  0.2137
   40CHL1  H11A 2921   5.893   1.387   7.480 -0.5569  0.4738 -1.3093
   40CHL1  H11B 2922   5.887   1.221   7.420 -0.3714  0.7043 -0.7783
   40CHL1    C9 2923   5.722   1.351   7.341  0.2729  0.5457  0.1961
   40CHL1    H9 2924   5.645   1.271   7.335 -0.4649  1.2176  0.6162
   40CHL1   C10 2925   5.789   1.378   7.204  0.0939  0.1746 -0.2405
   40CHL1   C19 2926   5.919   1.469   7.221  0.1089 -0.0926 -0.3047
   40CHL1  H19A 2927   5.959   1.506   7.124  2.3181 -1.5769 -0.0260
   40CHL1  H19B 2928   5.868   1.554   7.272 -2.1932 -1.5391 -0.0606
   40CHL1  H19C 2929   5.993   1.424   7.290 -1.1165  0.5419  1.5120
   40CHL1    C1 2930   5.822   1.241   7.137 -0.0255 -0.3219  0.3370
   40CHL1   H1A 2931   5.905   1.197   7.197  1.0213 -0.9600 -1.5013
   40CHL1   H1B 2932   5.729   1.181   7.142  1.6455 -3.0078  1.4692
   40CHL1    C2 2933   5.859   1.239   6.989 -0.2966  0.2711  0.0238
   40CHL1   H2A 2934   5.870   1.131   6.963 -0.1474 -0.7079  3.5698
   40CHL1   H2B 2935   5.962   1.278   6.979  1.6065 -4.3701 -1.3668
   40CHL1   C20 2936   5.607   1.363   7.899 -0.5298 -0.2686  0.5226
   40CHL1   H20 2937   5.632   1.467   7.932 -1.9998  0.4170 -0.4447
   40CHL1   C21 2938   5.733   1.263   7.921  1.1394 -0.3590  0.0523
   40CHL1  H21A 2939   5.821   1.303   7.866  1.4950 -1.7381 -0.4269
   40CHL1  H21B 2940   5.710   1.174   7.858 -4.2170  1.5178 -1.2415
   40CHL1  H21C 2941   5.743   1.244   8.030  1.0414  0.8518  0.2825
   40CHL1   C22 2942   5.489   1.330   8.001 -0.4591 -0.5087  0.4534
   40CHL1  H22A 2943   5.406   1.402   7.984 -0.3411 -0.1222  1.4211
   40CHL1  H22B 2944   5.456   1.228   7.972 -0.2739 -0.8498  1.3999
   40CHL1   C23 2945   5.520   1.359   8.150  0.4470 -0.2411  0.4114
   40CHL1  H23A 2946   5.600   1.287   8.177  0.1352 -0.7465  0.0158
   40CHL1  H23B 2947   5.576   1.454   8.162  2.1985 -1.4673  2.5706
   40CHL1   C24 2948   5.392   1.359   8.241 -0.2619 -0.0264  0.7917
   40CHL1  H24A 2949   5.403   1.403   8.342 -1.1913  0.8486  0.5218
   40CHL1  H24B 2950   5.320   1.429   8.194 -2.2367 -0.2719  3.2329
   40CHL1   C25 2951   5.334   1.215   8.259 -1.0845 -0.3682  0.0195
   40CHL1   H25 2952   5.350   1.159   8.164  1.7236  2.1761 -1.1804
   40CHL1   C26 2953   5.416   1.143   8.362  0.8928  0.2180  0.4265
   40CHL1  H26A 2954   5.436   1.200   8.455  2.2344 -0.5985  0.6640
   40CHL1  H26B 2955   5.369   1.045   8.386  1.9943 -0.5739 -0.5282
   40CHL1  H26C 2956   5.517   1.125   8.320  0.1476 -4.4990  0.1170
   40CHL1   C27 2957   5.183   1.225   8.283 -0.4604  0.2995 -0.1643
   40CHL1  H27A 2958   5.133   1.287   8.206 -0.0897  1.2735  0.3673
   40CHL1  H27B 2959   5.139   1.124   8.269  1.1409 -0.3200 -1.0642
   40CHL1  H27C 2960   5.186   1.257   8.389 -0.7762 -2.1381  0.6616
   41CHL1    C3 2961   0.191   1.360   6.861 -0.5389 -0.2267 -0.1125
   41CHL1    H3 2962   0.240   1.450   6.905 -1.2916 -0.0024  0.2754
   41CHL1    O3 2963   0.189   1.365   6.718 -0.0476 -0.1849  0.1220
   41CHL1   H3' 2964   0.098   1.391   6.699 -0.7254 -1.4306  1.5211
   41CHL1    C4 2965   0.256   1.230   6.906 -0.0764 -0.0721 -0.1526
   41CHL1   H4A 2966   0.210   1.145   6.852  0.2024 -0.3012 -0.0267
   41CHL1   H4B 2967   0.362   1.224   6.875 -0.5457  0.4947 -2.0237
   41CHL1    C5 2968   0.262   1.222   7.056 -1.7006 -0.1397 -0.2100
   41CHL1    C6 2969   0.376   1.201   7.124  0.1360  0.7129  0.4697
   41CHL1    H6 2970   0.465   1.183   7.061  0.4923 -1.6920  1.5375
   41CHL1    C7 2971   0.389   1.179   7.271 -0.5853  0.2358  0.3265
   41CHL1   H7A 2972   0.458   1.093   7.280 -2.1031 -0.8183  3.0325
   41CHL1   H7B 2973   0.437   1.274   7.304  0.0074  0.2439 -0.5236
   41CHL1    C8 2974   0.257   1.157   7.334 -0.0978  0.2093 -0.0234
   41CHL1    H8 2975   0.221   1.056   7.308 -3.0411  1.0917  0.2640
   41CHL1   C14 2976   0.279   1.168   7.485  0.0277  0.6951 -0.5163
   41CHL1   H14 2977   0.308   1.273   7.509  1.5617 -0.0845  1.2874
   41CHL1   C15 2978   0.384   1.087   7.553 -0.2005 -0.5351 -0.5479
   41CHL1  H15A 2979   0.379   0.983   7.513  2.2082 -1.5527  1.4980
   41CHL1  H15B 2980   0.483   1.138   7.544  0.7081 -1.2785  3.3295
   41CHL1   C16 2981   0.353   1.075   7.704  0.1122 -0.6868 -0.0321
   41CHL1  H16A 2982   0.355   0.969   7.737  1.2006 -0.6085  0.1989
   41CHL1  H16B 2983   0.428   1.133   7.762 -1.5062  1.5755 -0.0851
   41CHL1   C17 2984   0.211   1.148   7.713  0.1792  0.0371  0.2049
   41CHL1   H17 2985   0.234   1.255   7.732 -2.2340  0.6084  0.2713
   41CHL1   C13 2986   0.149   1.140   7.573  0.4981 -0.4522 -0.1414
   41CHL1   C18 2987   0.090   1.000   7.552  0.0962 -0.0924 -0.3710
   41CHL1  H18A 2988   0.072   1.003   7.442  0.9815  0.4680 -0.5177
   41CHL1  H18B 2989   0.154   0.915   7.583  0.6557  0.5196  0.1849
   41CHL1  H18C 2990  -0.005   0.990   7.609  0.8094  0.6765  1.0079
   41CHL1   C12 2991   0.054   1.253   7.528 -0.1557  0.3184 -0.2323
   41CHL1  H12A 2992  -0.043   1.243   7.582 -0.2651 -0.7952 -0.6196
   41CHL1  H12B 2993   0.097   1.352   7.556 -0.5322 -0.1789  2.3129
   41CHL1   C11 2994   0.023   1.251   7.378  0.0697 -0.1023  0.1248
   41CHL1  H11A 2995  -0.022   1.151   7.364  0.8272 -0.4191 -0.1557
   41CHL1  H11B 2996  -0.049   1.332   7.355  0.6183 -0.5018 -3.6305
   41CHL1    C9 2997   0.145   1.251   7.287 -0.1244  0.8535 -0.1647
   41CHL1    H9 2998   0.194   1.349   7.305  2.0498  0.0998 -1.5559
   41CHL1   C10 2999   0.126   1.236   7.133  0.8957 -0.1119 -0.4268
   41CHL1   C19 3000   0.041   1.112   7.100 -0.2791  0.3763 -1.1865
   41CHL1  H19A 3001   0.050   1.091   6.992  2.5209 -1.3454 -0.7135
   41CHL1  H19B 3002   0.091   1.023   7.143  0.7103  0.8463 -1.3299
   41CHL1  H19C 3003  -0.064   1.121   7.136 -0.2148 -1.2064 -0.5103
   41CHL1    C1 3004   0.052   1.361   7.073 -0.3135  0.2471  0.6937
   41CHL1   H1A 3005  -0.053   1.372   7.109 -0.5893  1.2046 -0.3680
   41CHL1   H1B 3006   0.108   1.452   7.101 -0.3979  0.4617  0.1753
   41CHL1    C2 3007   0.050   1.359   6.911  0.2717  0.3972 -0.5754
   41CHL1   H2A 3008  -0.004   1.448   6.872  0.7841 -0.2118 -2.7957
   41CHL1   H2B 3009   0.004   1.261   6.886  1.2395 -1.0583  2.7487
   41CHL1   C20 3010   0.146   1.097   7.844 -0.7556  0.2600  0.4046
   41CHL1   H20 3011   0.116   0.990   7.834  0.3636  0.0977 -1.8491
   41CHL1   C21 3012   0.025   1.198   7.865 -0.2182  0.4545  0.1718
   41CHL1  H21A 3013   0.064   1.297   7.834  0.1720  0.3312  0.2581
   41CHL1  H21B 3014  -0.010   1.210   7.970 -2.4086 -1.0876 -0.3050
   41CHL1  H21C 3015  -0.067   1.174   7.807  0.3819 -1.8112  0.0303
   41CHL1   C22 3016   0.249   1.097   7.959  0.1653  0.4074 -0.3310
   41CHL1  H22A 3017   0.320   1.012   7.950 -0.5258 -0.5140  2.1042
   41CHL1  H22B 3018   0.319   1.183   7.965 -1.2717  1.5483  0.4753
   41CHL1   C23 3019   0.184   1.097   8.103 -0.6845  0.5607  0.0866
   41CHL1  H23A 3020   0.125   1.188   8.124 -0.6287  0.6005  0.0720
   41CHL1  H23B 3021   0.110   1.014   8.103 -1.1300  0.9071  2.3537
   41CHL1   C24 3022   0.288   1.063   8.215  0.7517 -0.1861 -0.3937
   41CHL1  H24A 3023   0.312   0.955   8.216 -0.5819 -0.5033 -0.5538
   41CHL1  H24B 3024   0.391   1.100   8.198  0.1937  1.3080 -0.7019
   41CHL1   C25 3025   0.241   1.103   8.351  0.0893  0.7401 -0.4155
   41CHL1   H25 3026   0.195   1.204   8.345  1.2782  1.5306  2.0535
   41CHL1   C26 3027   0.146   0.999   8.408  0.5383  0.1356  0.1925
   41CHL1  H26A 3028   0.205   0.916   8.452 -0.7141 -1.2628 -0.6945
   41CHL1  H26B 3029   0.099   1.034   8.502  1.4192 -3.1826  2.0371
   41CHL1  H26C 3030   0.072   0.957   8.338 -0.1086 -0.1577  1.0366
   41CHL1   C27 3031   0.370   1.122   8.433  0.1047  0.3461 -0.0574
   41CHL1  H27A 3032   0.346   1.157   8.535 -0.4014  1.1958 -0.4569
   41CHL1  H27B 3033   0.412   1.019   8.427 -0.0547  0.3145 -0.6563
   41CHL1  H27C 3034   0.440   1.198   8.391 -2.0830  2.0392 -0.8699
   42CHL1    C3 3035   5.485   5.714   6.942 -0.4813  0.1066 -0.3948
   42CHL1    H3 3036   5.431   5.616   6.942 -1.8903  0.8569 -0.3336
   42CHL1    O3 3037   5.513   5.754   6.809  0.6649 -0.6261  0.3738
   42CHL1   H3' 3038   5.431   5.734   6.763 -1.1206  2.0166  2.1288
   42CHL1    C4 3039   5.387   5.822   7.000  0.3449 -0.0285  0.4766
   42CHL1   H4A 3040   5.424   5.925   6.979 -1.4910  0.6053  0.1834
   42CHL1   H4B 3041   5.291   5.804   6.948  0.4681 -0.1675  0.2980
   42CHL1    C5 3042   5.361   5.815   7.151  0.4835  0.6393  0.0448
   42CHL1    C6 3043   5.238   5.815   7.200 -0.2022 -0.1168  0.1847
   42CHL1    H6 3044   5.151   5.836   7.136 -0.2355  0.9206  0.5507
   42CHL1    C7 3045   5.218   5.811   7.350  0.4617 -0.1153 -0.9025
   42CHL1   H7A 3046   5.144   5.883   7.391  0.9518 -0.8817  1.5118
   42CHL1   H7B 3047   5.183   5.708   7.373  0.5579 -0.1278 -0.8116
   42CHL1    C8 3048   5.342   5.841   7.439 -0.4571  0.0590 -0.3537
   42CHL1    H8 3049   5.352   5.952   7.441 -1.5787  0.1830  2.0551
   42CHL1   C14 3050   5.321   5.795   7.583  0.0662 -0.0668 -0.3848
   42CHL1   H14 3051   5.309   5.684   7.578 -0.7507 -0.1228  1.5843
   42CHL1   C15 3052   5.192   5.835   7.662 -0.2592 -0.3323  0.0000
   42CHL1  H15A 3053   5.165   5.941   7.638 -0.7976 -0.1434  1.3428
   42CHL1  H15B 3054   5.103   5.774   7.639 -1.4340  0.7043  1.5871
   42CHL1   C16 3055   5.235   5.848   7.811 -0.1340 -0.3710 -0.7143
   42CHL1  H16A 3056   5.250   5.955   7.837 -0.5423 -0.6927  0.9738
   42CHL1  H16B 3057   5.170   5.794   7.883 -0.8344  0.6458 -0.5676
   42CHL1   C17 3058   5.378   5.786   7.813 -0.2370  0.3591  0.5448
   42CHL1   H17 3059   5.368   5.675   7.814 -2.1673  0.4416 -1.0841
   42CHL1   C13 3060   5.438   5.816   7.676 -0.6334  0.4089 -0.1527
   42CHL1   C18 3061   5.488   5.968   7.689 -0.0519  0.2160 -0.1497
   42CHL1  H18A 3062   5.506   6.001   7.585  0.8272 -1.5840 -0.6072
   42CHL1  H18B 3063   5.414   6.039   7.732 -1.0433 -0.5888 -0.4662
   42CHL1  H18C 3064   5.584   5.966   7.744 -1.2512 -0.8272  2.0564
   42CHL1   C12 3065   5.547   5.715   7.627  0.0492  0.4396  0.2319
   42CHL1  H12A 3066   5.648   5.725   7.672  0.0420 -1.1795  0.6797
   42CHL1  H12B 3067   5.516   5.608   7.633 -1.9467  1.0765  3.1998
   42CHL1   C11 3068   5.584   5.750   7.477  0.3812 -1.1860 -0.2997
   42CHL1  H11A 3069   5.638   5.847   7.475 -0.5376 -0.6817 -1.3123
   42CHL1  H11B 3070   5.667   5.678   7.458  1.7199 -0.3611  1.9348
   42CHL1    C9 3071   5.461   5.762   7.382  0.4785  0.4799 -0.9369
   42CHL1    H9 3072   5.424   5.658   7.376  0.7763  0.1341  1.9278
   42CHL1   C10 3073   5.488   5.804   7.232 -0.5210  0.8255 -0.0657
   42CHL1   C19 3074   5.566   5.940   7.238  0.1151  0.4925 -0.4812
   42CHL1  H19A 3075   5.522   6.021   7.299  0.5636  0.9640 -0.7806
   42CHL1  H19B 3076   5.669   5.927   7.279 -1.2318 -1.9794  2.4678
   42CHL1  H19C 3077   5.566   5.985   7.136 -0.1848 -0.9418 -1.1454
   42CHL1    C1 3078   5.576   5.697   7.166 -0.6915  0.4984 -0.0866
   42CHL1   H1A 3079   5.668   5.685   7.228 -0.3431  1.2023 -0.4634
   42CHL1   H1B 3080   5.534   5.594   7.171  2.8353 -1.0186  1.6606
   42CHL1    C2 3081   5.612   5.733   7.028  0.2690 -0.3033 -0.0815
   42CHL1   H2A 3082   5.684   5.656   6.992  2.0028  0.8084  0.8269
   42CHL1   H2B 3083   5.648   5.838   7.018 -2.3169  0.8123  1.4770
   42CHL1   C20 3084   5.444   5.834   7.939 -0.1477 -0.2754 -0.8326
   42CHL1   H20 3085   5.459   5.944   7.943  2.3162 -0.6197  1.2041
   42CHL1   C21 3086   5.581   5.771   7.950  0.1297  0.7681  0.0150
   42CHL1  H21A 3087   5.641   5.810   8.035  2.1064 -1.5135 -0.2141
   42CHL1  H21B 3088   5.631   5.792   7.853  1.2683 -0.4337  0.3095
   42CHL1  H21C 3089   5.561   5.663   7.968  0.4115  0.0450 -3.4060
   42CHL1   C22 3090   5.364   5.801   8.072 -0.4314 -0.6381 -0.2677
   42CHL1  H22A 3091   5.422   5.816   8.165  1.1230 -0.4847 -1.2360
   42CHL1  H22B 3092   5.278   5.872   8.062  0.4485  0.2488 -1.8458
   42CHL1   C23 3093   5.314   5.654   8.076 -0.8187  0.0038  0.0666
   42CHL1  H23A 3094   5.251   5.630   7.987 -1.5695  1.6657  0.1092
   42CHL1  H23B 3095   5.395   5.579   8.087 -1.7513 -0.9370  0.8836
   42CHL1   C24 3096   5.219   5.631   8.202 -0.5405  0.3242  0.2052
   42CHL1  H24A 3097   5.118   5.674   8.186 -1.3862 -1.6783 -0.1381
   42CHL1  H24B 3098   5.184   5.527   8.222 -3.5040  0.3657 -3.5230
   42CHL1   C25 3099   5.265   5.675   8.344 -0.2157 -0.6671 -0.5078
   42CHL1   H25 3100   5.296   5.781   8.342  2.7869 -1.4406 -0.3575
   42CHL1   C26 3101   5.142   5.658   8.434 -0.0040 -0.4470 -0.3364
   42CHL1  H26A 3102   5.096   5.558   8.419  0.2637 -0.6351  0.0778
   42CHL1  H26B 3103   5.162   5.650   8.543  1.8353 -1.0963 -0.6808
   42CHL1  H26C 3104   5.066   5.734   8.409 -1.8041 -1.4822  1.6562
   42CHL1   C27 3105   5.390   5.598   8.392  0.5095 -0.1489  0.6700
   42CHL1  H27A 3106   5.477   5.609   8.323  0.5674  0.2508  0.8059
   42CHL1  H27B 3107   5.344   5.497   8.382 -0.8649  0.4651  0.5744
   42CHL1  H27C 3108   5.424   5.628   8.493  1.6089 -0.0154  0.2787
   43CHL1    C3 3109   0.661   2.020   6.907 -0.3737 -0.7212  0.0576
   43CHL1    H3 3110   0.671   2.130   6.903  4.3307 -0.9918 -2.2170
   43CHL1    O3 3111   0.678   1.966   6.780 -0.4241  0.3596  0.7227
   43CHL1   H3' 3112   0.602   1.913   6.756  0.2099 -0.2206 -0.1152
   43CHL1    C4 3113   0.773   1.968   6.998 -0.0284 -0.2948  0.3091
   43CHL1   H4A 3114   0.758   1.859   6.990 -1.3578 -0.2406  1.6522
   43CHL1   H4B 3115   0.873   2.000   6.962  0.5709 -1.5714  0.7956
   43CHL1    C5 3116   0.766   1.995   7.145 -0.1874  0.0868  0.5557
   43CHL1    C6 3117   0.868   2.049   7.214 -0.0113  0.0990 -0.5530
   43CHL1    H6 3118   0.965   2.066   7.166 -1.1112  3.9824 -1.8640
   43CHL1    C7 3119   0.861   2.088   7.360  0.1670 -0.0156  0.8303
   43CHL1   H7A 3120   0.951   2.067   7.422  0.3463 -0.2206  0.5039
   43CHL1   H7B 3121   0.851   2.198   7.372  0.8807  0.2036 -0.4379
   43CHL1    C8 3122   0.735   2.025   7.423  0.1303 -0.0463 -0.2986
   43CHL1    H8 3123   0.763   1.918   7.436  0.1557  0.1652  1.8040
   43CHL1   C14 3124   0.709   2.089   7.569  0.0307 -0.4322 -0.1214
   43CHL1   H14 3125   0.687   2.196   7.553 -1.5717 -0.6230  0.6810
   43CHL1   C15 3126   0.837   2.087   7.663  0.2956  0.6698 -0.2366
   43CHL1  H15A 3127   0.882   1.986   7.649 -0.5906  0.2797 -0.3191
   43CHL1  H15B 3128   0.926   2.149   7.639  1.1158 -0.1663  0.5163
   43CHL1   C16 3129   0.773   2.104   7.798  0.4103 -0.1181 -0.0697
   43CHL1  H16A 3130   0.817   2.024   7.861  1.0344 -2.2580 -2.9879
   43CHL1  H16B 3131   0.799   2.204   7.838  1.6217  1.0556 -3.4341
   43CHL1   C17 3132   0.615   2.098   7.783 -0.8453  0.4897 -0.3974
   43CHL1   H17 3133   0.572   2.199   7.770 -2.3350  0.1351  1.2781
   43CHL1   C13 3134   0.593   2.036   7.646 -0.2120  0.1090  0.3839
   43CHL1   C18 3135   0.600   1.884   7.666 -0.2491 -0.0157 -0.0940
   43CHL1  H18A 3136   0.527   1.845   7.739 -0.8850  1.9819  0.4038
   43CHL1  H18B 3137   0.591   1.834   7.567  1.2595  0.1189 -0.3360
   43CHL1  H18C 3138   0.701   1.860   7.707 -0.5564  0.4841  0.9723
   43CHL1   C12 3139   0.468   2.075   7.566 -0.5169  0.5069 -0.6767
   43CHL1  H12A 3140   0.374   2.042   7.616  0.3878 -0.1106  0.6924
   43CHL1  H12B 3141   0.475   2.186   7.570 -0.3082  0.4689  0.5243
   43CHL1   C11 3142   0.475   2.007   7.426  0.1453 -0.9795 -0.0181
   43CHL1  H11A 3143   0.461   1.897   7.422 -0.9904 -0.9077  1.3634
   43CHL1  H11B 3144   0.387   2.043   7.369 -0.4906 -0.3920  1.2905
   43CHL1    C9 3145   0.606   2.045   7.345 -0.3812 -0.7715 -0.3116
   43CHL1    H9 3146   0.584   2.153   7.330 -0.6688 -0.6015  1.2400
   43CHL1   C10 3147   0.617   1.984   7.197 -0.4379 -0.6964  0.8849
   43CHL1   C19 3148   0.593   1.833   7.218  0.3038 -0.6957  0.4300
   43CHL1  H19A 3149   0.660   1.782   7.291  0.3379 -0.8020  0.3253
   43CHL1  H19B 3150   0.486   1.819   7.243  0.2312  1.0129  1.2153
   43CHL1  H19C 3151   0.608   1.778   7.122 -1.0328  0.3310 -0.4072
   43CHL1    C1 3152   0.506   2.039   7.108  0.1107 -0.1696 -0.1843
   43CHL1   H1A 3153   0.410   1.998   7.143  0.9712 -2.3182 -0.1852
   43CHL1   H1B 3154   0.513   2.150   7.107 -0.4012 -0.1366 -1.0860
   43CHL1    C2 3155   0.524   1.994   6.963 -0.4063  0.2869  0.1171
   43CHL1   H2A 3156   0.437   2.020   6.899  0.9703  0.4667 -1.7868
   43CHL1   H2B 3157   0.525   1.883   6.958  1.1602  0.2640  0.4785
   43CHL1   C20 3158   0.529   2.062   7.907  0.0182  0.8795 -0.6516
   43CHL1   H20 3159   0.526   1.952   7.923  1.8853  1.1088  1.9848
   43CHL1   C21 3160   0.388   2.120   7.910 -0.2544 -0.0292  0.2013
   43CHL1  H21A 3161   0.350   2.110   7.806  0.0253 -0.5839  0.1467
   43CHL1  H21B 3162   0.380   2.225   7.946 -1.4094  0.0873 -0.3397
   43CHL1  H21C 3163   0.317   2.064   7.973 -0.4307 -2.9229 -2.3090
   43CHL1   C22 3164   0.603   2.096   8.043  0.1679  1.0372  0.2274
   43CHL1  H22A 3165   0.692   2.033   8.064  0.1825  1.5978  2.0592
   43CHL1  H22B 3166   0.626   2.205   8.043 -2.5644  1.6784  0.1184
   43CHL1   C23 3167   0.509   2.071   8.163 -0.1517  0.2965 -0.3879
   43CHL1  H23A 3168   0.421   2.138   8.152  1.4543  2.1670 -3.2292
   43CHL1  H23B 3169   0.468   1.969   8.172 -2.0684  1.0868  0.5796
   43CHL1   C24 3170   0.574   2.100   8.291 -0.0850 -0.3433  0.0551
   43CHL1  H24A 3171   0.675   2.052   8.288  1.2179  2.2444 -0.1808
   43CHL1  H24B 3172   0.597   2.208   8.300 -0.0032 -0.3538 -0.0269
   43CHL1   C25 3173   0.506   2.035   8.417  0.0892 -0.7139  0.1680
   43CHL1   H25 3174   0.495   1.926   8.399  2.1474 -0.6674 -1.7041
   43CHL1   C26 3175   0.589   2.064   8.539 -0.0797  0.2493 -0.1686
   43CHL1  H26A 3176   0.690   2.022   8.520 -0.4404 -0.6656 -0.1281
   43CHL1  H26B 3177   0.597   2.175   8.537 -1.6283  0.3887 -2.4647
   43CHL1  H26C 3178   0.539   2.021   8.629 -0.4249 -2.2492 -1.4747
   43CHL1   C27 3179   0.373   2.113   8.444 -1.0371 -0.8838  0.1804
   43CHL1  H27A 3180   0.394   2.219   8.472  1.5054 -1.3112  0.1481
   43CHL1  H27B 3181   0.307   2.124   8.356 -2.3265  1.1436  1.3089
   43CHL1  H27C 3182   0.326   2.075   8.537  1.1484  0.1538  1.8332
   44CHL1    C3 3183   0.844   0.724   6.650 -0.5278 -0.2827  0.5487
   44CHL1    H3 3184   0.923   0.651   6.678  2.4390  2.7322  0.6380
   44CHL1    O3 3185   0.813   0.725   6.505  0.3129 -0.2200  0.0614
   44CHL1   H3' 3186   0.796   0.634   6.480  1.6894  0.1046 -2.4003
   44CHL1    C4 3187   0.714   0.693   6.738 -0.2001  0.5393  0.1053
   44CHL1   H4A 3188   0.649   0.774   6.699  1.1441  1.2539 -0.7149
   44CHL1   H4B 3189   0.669   0.596   6.707 -2.5945  1.2749  1.0491
   44CHL1    C5 3190   0.738   0.707   6.890 -0.4211 -0.1493  0.4988
   44CHL1    C6 3191   0.694   0.615   6.970  0.3459  0.3725  0.9509
   44CHL1    H6 3192   0.642   0.525   6.932 -0.7136  1.4190 -0.1548
   44CHL1    C7 3193   0.715   0.621   7.119  0.5616  0.0849  0.6002
   44CHL1   H7A 3194   0.624   0.579   7.168 -0.7132  1.1342 -0.7630
   44CHL1   H7B 3195   0.805   0.560   7.142  1.6614  1.7251  0.7788
   44CHL1    C8 3196   0.742   0.766   7.164  0.0384  0.1006 -0.1462
   44CHL1    H8 3197   0.647   0.822   7.150  0.2020  0.0603 -1.5146
   44CHL1   C14 3198   0.775   0.767   7.316  0.0278 -0.2649 -0.2793
   44CHL1   H14 3199   0.873   0.715   7.316 -1.0019 -2.3858 -1.8724
   44CHL1   C15 3200   0.694   0.694   7.416  0.1943  0.1480  0.6212
   44CHL1  H15A 3201   0.590   0.721   7.387  0.2007 -1.1210 -0.6998
   44CHL1  H15B 3202   0.694   0.584   7.399 -0.7830  0.6336 -3.3096
   44CHL1   C16 3203   0.729   0.753   7.557 -0.3616 -0.4362 -0.2917
   44CHL1  H16A 3204   0.637   0.800   7.598 -0.5618 -0.7162 -0.4200
   44CHL1  H16B 3205   0.771   0.672   7.620  0.8390 -1.9780 -2.9135
   44CHL1   C17 3206   0.828   0.864   7.529 -0.0408 -1.3124  0.7199
   44CHL1   H17 3207   0.936   0.839   7.521  0.8263  2.2855 -0.5080
   44CHL1   C13 3208   0.799   0.903   7.378 -0.4550 -0.0248 -0.0001
   44CHL1   C18 3209   0.672   0.994   7.363  0.6486  0.8723 -0.0784
   44CHL1  H18A 3210   0.696   1.090   7.413  0.8819  2.3319 -2.7921
   44CHL1  H18B 3211   0.647   1.027   7.260 -1.0319  0.9271  0.3285
   44CHL1  H18C 3212   0.586   0.943   7.412  0.8079  1.1320  0.4816
   44CHL1   C12 3213   0.912   0.968   7.290  0.0848 -0.1883 -0.1088
   44CHL1  H12A 3214   0.924   1.075   7.316 -2.2791  0.2271 -0.4324
   44CHL1  H12B 3215   1.010   0.923   7.316  0.7604  0.4140 -1.5379
   44CHL1   C11 3216   0.896   0.961   7.145  0.4596 -0.3792  0.9131
   44CHL1  H11A 3217   0.821   1.037   7.114  1.0400 -0.0106  0.3838
   44CHL1  H11B 3218   0.983   0.990   7.082 -0.9711  1.8233 -0.1889
   44CHL1    C9 3219   0.853   0.831   7.082  0.0145 -0.0581  0.8734
   44CHL1    H9 3220   0.948   0.774   7.086 -0.0681 -0.2009  0.8021
   44CHL1   C10 3221   0.817   0.837   6.926 -0.0320 -0.1279 -0.8787
   44CHL1   C19 3222   0.719   0.955   6.899 -0.3250 -0.0957 -0.4319
   44CHL1  H19A 3223   0.770   1.052   6.916  2.4405 -1.6828  0.8381
   44CHL1  H19B 3224   0.670   0.948   6.799 -0.2916 -1.9693 -0.3582
   44CHL1  H19C 3225   0.634   0.951   6.970  0.9543 -0.5216  1.1236
   44CHL1    C1 3226   0.942   0.861   6.841  0.0344 -0.2924  0.1161
   44CHL1   H1A 3227   0.989   0.960   6.861 -1.2217  0.3016  0.2670
   44CHL1   H1B 3228   1.013   0.780   6.866  0.8336 -0.2000 -1.7051
   44CHL1    C2 3229   0.909   0.857   6.695  0.2955 -0.0045  0.0210
   44CHL1   H2A 3230   0.995   0.884   6.629  0.4827  2.8368  1.2702
   44CHL1   H2B 3231   0.853   0.949   6.667  0.8328  0.5066  0.5824
   44CHL1   C20 3232   0.812   0.975   7.636  0.9820  0.4588  0.3465
   44CHL1   H20 3233   0.708   1.015   7.637  1.0006  0.4992  1.1646
   44CHL1   C21 3234   0.893   1.101   7.611  0.6471  0.3258  0.3254
   44CHL1  H21A 3235   0.893   1.181   7.688  0.8768  0.3061  0.3441
   44CHL1  H21B 3236   0.864   1.143   7.512  2.5112 -1.1910 -0.9295
   44CHL1  H21C 3237   0.999   1.078   7.588  0.5131 -0.4105  0.4135
   44CHL1   C22 3238   0.839   0.925   7.783  0.2167  0.3108  0.2618
   44CHL1  H22A 3239   0.799   0.822   7.795  1.0658 -0.0710 -0.1103
   44CHL1  H22B 3240   0.950   0.927   7.795  0.5279  0.9117 -2.2110
   44CHL1   C23 3241   0.763   1.001   7.893  0.4106 -0.8102 -0.0044
   44CHL1  H23A 3242   0.779   1.110   7.877  0.1548 -0.8436 -0.5199
   44CHL1  H23B 3243   0.653   0.991   7.881  0.4929 -2.7466  0.6320
   44CHL1   C24 3244   0.794   0.957   8.038 -0.1692 -0.6482  0.4945
   44CHL1  H24A 3245   0.803   0.847   8.049 -0.1821 -0.8212 -0.9974
   44CHL1  H24B 3246   0.892   1.004   8.060 -1.2561  2.0760 -0.0450
   44CHL1   C25 3247   0.704   1.025   8.146  0.2701  0.6878 -0.0315
   44CHL1   H25 3248   0.602   0.983   8.127  1.3065 -1.3630 -1.4132
   44CHL1   C26 3249   0.744   0.980   8.291 -0.5232 -0.2567  0.1110
   44CHL1  H26A 3250   0.849   1.011   8.307 -0.8835  0.9605  0.2006
   44CHL1  H26B 3251   0.692   1.012   8.383  1.0571 -0.9010  1.2809
   44CHL1  H26C 3252   0.747   0.870   8.276  0.5314 -0.2127 -0.0703
   44CHL1   C27 3253   0.702   1.178   8.142 -0.5054 -0.1152  0.4877
   44CHL1  H27A 3254   0.809   1.208   8.137 -0.8209  1.7918  2.9422
   44CHL1  H27B 3255   0.659   1.216   8.047 -0.1114  0.0880  0.3900
   44CHL1  H27C 3256   0.649   1.225   8.228  0.7499 -0.6220  1.5760
   45CHL1    C3 3257   1.046   6.313   7.006  0.2834  0.3881 -0.3362
   45CHL1    H3 3258   1.078   6.418   7.016 -2.3722  1.2067  0.3105
   45CHL1    O3 3259   1.010   6.297   6.873  0.3032  0.4935  0.4446
   45CHL1   H3' 3260   0.996   6.202   6.872  1.0399  0.3863 -1.0639
   45CHL1    C4 3261   1.163   6.220   7.039 -0.1413 -0.1944  0.4239
   45CHL1   H4A 3262   1.129   6.116   7.022  1.2475 -0.7447  0.8411
   45CHL1   H4B 3263   1.247   6.240   6.969 -2.5741 -0.5178 -2.8201
   45CHL1    C5 3264   1.208   6.228   7.186 -0.1024 -0.8192 -0.5203
   45CHL1    C6 3265   1.333   6.251   7.228 -0.1977 -0.3467  0.1352
   45CHL1    H6 3266   1.413   6.260   7.153  0.0630 -1.0909  0.3207
   45CHL1    C7 3267   1.380   6.246   7.373 -0.3755 -0.4825 -0.1472
   45CHL1   H7A 3268   1.469   6.181   7.369  2.0089  2.6371 -1.6235
   45CHL1   H7B 3269   1.425   6.346   7.393  1.4074 -1.3680  0.4333
   45CHL1    C8 3270   1.269   6.211   7.482 -0.5701 -0.1383  0.5033
   45CHL1    H8 3271   1.267   6.100   7.487  0.2492 -0.3963 -2.8412
   45CHL1   C14 3272   1.302   6.277   7.618  0.0184 -0.1413 -0.3784
   45CHL1   H14 3273   1.284   6.386   7.604 -2.6500 -0.3111  0.9317
   45CHL1   C15 3274   1.445   6.264   7.685  0.2640  0.1680  0.2685
   45CHL1  H15A 3275   1.472   6.156   7.679 -2.9163 -0.6934 -0.2687
   45CHL1  H15B 3276   1.520   6.323   7.629 -0.4347  0.0031 -0.8624
   45CHL1   C16 3277   1.419   6.299   7.832 -0.4616  0.5774  0.2097
   45CHL1  H16A 3278   1.460   6.223   7.902 -2.1501 -1.5037 -0.9315
   45CHL1  H16B 3279   1.466   6.398   7.852 -1.5405  1.6197 -2.0321
   45CHL1   C17 3280   1.266   6.315   7.847 -0.8997 -0.1649 -0.0428
   45CHL1   H17 3281   1.259   6.426   7.833  1.2162  0.1709  1.1569
   45CHL1   C13 3282   1.196   6.243   7.728 -0.5707  0.3259  0.1447
   45CHL1   C18 3283   1.194   6.092   7.753 -0.2824  0.1140 -0.0617
   45CHL1  H18A 3284   1.154   6.069   7.854  1.1492 -2.9857 -0.0989
   45CHL1  H18B 3285   1.139   6.035   7.675  1.8206  0.1361 -1.6500
   45CHL1  H18C 3286   1.295   6.046   7.762 -1.4293 -3.1079 -1.8508
   45CHL1   C12 3287   1.069   6.301   7.675  0.1606  0.4352 -0.4081
   45CHL1  H12A 3288   0.980   6.283   7.740 -0.3116  3.2151 -0.1238
   45CHL1  H12B 3289   1.070   6.411   7.660  0.5465  0.4966  0.0400
   45CHL1   C11 3290   1.030   6.247   7.542  0.4797  0.1619 -0.6670
   45CHL1  H11A 3291   0.994   6.142   7.548 -0.5422  0.5316  0.0725
   45CHL1  H11B 3292   0.944   6.307   7.505  1.3665  2.2047  0.3815
   45CHL1    C9 3293   1.137   6.261   7.430 -0.3040  0.4357  0.4503
   45CHL1    H9 3294   1.152   6.371   7.425 -1.9176  0.6405 -1.7290
   45CHL1   C10 3295   1.094   6.216   7.284 -0.0105 -0.5989 -0.8725
   45CHL1   C19 3296   1.051   6.068   7.295  0.6217  0.1043  0.4456
   45CHL1  H19A 3297   1.124   5.994   7.334 -1.3847 -0.6557  3.0667
   45CHL1  H19B 3298   0.961   6.050   7.358 -0.6053  1.8897 -0.7347
   45CHL1  H19C 3299   1.014   6.034   7.196 -0.7537 -0.9889  1.2970
   45CHL1    C1 3300   0.966   6.292   7.246  0.1606  0.0528  0.9957
   45CHL1   H1A 3301   0.873   6.258   7.295 -0.3048  0.3505  0.3297
   45CHL1   H1B 3302   0.989   6.397   7.271  0.0794  0.3356 -0.0699
   45CHL1    C2 3303   0.929   6.276   7.098 -0.5828  0.1891  0.1929
   45CHL1   H2A 3304   0.844   6.345   7.077  0.5071  2.0497  1.6075
   45CHL1   H2B 3305   0.898   6.172   7.075  1.8027 -0.4017 -0.5514
   45CHL1   C20 3306   1.217   6.279   7.990  0.1700  0.4570 -0.6992
   45CHL1   H20 3307   1.241   6.173   8.014 -1.8718 -0.1939 -1.3307
   45CHL1   C21 3308   1.068   6.282   8.007  0.0600  0.6040 -0.0847
   45CHL1  H21A 3309   1.027   6.385   7.997  0.6798  0.9388  0.7792
   45CHL1  H21B 3310   1.057   6.236   8.107  2.8454 -0.0604 -0.0011
   45CHL1  H21C 3311   1.010   6.225   7.931  0.6709 -1.3148  0.8417
   45CHL1   C22 3312   1.289   6.367   8.099  0.4527 -0.1836  0.1942
   45CHL1  H22A 3313   1.397   6.392   8.086  0.0227  2.0438  0.5476
   45CHL1  H22B 3314   1.236   6.465   8.093 -0.9356 -0.9473 -0.3894
   45CHL1   C23 3315   1.282   6.306   8.245  0.7695 -0.5764  0.2301
   45CHL1  H23A 3316   1.308   6.380   8.324 -0.0377 -0.0442  0.0108
   45CHL1  H23B 3317   1.182   6.267   8.274  0.9312 -0.6175  0.7304
   45CHL1   C24 3318   1.373   6.184   8.258 -0.2501 -0.6955 -0.4152
   45CHL1  H24A 3319   1.342   6.103   8.188 -1.8370  1.3113 -2.1766
   45CHL1  H24B 3320   1.477   6.218   8.241 -0.5965  0.1529 -0.8941
   45CHL1   C25 3321   1.365   6.137   8.406  0.5460 -0.6711  0.5889
   45CHL1   H25 3322   1.369   6.224   8.475  0.5437  0.5893 -0.9410
   45CHL1   C26 3323   1.238   6.056   8.432  0.2074 -0.3123  0.8854
   45CHL1  H26A 3324   1.224   6.033   8.539 -0.4061 -0.7491  0.7118
   45CHL1  H26B 3325   1.147   6.118   8.425  2.7886  3.8279  0.4366
   45CHL1  H26C 3326   1.238   5.956   8.383 -0.4002 -0.5207  1.3061
   45CHL1   C27 3327   1.493   6.050   8.429 -0.0252  0.1944  0.7963
   45CHL1  H27A 3328   1.576   6.123   8.439  0.3884 -0.5393  3.6198
   45CHL1  H27B 3329   1.494   5.997   8.527 -0.8629 -2.1742 -0.3978
   45CHL1  H27C 3330   1.504   5.970   8.353  0.1289  1.7875 -0.9439
   46CHL1    C3 3331   1.833   0.410   7.037 -0.7689  0.4829 -0.1056
   46CHL1    H3 3332   1.937   0.372   7.048 -0.6169  0.2932 -1.8652
   46CHL1    O3 3333   1.798   0.399   6.895 -0.2255  0.3967 -0.2214
   46CHL1   H3' 3334   1.764   0.310   6.884  0.1132  0.2510 -0.1164
   46CHL1    C4 3335   1.735   0.319   7.122 -0.2705  0.0643  1.0963
   46CHL1   H4A 3336   1.633   0.349   7.090 -1.3463 -0.3528  3.8473
   46CHL1   H4B 3337   1.746   0.212   7.096 -0.1469  0.1820  0.6595
   46CHL1    C5 3338   1.747   0.339   7.268 -1.0625 -0.4256 -0.8331
   46CHL1    C6 3339   1.791   0.240   7.346 -0.6292  0.1865 -0.4049
   46CHL1    H6 3340   1.811   0.141   7.300 -0.0915  0.3050 -0.4374
   46CHL1    C7 3341   1.796   0.255   7.495  0.3773  0.3366  0.2976
   46CHL1   H7A 3342   1.746   0.163   7.532  1.8349 -0.7797 -0.4147
   46CHL1   H7B 3343   1.899   0.263   7.536 -0.5175  0.0166  2.8184
   46CHL1    C8 3344   1.718   0.379   7.549  0.6153 -0.0589 -0.5707
   46CHL1    H8 3345   1.609   0.368   7.539  0.0431  1.2204  2.6792
   46CHL1   C14 3346   1.729   0.401   7.699 -0.5549 -0.7221 -0.4521
   46CHL1   H14 3347   1.836   0.386   7.728 -0.2838 -0.1049 -1.0999
   46CHL1   C15 3348   1.670   0.298   7.794 -0.1249 -0.1722 -0.2956
   46CHL1  H15A 3349   1.567   0.271   7.762 -0.5254  1.8728 -0.9146
   46CHL1  H15B 3350   1.737   0.210   7.787  1.5803  1.0540  0.0154
   46CHL1   C16 3351   1.671   0.372   7.931  0.4451 -0.1255 -0.6272
   46CHL1  H16A 3352   1.570   0.372   7.978  0.2907  0.8086 -0.9415
   46CHL1  H16B 3353   1.743   0.330   8.005  2.9182  0.5743 -2.5072
   46CHL1   C17 3354   1.710   0.520   7.901  0.4806 -0.5011 -0.0362
   46CHL1   H17 3355   1.821   0.530   7.901  0.3970  0.6765 -1.2096
   46CHL1   C13 3356   1.677   0.539   7.750  0.1882  0.7792 -0.2859
   46CHL1   C18 3357   1.527   0.564   7.730 -0.1313  0.2612 -0.2120
   46CHL1  H18A 3358   1.496   0.571   7.624 -1.2660  0.8052  0.1419
   46CHL1  H18B 3359   1.471   0.476   7.769 -0.2132  0.3959 -0.0281
   46CHL1  H18C 3360   1.502   0.658   7.783  0.0593  1.5083 -2.2535
   46CHL1   C12 3361   1.759   0.644   7.675  0.6367 -0.4538 -0.1463
   46CHL1  H12A 3362   1.732   0.744   7.714 -0.0096 -0.6584 -0.0531
   46CHL1  H12B 3363   1.869   0.634   7.690  0.7575 -1.9498 -1.6928
   46CHL1   C11 3364   1.729   0.638   7.527 -0.0071  0.3528 -0.8937
   46CHL1  H11A 3365   1.625   0.670   7.508 -0.4368 -0.1679  0.5079
   46CHL1  H11B 3366   1.795   0.704   7.466  3.2628 -1.0803  0.8597
   46CHL1    C9 3367   1.765   0.502   7.468 -0.4020  0.0405  0.3358
   46CHL1    H9 3368   1.875   0.490   7.479 -0.3641  0.4535  0.4224
   46CHL1   C10 3369   1.727   0.482   7.315  0.2405  0.2844 -0.0098
   46CHL1   C19 3370   1.581   0.531   7.302 -0.0213 -0.0369  0.0506
   46CHL1  H19A 3371   1.512   0.469   7.363  0.0341  0.9370  1.1452
   46CHL1  H19B 3372   1.567   0.638   7.328 -0.3264  0.1719 -0.9158
   46CHL1  H19C 3373   1.547   0.522   7.196  2.9410  1.2734 -1.1231
   46CHL1    C1 3374   1.818   0.578   7.230 -0.0533  0.3069  0.0999
   46CHL1   H1A 3375   1.819   0.684   7.262 -1.0781 -0.4376  2.9169
   46CHL1   H1B 3376   1.923   0.549   7.251  0.7378  2.0665 -1.1812
   46CHL1    C2 3377   1.815   0.554   7.081 -0.2623 -1.1556  0.8988
   46CHL1   H2A 3378   1.885   0.620   7.025 -0.8952 -1.1259  0.1271
   46CHL1   H2B 3379   1.715   0.591   7.050 -0.1309 -0.5722  1.1540
   46CHL1   C20 3380   1.654   0.625   8.006  0.0740  0.2882  0.8031
   46CHL1   H20 3381   1.544   0.608   8.002 -0.0048  0.7274 -2.9009
   46CHL1   C21 3382   1.683   0.776   7.967  0.2189  0.0801  0.2771
   46CHL1  H21A 3383   1.657   0.850   8.046  0.4308  0.8773 -0.3943
   46CHL1  H21B 3384   1.617   0.808   7.884  0.7295  2.8299  0.8238
   46CHL1  H21C 3385   1.788   0.789   7.933  0.9485 -0.8421  2.0322
   46CHL1   C22 3386   1.708   0.599   8.149 -0.5040 -0.1363 -0.0696
   46CHL1  H22A 3387   1.708   0.490   8.169  0.0186 -0.2245 -0.5259
   46CHL1  H22B 3388   1.806   0.647   8.170 -1.2319  0.5441  1.9949
   46CHL1   C23 3389   1.603   0.648   8.253 -0.5832  0.0790 -0.5142
   46CHL1  H23A 3390   1.601   0.759   8.246 -2.3894  0.0977 -0.1345
   46CHL1  H23B 3391   1.506   0.612   8.213 -0.7892 -0.3684  0.3597
   46CHL1   C24 3392   1.623   0.599   8.394 -0.3154 -0.6232 -0.5105
   46CHL1  H24A 3393   1.605   0.490   8.408 -0.4423 -0.4866  0.4757
   46CHL1  H24B 3394   1.728   0.614   8.428 -0.2700 -1.0688 -0.4500
   46CHL1   C25 3395   1.526   0.667   8.498  0.2090  0.1227 -0.6845
   46CHL1   H25 3396   1.569   0.770   8.500 -1.8136  1.0245 -1.1261
   46CHL1   C26 3397   1.379   0.648   8.458 -0.1108  0.0763 -0.1085
   46CHL1  H26A 3398   1.355   0.542   8.436 -0.4395  0.4482 -1.6416
   46CHL1  H26B 3399   1.320   0.685   8.545 -0.4136 -1.0100  0.1605
   46CHL1  H26C 3400   1.361   0.689   8.357  1.8724 -2.0179 -1.3972
   46CHL1   C27 3401   1.547   0.622   8.643 -0.3093  0.4823  0.2805
   46CHL1  H27A 3402   1.514   0.516   8.656 -0.5554  0.5013 -0.1860
   46CHL1  H27B 3403   1.652   0.642   8.676 -0.3653  3.0294 -0.8577
   46CHL1  H27C 3404   1.488   0.681   8.716  0.1697  2.3475 -0.7787
   47CHL1    C3 3405   1.286   6.632   6.827 -0.2752 -0.2447  0.1437
   47CHL1    H3 3406   1.255   6.534   6.869  0.5093 -1.0030 -0.9927
   47CHL1    O3 3407   1.287   6.633   6.683 -0.2520 -0.2087 -0.1992
   47CHL1   H3' 3408   1.347   6.702   6.653 -0.3219 -0.4867 -0.9912
   47CHL1    C4 3409   1.203   6.747   6.889 -0.2411 -0.3940  0.3121
   47CHL1   H4A 3410   1.240   6.847   6.858 -2.8775  0.5511 -0.0325
   47CHL1   H4B 3411   1.098   6.762   6.858 -0.2887 -0.2200  0.5534
   47CHL1    C5 3412   1.206   6.738   7.046 -0.1782  0.1848  0.1153
   47CHL1    C6 3413   1.097   6.718   7.120  0.2874 -0.2542 -0.0322
   47CHL1    H6 3414   0.998   6.721   7.071 -0.3535  1.8239  1.2955
   47CHL1    C7 3415   1.100   6.713   7.263 -0.0256  0.3817  1.0711
   47CHL1   H7A 3416   1.026   6.792   7.288 -0.7765  0.6153 -1.6254
   47CHL1   H7B 3417   1.064   6.614   7.299 -0.4220 -0.4106 -1.3127
   47CHL1    C8 3418   1.234   6.744   7.329  0.5507 -0.0878 -0.4374
   47CHL1    H8 3419   1.242   6.854   7.324  3.6911 -0.2922 -2.1703
   47CHL1   C14 3420   1.238   6.704   7.479 -0.0135  0.0975 -0.3884
   47CHL1   H14 3421   1.223   6.594   7.479  0.8597 -0.0677  2.1247
   47CHL1   C15 3422   1.133   6.755   7.577  0.2268  0.2304 -0.7300
   47CHL1  H15A 3423   1.123   6.864   7.560  2.1082  0.4266 -0.7741
   47CHL1  H15B 3424   1.040   6.695   7.568  0.8250 -0.5220 -2.1992
   47CHL1   C16 3425   1.190   6.733   7.717  0.1190  0.1742  0.5805
   47CHL1  H16A 3426   1.176   6.827   7.774  1.3746  2.2166 -2.2356
   47CHL1  H16B 3427   1.144   6.640   7.757  3.7070 -1.5178  1.2190
   47CHL1   C17 3428   1.341   6.684   7.700  0.0459 -0.1801  0.3859
   47CHL1   H17 3429   1.344   6.573   7.692 -0.3843 -0.2682  1.3158
   47CHL1   C13 3430   1.371   6.731   7.553 -0.1798  0.2597  0.8864
   47CHL1   C18 3431   1.416   6.884   7.547 -0.1202 -0.2609  0.0942
   47CHL1  H18A 3432   1.524   6.877   7.568  0.1189 -0.4864 -1.0920
   47CHL1  H18B 3433   1.403   6.931   7.447 -2.7201  0.7875  0.8269
   47CHL1  H18C 3434   1.359   6.956   7.609  0.6929  1.9304 -1.5782
   47CHL1   C12 3435   1.482   6.652   7.480  0.5915 -0.0016  0.0924
   47CHL1  H12A 3436   1.574   6.685   7.533 -0.1761 -0.6096  1.8864
   47CHL1  H12B 3437   1.476   6.544   7.507  3.0485 -0.3601 -0.5801
   47CHL1   C11 3438   1.481   6.698   7.329  0.1321  0.2019 -0.2448
   47CHL1  H11A 3439   1.526   6.800   7.326 -1.4683  0.9023 -1.3497
   47CHL1  H11B 3440   1.553   6.635   7.273 -1.0650 -0.8341 -0.6534
   47CHL1    C9 3441   1.344   6.681   7.257 -0.2064  0.6827  0.0502
   47CHL1    H9 3442   1.326   6.572   7.258 -1.2055  0.8285 -0.3889
   47CHL1   C10 3443   1.346   6.733   7.109  0.7847  0.5429  0.2311
   47CHL1   C19 3444   1.399   6.876   7.097  0.2111 -0.1294  0.4282
   47CHL1  H19A 3445   1.344   6.945   7.164 -0.3274 -0.8429  0.7313
   47CHL1  H19B 3446   1.507   6.891   7.120 -0.3536  0.3608  3.0460
   47CHL1  H19C 3447   1.375   6.915   6.995 -2.2212  2.7017  1.9195
   47CHL1    C1 3448   1.442   6.642   7.029  0.7408 -0.3150  0.0236
   47CHL1   H1A 3449   1.542   6.670   7.068  0.4981 -1.2243  1.3667
   47CHL1   H1B 3450   1.420   6.536   7.053 -1.7939 -0.1948 -1.4577
   47CHL1    C2 3451   1.427   6.649   6.873 -0.9204 -0.1691  0.3109
   47CHL1   H2A 3452   1.493   6.571   6.829 -1.7027 -1.1932  0.9224
   47CHL1   H2B 3453   1.462   6.750   6.842  1.4471 -1.0047  0.0581
   47CHL1   C20 3454   1.432   6.729   7.814 -0.1484 -0.0457 -0.1680
   47CHL1   H20 3455   1.437   6.840   7.817  2.7735 -0.1197  0.4802
   47CHL1   C21 3456   1.577   6.677   7.799  0.4008  0.0460  0.5326
   47CHL1  H21A 3457   1.634   6.668   7.894  0.2754 -1.0484  0.5149
   47CHL1  H21B 3458   1.631   6.740   7.725 -1.5645 -0.0498 -1.0653
   47CHL1  H21C 3459   1.575   6.576   7.753 -2.4872 -0.3626  1.3675
   47CHL1   C22 3460   1.371   6.684   7.947  0.1139  0.3587 -0.1999
   47CHL1  H22A 3461   1.265   6.717   7.950  0.3319  0.9827  1.6502
   47CHL1  H22B 3462   1.364   6.573   7.955 -0.8044  0.5146  1.6464
   47CHL1   C23 3463   1.447   6.742   8.067 -1.3233 -0.3375 -0.1460
   47CHL1  H23A 3464   1.508   6.656   8.101 -2.8753 -2.0044 -1.3961
   47CHL1  H23B 3465   1.510   6.826   8.030  0.7807  0.2317  4.1419
   47CHL1   C24 3466   1.355   6.793   8.173 -0.2641 -0.1559  0.6096
   47CHL1  H24A 3467   1.267   6.853   8.140 -0.6570 -0.6391  0.7619
   47CHL1  H24B 3468   1.298   6.704   8.208  1.1983 -2.1551 -1.7595
   47CHL1   C25 3469   1.419   6.857   8.291 -0.8155 -0.2051 -0.2753
   47CHL1   H25 3470   1.490   6.783   8.336 -1.1629  0.2213  1.0346
   47CHL1   C26 3471   1.479   6.994   8.254  0.2752  0.3303 -0.0239
   47CHL1  H26A 3472   1.399   7.068   8.233  0.7557  0.7598 -0.3514
   47CHL1  H26B 3473   1.529   7.040   8.343  0.2143  0.7929 -0.2243
   47CHL1  H26C 3474   1.554   7.014   8.175 -0.7758  2.9744 -0.4851
   47CHL1   C27 3475   1.314   6.890   8.401  0.5793  0.1723  0.3433
   47CHL1  H27A 3476   1.289   6.789   8.441  2.8359 -1.5154 -2.1757
   47CHL1  H27B 3477   1.356   6.949   8.485  0.7017 -0.9137  1.0644
   47CHL1  H27C 3478   1.225   6.946   8.363  0.4150  0.1137  0.6349
   48CHL1    C3 3479   5.508   2.921   6.421  0.5941 -0.3723 -1.2787
   48CHL1    H3 3480   5.610   2.963   6.421  1.2684 -1.3308  3.4593
   48CHL1    O3 3481   5.473   2.903   6.291 -0.4819 -0.1972 -0.2262
   48CHL1   H3' 3482   5.379   2.885   6.293 -0.2251 -1.5369  1.2492
   48CHL1    C4 3483   5.514   2.791   6.501  0.2097  0.6277 -0.5013
   48CHL1   H4A 3484   5.408   2.761   6.513  0.6788 -1.1429 -0.4486
   48CHL1   H4B 3485   5.580   2.718   6.449 -1.0023 -0.4914 -0.5300
   48CHL1    C5 3486   5.556   2.811   6.647  0.6005 -0.0474 -0.7218
   48CHL1    C6 3487   5.673   2.755   6.688  0.4641 -0.3861  0.1541
   48CHL1    H6 3488   5.724   2.689   6.616  1.9989  3.2503 -2.4259
   48CHL1    C7 3489   5.730   2.762   6.820 -1.0444 -0.3778 -0.4276
   48CHL1   H7A 3490   5.787   2.674   6.855  2.4521  1.2995 -1.4922
   48CHL1   H7B 3491   5.802   2.847   6.825 -1.1000 -0.3713  0.4983
   48CHL1    C8 3492   5.623   2.813   6.918  0.3528  0.8464  0.8060
   48CHL1    H8 3493   5.547   2.735   6.941  1.4175 -0.3308  0.4146
   48CHL1   C14 3494   5.693   2.857   7.049  0.1070  0.4692 -0.2502
   48CHL1   H14 3495   5.747   2.950   7.018 -0.1180  0.4050 -0.8445
   48CHL1   C15 3496   5.791   2.756   7.104 -0.3939  0.2235 -0.5932
   48CHL1  H15A 3497   5.752   2.652   7.096 -0.2578  0.0827  0.4020
   48CHL1  H15B 3498   5.889   2.779   7.057  0.6767 -1.1652  0.8172
   48CHL1   C16 3499   5.797   2.792   7.258  0.1314  0.6089  0.3659
   48CHL1  H16A 3500   5.764   2.709   7.325 -0.7947 -0.5183 -1.4107
   48CHL1  H16B 3501   5.900   2.817   7.290  0.1821  1.5711 -0.5082
   48CHL1   C17 3502   5.702   2.916   7.279 -0.1575  0.6326  0.0524
   48CHL1   H17 3503   5.766   3.003   7.254  1.2281 -0.4217 -0.1745
   48CHL1   C13 3504   5.599   2.908   7.162  0.2567  0.0662  0.5847
   48CHL1   C18 3505   5.490   2.812   7.204 -0.2179 -0.2260  0.4258
   48CHL1  H18A 3506   5.412   2.796   7.127 -0.7844 -0.5283  1.0415
   48CHL1  H18B 3507   5.529   2.715   7.243 -0.0311 -0.6861 -0.8530
   48CHL1  H18C 3508   5.421   2.863   7.275 -0.2498 -0.5413  0.6276
   48CHL1   C12 3509   5.535   3.034   7.105 -0.0031  0.4915  0.6300
   48CHL1  H12A 3510   5.472   3.098   7.170 -1.3051  0.9354 -1.0074
   48CHL1  H12B 3511   5.618   3.104   7.082  1.7061 -2.0365 -1.5366
   48CHL1   C11 3512   5.457   3.008   6.977  0.2694  0.1532  0.4406
   48CHL1  H11A 3513   5.362   2.956   7.001 -0.3134  0.5029 -0.9990
   48CHL1  H11B 3514   5.409   3.104   6.947 -0.4431  1.0295  3.9671
   48CHL1    C9 3515   5.541   2.934   6.862  0.0443 -0.8199 -0.3203
   48CHL1    H9 3516   5.616   3.012   6.837 -0.8368  0.5215  1.0501
   48CHL1   C10 3517   5.464   2.907   6.734  0.7591  0.3020 -0.7693
   48CHL1   C19 3518   5.323   2.861   6.757  0.5534 -0.8020 -0.3959
   48CHL1  H19A 3519   5.259   2.946   6.790 -1.4177 -2.4129  0.0949
   48CHL1  H19B 3520   5.268   2.831   6.665 -1.1642 -1.3086  0.7419
   48CHL1  H19C 3521   5.309   2.788   6.840 -0.1424 -1.1451 -0.8095
   48CHL1    C1 3522   5.444   3.043   6.644 -0.6075 -0.0597  0.2108
   48CHL1   H1A 3523   5.362   3.105   6.685 -0.4818  0.2351  0.0119
   48CHL1   H1B 3524   5.536   3.105   6.649 -0.1230 -0.7013 -0.5841
   48CHL1    C2 3525   5.410   3.027   6.495  0.5665  0.1311  0.3424
   48CHL1   H2A 3526   5.411   3.119   6.432 -0.1205 -2.1046 -3.2034
   48CHL1   H2B 3527   5.311   2.981   6.476  0.1390  0.4429  1.7773
   48CHL1   C20 3528   5.647   2.917   7.421 -0.1505  0.0733 -0.0864
   48CHL1   H20 3529   5.579   2.831   7.440 -0.0457  0.2203  1.0267
   48CHL1   C21 3530   5.554   3.041   7.432  0.3055  0.2797 -0.0581
   48CHL1  H21A 3531   5.590   3.122   7.366 -0.4562  0.3292 -0.4269
   48CHL1  H21B 3532   5.539   3.077   7.536 -2.1147 -2.0585  0.5160
   48CHL1  H21C 3533   5.451   3.017   7.397 -0.8220  2.3026  1.6034
   48CHL1   C22 3534   5.757   2.925   7.525 -0.8037  0.1614  0.0796
   48CHL1  H22A 3535   5.833   2.846   7.503 -0.8431  0.5002 -1.4161
   48CHL1  H22B 3536   5.810   3.020   7.505  0.2839 -0.6505 -1.0970
   48CHL1   C23 3537   5.721   2.913   7.669 -0.2726  0.2961 -0.2164
   48CHL1  H23A 3538   5.654   3.000   7.688 -3.9504 -2.3924  0.0851
   48CHL1  H23B 3539   5.666   2.818   7.683  0.3585 -0.0105  0.2877
   48CHL1   C24 3540   5.843   2.931   7.758 -0.1886  0.1453  0.6877
   48CHL1  H24A 3541   5.928   2.878   7.710  0.4822  0.3404  1.6266
   48CHL1  H24B 3542   5.874   3.038   7.755  0.4277  0.0252 -3.1010
   48CHL1   C25 3543   5.839   2.858   7.891 -0.0175 -0.6340 -0.5829
   48CHL1   H25 3544   5.928   2.891   7.948 -1.3773 -1.1537  2.0173
   48CHL1   C26 3545   5.714   2.905   7.965  0.5563  0.3328  0.4485
   48CHL1  H26A 3546   5.701   3.016   7.965 -0.4838  0.2248  0.3472
   48CHL1  H26B 3547   5.627   2.860   7.911 -0.6436  3.5750 -0.5858
   48CHL1  H26C 3548   5.715   2.883   8.073  0.3550 -1.3814  0.1195
   48CHL1   C27 3549   5.845   2.713   7.866 -0.0736  0.5490  0.0763
   48CHL1  H27A 3550   5.919   2.689   7.787 -1.5305  2.0805 -1.8387
   48CHL1  H27B 3551   5.863   2.671   7.967 -0.0913  1.0100  0.2752
   48CHL1  H27C 3552   5.745   2.676   7.834  0.0695 -0.4371  0.7293
   49CHL1    C3 3553   2.897   4.375   6.743  0.1523  0.4552  0.3367
   49CHL1    H3 3554   2.809   4.442   6.745 -0.9230 -0.8826 -0.4120
   49CHL1    O3 3555   2.912   4.347   6.605  0.1576 -0.7383 -0.4206
   49CHL1   H3' 3556   2.983   4.283   6.601 -0.4609 -1.6311  1.4760
   49CHL1    C4 3557   3.024   4.446   6.798 -0.5152  0.8033  0.3809
   49CHL1   H4A 3558   3.112   4.385   6.768 -2.2890 -1.3065 -0.7800
   49CHL1   H4B 3559   3.035   4.543   6.746  0.7181  0.0521 -0.8223
   49CHL1    C5 3560   3.027   4.478   6.949  0.2026 -0.3519  0.0243
   49CHL1    C6 3561   3.041   4.605   6.997  0.2351  0.1230 -0.4349
   49CHL1    H6 3562   3.060   4.688   6.926 -0.3273 -0.8662 -1.7950
   49CHL1    C7 3563   3.042   4.638   7.142  0.5617  0.2060  1.0081
   49CHL1   H7A 3564   3.134   4.696   7.163  1.9390 -1.6301  0.3363
   49CHL1   H7B 3565   2.948   4.693   7.162 -1.4175 -2.5550 -0.0794
   49CHL1    C8 3566   3.048   4.515   7.232  0.2964 -0.2229  0.1808
   49CHL1    H8 3567   3.148   4.470   7.218  0.0416 -0.9243  0.5473
   49CHL1   C14 3568   3.016   4.558   7.372  0.4882  0.3746 -0.6519
   49CHL1   H14 3569   2.913   4.601   7.365  0.9576  1.7432  0.2411
   49CHL1   C15 3570   3.100   4.675   7.437 -0.8358  0.0253 -0.5266
   49CHL1  H15A 3571   3.207   4.665   7.413 -1.0119  1.1723 -1.9498
   49CHL1  H15B 3572   3.073   4.780   7.412  1.5433  1.2601  1.6740
   49CHL1   C16 3573   3.073   4.658   7.589  1.0244 -0.3321  0.2957
   49CHL1  H16A 3574   3.168   4.639   7.643  0.5843  1.1292  1.6684
   49CHL1  H16B 3575   3.022   4.744   7.637  1.7108 -0.7356  1.7876
   49CHL1   C17 3576   2.986   4.530   7.604  0.5286  0.1153  0.2386
   49CHL1   H17 3577   2.879   4.557   7.589  0.3390 -0.3684  0.6641
   49CHL1   C13 3578   3.009   4.442   7.473 -1.3139 -0.1530 -0.0329
   49CHL1   C18 3579   3.148   4.372   7.479 -0.2330  0.5417  0.0229
   49CHL1  H18A 3580   3.183   4.353   7.376  1.5307 -0.2904  0.7300
   49CHL1  H18B 3581   3.214   4.443   7.535  0.7621  0.2909 -0.7992
   49CHL1  H18C 3582   3.151   4.276   7.535  1.5123 -0.7428 -2.1297
   49CHL1   C12 3583   2.907   4.340   7.425 -0.1924 -0.0241  0.1982
   49CHL1  H12A 3584   2.897   4.248   7.486 -3.0264  1.7756  2.7611
   49CHL1  H12B 3585   2.805   4.383   7.432 -0.2438 -0.0570 -0.2879
   49CHL1   C11 3586   2.935   4.289   7.281 -0.0442  0.2659 -0.0609
   49CHL1  H11A 3587   3.026   4.225   7.280 -1.0357 -1.2124 -1.4709
   49CHL1  H11B 3588   2.842   4.236   7.252 -0.7289  0.2178  2.0504
   49CHL1    C9 3589   2.956   4.402   7.183  0.3224 -0.6976  0.2964
   49CHL1    H9 3590   2.859   4.455   7.185  1.2923  1.1660  1.3038
   49CHL1   C10 3591   2.984   4.361   7.038 -0.9336 -1.1980  0.3607
   49CHL1   C19 3592   3.107   4.267   7.034  0.4227  0.0645  0.0858
   49CHL1  H19A 3593   3.084   4.179   7.099  2.0361 -1.5924 -1.4838
   49CHL1  H19B 3594   3.129   4.218   6.937  1.4282 -0.1656  0.4265
   49CHL1  H19C 3595   3.199   4.318   7.069  1.5905 -1.8390 -0.0368
   49CHL1    C1 3596   2.865   4.282   6.982  0.4474  0.1229  0.5831
   49CHL1   H1A 3597   2.855   4.185   7.037  0.6899  0.9083  2.0525
   49CHL1   H1B 3598   2.773   4.340   7.004 -1.4097 -2.2641 -0.4392
   49CHL1    C2 3599   2.864   4.253   6.829 -0.5133 -0.3592 -0.7420
   49CHL1   H2A 3600   2.769   4.206   6.797 -1.5986  0.0699  1.5679
   49CHL1   H2B 3601   2.947   4.185   6.801 -0.4684 -0.0697 -1.3256
   49CHL1   C20 3602   2.994   4.469   7.750  0.2064  0.1472  0.0152
   49CHL1   H20 3603   3.102   4.462   7.775  0.1481 -0.1889  0.1684
   49CHL1   C21 3604   2.926   4.333   7.751 -0.5050 -0.7380  0.6112
   49CHL1  H21A 3605   2.970   4.262   7.678 -2.3857 -1.8025  0.4510
   49CHL1  H21B 3606   2.819   4.344   7.723 -0.1713  1.0734 -0.0954
   49CHL1  H21C 3607   2.929   4.283   7.850 -1.4219 -2.3538 -0.1480
   49CHL1   C22 3608   2.931   4.566   7.865 -0.3717  0.8838  1.0977
   49CHL1  H22A 3609   2.988   4.661   7.864  1.9341 -0.3970 -1.3180
   49CHL1  H22B 3610   2.825   4.577   7.834 -1.5063 -1.2270  3.8066
   49CHL1   C23 3611   2.940   4.516   8.007 -0.3227  0.9545  0.2379
   49CHL1  H23A 3612   2.896   4.415   8.000  0.8815  0.4979 -1.3372
   49CHL1  H23B 3613   3.047   4.498   8.030 -0.6808 -0.7062  0.7147
   49CHL1   C24 3614   2.855   4.586   8.114  0.0071  0.1703 -0.5374
   49CHL1  H24A 3615   2.880   4.694   8.107 -1.3866  0.4791 -1.0813
   49CHL1  H24B 3616   2.747   4.565   8.097  0.0189 -1.2616  0.8628
   49CHL1   C25 3617   2.875   4.531   8.256 -0.1044  0.0972 -0.5858
   49CHL1   H25 3618   2.981   4.545   8.287 -0.1760  3.4498 -1.4702
   49CHL1   C26 3619   2.777   4.606   8.351 -0.2730  0.8008 -0.3520
   49CHL1  H26A 3620   2.785   4.567   8.455  0.6793  1.9061  0.0066
   49CHL1  H26B 3621   2.789   4.716   8.344 -1.2690  0.9237 -0.2152
   49CHL1  H26C 3622   2.671   4.588   8.325 -1.4616  3.5130  2.0522
   49CHL1   C27 3623   2.844   4.379   8.270 -0.3934 -1.0395  0.4468
   49CHL1  H27A 3624   2.931   4.325   8.226  2.2321  2.6865  0.5686
   49CHL1  H27B 3625   2.854   4.359   8.379  2.7931  0.2285  0.4808
   49CHL1  H27C 3626   2.745   4.354   8.227  0.1194 -0.3769 -1.2326
   50CHL1    C3 3627   2.231   5.621   6.884 -0.3262 -0.1846  0.5838
   50CHL1    H3 3628   2.329   5.597   6.931  0.1277  1.5578  0.6057
   50CHL1    O3 3629   2.252   5.646   6.750 -0.2505 -0.0452 -0.3668
   50CHL1   H3' 3630   2.165   5.638   6.712 -0.8862 -0.1698  1.0303
   50CHL1    C4 3631   2.139   5.503   6.914 -0.4633  0.0603 -0.1129
   50CHL1   H4A 3632   2.049   5.516   6.850  1.2923  3.1467 -2.2247
   50CHL1   H4B 3633   2.173   5.407   6.871 -1.9578 -1.8432  2.6476
   50CHL1    C5 3634   2.123   5.485   7.070  0.8210  0.0564  0.9099
   50CHL1    C6 3635   2.157   5.369   7.128  0.5720 -0.0254  0.7867
   50CHL1    H6 3636   2.193   5.294   7.057 -1.5840 -0.9076  0.5514
   50CHL1    C7 3637   2.151   5.345   7.276  0.0785 -0.0519  0.2675
   50CHL1   H7A 3638   2.106   5.245   7.294  1.0433 -1.0789 -2.4604
   50CHL1   H7B 3639   2.257   5.356   7.307 -0.5512  0.7761  2.2612
   50CHL1    C8 3640   2.070   5.453   7.354 -0.5492 -0.6375 -0.3682
   50CHL1    H8 3641   1.961   5.437   7.345 -1.3811  2.1002  2.8920
   50CHL1   C14 3642   2.101   5.450   7.500  0.0942 -0.2211  0.2836
   50CHL1   H14 3643   2.210   5.469   7.511  0.2191  0.1836 -1.4288
   50CHL1   C15 3644   2.074   5.315   7.567  0.4606  0.1081 -0.0778
   50CHL1  H15A 3645   1.976   5.276   7.532  0.8004 -2.3565  1.4502
   50CHL1  H15B 3646   2.152   5.242   7.539  0.4864 -0.3765  1.1718
   50CHL1   C16 3647   2.057   5.344   7.717 -0.1747 -0.1470 -0.3390
   50CHL1  H16A 3648   1.964   5.304   7.763 -0.1415  0.5151  0.3139
   50CHL1  H16B 3649   2.138   5.287   7.768 -0.4403 -0.5091 -0.3199
   50CHL1   C17 3650   2.069   5.498   7.726  1.0675  0.1464  0.3474
   50CHL1   H17 3651   2.177   5.525   7.722  0.5299  2.4379 -0.3858
   50CHL1   C13 3652   2.032   5.554   7.583 -0.1525 -0.0446  0.0379
   50CHL1   C18 3653   1.878   5.526   7.586  0.1454  0.1400  0.4188
   50CHL1  H18A 3654   1.836   5.539   7.484  2.1536  1.4183 -0.3193
   50CHL1  H18B 3655   1.848   5.428   7.630 -2.4453  1.5217  1.9885
   50CHL1  H18C 3656   1.833   5.605   7.649 -1.7004 -1.5376  1.2785
   50CHL1   C12 3657   2.076   5.695   7.536 -0.4842 -0.2634 -0.1012
   50CHL1  H12A 3658   2.020   5.776   7.588 -0.2056 -0.8993  1.2383
   50CHL1  H12B 3659   2.181   5.702   7.573 -0.3189 -0.9416 -0.4262
   50CHL1   C11 3660   2.050   5.711   7.386  0.9339 -0.0482 -0.2857
   50CHL1  H11A 3661   1.940   5.711   7.374  0.6751 -0.8245  1.6710
   50CHL1  H11B 3662   2.078   5.807   7.338 -1.0693  0.4065 -0.6514
   50CHL1    C9 3663   2.103   5.593   7.299 -0.6263  0.0881  0.7463
   50CHL1    H9 3664   2.213   5.595   7.312 -0.4082  0.1719 -0.8818
   50CHL1   C10 3665   2.077   5.607   7.147 -0.3203 -0.1538  0.0404
   50CHL1   C19 3666   1.932   5.632   7.123  0.8969 -0.5310  0.3923
   50CHL1  H19A 3667   1.912   5.733   7.163 -0.6409  1.2664 -4.2507
   50CHL1  H19B 3668   1.909   5.642   7.014  0.5907  2.8262  0.6821
   50CHL1  H19C 3669   1.870   5.550   7.165  0.2948  0.8066  2.2134
   50CHL1    C1 3670   2.165   5.731   7.104  0.3716  0.3390  0.2717
   50CHL1   H1A 3671   2.140   5.824   7.159 -1.1872  1.0746 -1.5439
   50CHL1   H1B 3672   2.266   5.707   7.141  0.3682  1.2836  0.9189
   50CHL1    C2 3673   2.172   5.757   6.953  0.1026  0.1382 -0.4036
   50CHL1   H2A 3674   2.228   5.849   6.926  1.7431 -0.7344 -0.1105
   50CHL1   H2B 3675   2.075   5.771   6.901 -0.6402  4.7915  1.7536
   50CHL1   C20 3676   2.010   5.584   7.843 -0.6340 -0.4836 -0.6580
   50CHL1   H20 3677   1.985   5.684   7.802 -0.5341 -0.6432 -1.1159
   50CHL1   C21 3678   2.123   5.594   7.951 -0.1151  0.0599 -0.8486
   50CHL1  H21A 3679   2.146   5.496   7.996  0.2990  0.3247 -0.4736
   50CHL1  H21B 3680   2.109   5.667   8.034  0.6185 -0.2541 -0.4430
   50CHL1  H21C 3681   2.222   5.621   7.908  0.8507 -0.9124  0.6760
   50CHL1   C22 3682   1.880   5.536   7.908 -0.8925 -0.0303 -0.1698
   50CHL1  H22A 3683   1.813   5.476   7.842 -2.1337 -0.7447  1.6514
   50CHL1  H22B 3684   1.908   5.451   7.974 -1.2616 -1.1662 -1.4237
   50CHL1   C23 3685   1.814   5.646   7.997  0.1329 -0.0571 -0.8201
   50CHL1  H23A 3686   1.738   5.610   8.069  0.4142  0.8936 -0.0353
   50CHL1  H23B 3687   1.887   5.697   8.063 -0.4269 -0.1816 -0.0916
   50CHL1   C24 3688   1.741   5.749   7.908  0.5819  0.3438 -0.6310
   50CHL1  H24A 3689   1.799   5.786   7.820  1.0601  1.7700  0.2562
   50CHL1  H24B 3690   1.651   5.702   7.864 -0.3565  0.4901  1.0560
   50CHL1   C25 3691   1.684   5.867   7.991 -0.6685 -0.0645 -0.4027
   50CHL1   H25 3692   1.653   5.825   8.089 -0.7763  1.8137  0.4135
   50CHL1   C26 3693   1.807   5.958   8.033 -0.3289 -0.1346  0.3905
   50CHL1  H26A 3694   1.902   5.902   8.045 -1.4943 -1.9965  1.3819
   50CHL1  H26B 3695   1.824   6.036   7.956 -1.3744  1.2579  1.5062
   50CHL1  H26C 3696   1.790   6.018   8.125 -0.7981  1.3990 -0.6507
   50CHL1   C27 3697   1.567   5.948   7.924 -0.2081  0.1328 -0.0733
   50CHL1  H27A 3698   1.491   5.883   7.875 -2.3711  0.5836  2.4075
   50CHL1  H27B 3699   1.514   6.012   7.999 -0.7472 -2.1074  1.5773
   50CHL1  H27C 3700   1.627   6.011   7.856  0.8678 -1.6652 -0.8611
   51CHL1    C3 3701   4.056   4.665   7.052  0.3875 -0.1187  1.0845
   51CHL1    H3 3702   4.126   4.605   6.990  0.5450 -0.2980  1.4316
   51CHL1    O3 3703   4.035   4.785   6.976  0.3870  0.3410  0.0970
   51CHL1   H3' 3704   3.943   4.775   6.950  0.0858  1.9738  0.4460
   51CHL1    C4 3705   3.923   4.591   7.073  0.0181  0.0149  0.2925
   51CHL1   H4A 3706   3.852   4.663   7.118  1.1178  1.2392  0.1435
   51CHL1   H4B 3707   3.876   4.569   6.975  0.2821  0.3981  0.0763
   51CHL1    C5 3708   3.945   4.470   7.162 -0.6651 -0.1318 -0.5079
   51CHL1    C6 3709   3.909   4.347   7.117  0.6048  0.5718  0.2197
   51CHL1    H6 3710   3.859   4.341   7.019  1.4131 -0.0762 -0.1619
   51CHL1    C7 3711   3.933   4.218   7.195  0.3921  0.9481 -0.6339
   51CHL1   H7A 3712   3.833   4.170   7.207  0.7830 -0.0633 -1.3024
   51CHL1   H7B 3713   3.993   4.149   7.132 -1.7107 -3.1718  1.4310
   51CHL1    C8 3714   3.980   4.241   7.340  0.0123  0.0357  0.0703
   51CHL1    H8 3715   3.893   4.261   7.405  1.7231  0.7035  2.2982
   51CHL1   C14 3716   4.041   4.112   7.395  0.1908  0.3509  0.0124
   51CHL1   H14 3717   4.131   4.095   7.332  0.4360  1.3182  0.0820
   51CHL1   C15 3718   3.957   3.985   7.386  0.6041 -0.8521 -0.0351
   51CHL1  H15A 3719   3.851   4.013   7.406  1.6545  2.2523  2.0651
   51CHL1  H15B 3720   3.951   3.947   7.282 -2.0831 -3.8757  1.0536
   51CHL1   C16 3721   4.020   3.882   7.482  0.4436 -0.9326 -0.2103
   51CHL1  H16A 3722   3.963   3.867   7.576 -0.1214 -1.4001 -0.6250
   51CHL1  H16B 3723   4.051   3.781   7.447 -0.8793 -2.6051  3.0271
   51CHL1   C17 3724   4.140   3.965   7.539  0.0027 -0.7639  0.7882
   51CHL1   H17 3725   4.222   3.954   7.466 -0.0861 -1.8022  0.8324
   51CHL1   C13 3726   4.097   4.117   7.528 -0.6281 -0.5575  0.2098
   51CHL1   C18 3727   3.991   4.147   7.632 -0.4137 -0.0054  0.1739
   51CHL1  H18A 3728   3.921   4.063   7.650  0.4226 -0.5995  0.6921
   51CHL1  H18B 3729   4.048   4.158   7.726  0.8191 -0.5872 -0.4736
   51CHL1  H18C 3730   3.942   4.246   7.617  0.8473  0.5906 -0.1056
   51CHL1   C12 3731   4.211   4.223   7.528 -0.7289 -0.0853  0.3102
   51CHL1  H12A 3732   4.262   4.215   7.627 -0.6877 -0.5848  0.2484
   51CHL1  H12B 3733   4.290   4.207   7.452 -0.0119  1.4993  0.6624
   51CHL1   C11 3734   4.151   4.359   7.487  0.4003  0.0498  0.3829
   51CHL1  H11A 3735   4.087   4.394   7.570 -0.7435  1.8822 -1.1798
   51CHL1  H11B 3736   4.233   4.434   7.475  1.4036 -0.4243  3.5360
   51CHL1    C9 3737   4.083   4.352   7.346  0.2677 -0.0125 -0.0391
   51CHL1    H9 3738   4.169   4.316   7.286  1.4250 -0.3622  1.7787
   51CHL1   C10 3739   4.026   4.485   7.292  0.2821 -0.3166  0.1146
   51CHL1   C19 3740   3.929   4.548   7.393 -0.2844  0.0061  0.3584
   51CHL1  H19A 3741   3.976   4.603   7.477  0.8973 -0.0552 -0.2437
   51CHL1  H19B 3742   3.865   4.625   7.345  0.6315 -0.1524 -1.1976
   51CHL1  H19C 3743   3.861   4.468   7.429  2.3304 -1.9642  1.2001
   51CHL1    C1 3744   4.143   4.582   7.261  0.1316  0.0268  0.0281
   51CHL1   H1A 3745   4.184   4.615   7.359 -0.5895  1.6106 -0.1643
   51CHL1   H1B 3746   4.221   4.526   7.207  0.1027 -0.0970  0.1153
   51CHL1    C2 3747   4.121   4.706   7.177 -0.1463  0.2641  0.5190
   51CHL1   H2A 3748   4.222   4.748   7.157 -0.1890  1.8514  3.1577
   51CHL1   H2B 3749   4.056   4.784   7.221 -0.4499  0.6446 -0.5620
   51CHL1   C20 3750   4.199   3.916   7.675  0.9200 -0.3087  0.4246
   51CHL1   H20 3751   4.260   4.001   7.713 -1.1475  1.6360 -0.3863
   51CHL1   C21 3752   4.279   3.792   7.635 -0.7788 -0.3718 -0.2651
   51CHL1  H21A 3753   4.316   3.740   7.726  0.2142 -1.1866 -1.1054
   51CHL1  H21B 3754   4.364   3.808   7.565  0.1740 -0.2290  0.8939
   51CHL1  H21C 3755   4.212   3.722   7.581 -0.6463  0.6187 -1.7864
   51CHL1   C22 3756   4.103   3.888   7.799  0.0414  0.1721  0.2474
   51CHL1  H22A 3757   4.029   3.969   7.816  0.1841  0.2981  0.2728
   51CHL1  H22B 3758   4.044   3.797   7.776  1.6568 -0.7566 -0.4423
   51CHL1   C23 3759   4.184   3.867   7.924  0.5671  0.2970  0.9878
   51CHL1  H23A 3760   4.223   3.764   7.911  0.7708  0.6267 -1.5985
   51CHL1  H23B 3761   4.271   3.936   7.926  2.0957 -1.1021 -3.6388
   51CHL1   C24 3762   4.104   3.873   8.052  0.0632 -0.1156  0.1283
   51CHL1  H24A 3763   4.054   3.971   8.041  3.4792  1.8595  0.6224
   51CHL1  H24B 3764   4.027   3.795   8.033 -0.3609  0.6601 -1.5744
   51CHL1   C25 3765   4.188   3.849   8.187 -0.4830  0.2324  0.2820
   51CHL1   H25 3766   4.246   3.943   8.196 -1.5235  0.9350 -0.1419
   51CHL1   C26 3767   4.089   3.852   8.301 -0.4212  0.0029  0.1643
   51CHL1  H26A 3768   4.047   3.950   8.332 -2.4387 -1.5454  2.8091
   51CHL1  H26B 3769   4.004   3.788   8.268  1.1023 -1.5970 -0.8228
   51CHL1  H26C 3770   4.132   3.807   8.394  1.9697 -1.1730 -1.4097
   51CHL1   C27 3771   4.272   3.724   8.191 -0.1612  0.2989  0.0509
   51CHL1  H27A 3772   4.209   3.633   8.185  0.5648 -0.1417 -1.4651
   51CHL1  H27B 3773   4.343   3.707   8.107  1.3201  0.1375  1.2981
   51CHL1  H27C 3774   4.327   3.729   8.287 -0.3583  2.3850  0.0960
   52CHL1    C3 3775   4.614   5.352   6.983  0.0835 -0.4406 -0.8001
   52CHL1    H3 3776   4.591   5.442   7.043 -0.6078 -1.4337  0.4912
   52CHL1    O3 3777   4.637   5.367   6.842  0.2329 -0.4337 -0.6426
   52CHL1   H3' 3778   4.664   5.280   6.811  0.3875 -0.6476  0.0776
   52CHL1    C4 3779   4.736   5.285   7.048 -0.5329 -0.4722  1.1937
   52CHL1   H4A 3780   4.757   5.191   6.992 -1.3467  0.3326 -0.5322
   52CHL1   H4B 3781   4.827   5.347   7.035 -0.3314 -1.0386 -0.2285
   52CHL1    C5 3782   4.709   5.269   7.192 -0.5226 -0.0127 -0.0204
   52CHL1    C6 3783   4.783   5.334   7.284  0.3040 -0.3068 -0.3534
   52CHL1    H6 3784   4.861   5.403   7.248 -1.4319  0.8459 -2.1506
   52CHL1    C7 3785   4.774   5.314   7.430 -0.4928  0.1127  0.3401
   52CHL1   H7A 3786   4.879   5.297   7.461  0.4476  0.9087 -2.1019
   52CHL1   H7B 3787   4.739   5.411   7.471  2.3438  0.4724  2.2269
   52CHL1    C8 3788   4.677   5.208   7.470  0.3701 -0.0991 -1.1245
   52CHL1    H8 3789   4.730   5.111   7.459 -0.9599 -0.7281 -2.3461
   52CHL1   C14 3790   4.647   5.225   7.622  0.3497  0.0820  0.6438
   52CHL1   H14 3791   4.591   5.321   7.633  1.2581  0.3642  4.0309
   52CHL1   C15 3792   4.752   5.246   7.729  0.1442 -0.4391 -0.3543
   52CHL1  H15A 3793   4.841   5.185   7.705  0.5787 -1.0400  2.4556
   52CHL1  H15B 3794   4.780   5.354   7.735  0.9639 -0.6044 -1.1139
   52CHL1   C16 3795   4.688   5.201   7.859  0.6283 -0.0893 -0.1824
   52CHL1  H16A 3796   4.755   5.121   7.896 -0.7303 -1.3328 -0.3263
   52CHL1  H16B 3797   4.678   5.281   7.936 -0.7963  0.8728 -1.3191
   52CHL1   C17 3798   4.544   5.151   7.821 -0.0824 -0.6235 -0.2348
   52CHL1   H17 3799   4.480   5.241   7.812  0.7573 -0.2553 -4.9889
   52CHL1   C13 3800   4.553   5.116   7.669  0.4902  0.8329 -0.3313
   52CHL1   C18 3801   4.617   4.975   7.661  0.7278 -0.4027  0.4063
   52CHL1  H18A 3802   4.554   4.893   7.700 -0.3679  0.0367 -0.3803
   52CHL1  H18B 3803   4.642   4.951   7.555  0.1572  0.6855  0.0083
   52CHL1  H18C 3804   4.712   4.965   7.717 -0.5263  1.1433  2.9878
   52CHL1   C12 3805   4.416   5.126   7.592 -0.8987  0.4472  0.1188
   52CHL1  H12A 3806   4.349   5.046   7.630  0.5262 -0.0847  1.6400
   52CHL1  H12B 3807   4.380   5.232   7.594  1.7119  1.3915  0.7198
   52CHL1   C11 3808   4.449   5.110   7.441 -0.8933 -0.5203 -0.3932
   52CHL1  H11A 3809   4.464   5.001   7.425 -3.0627 -0.9615  0.2462
   52CHL1  H11B 3810   4.358   5.136   7.383 -0.3903  3.2723  0.2386
   52CHL1    C9 3811   4.554   5.201   7.378 -0.7394  0.2828  0.3745
   52CHL1    H9 3812   4.515   5.305   7.388  2.0032  1.6437 -1.6457
   52CHL1   C10 3813   4.585   5.175   7.227  0.0513 -0.5672 -0.6082
   52CHL1   C19 3814   4.624   5.032   7.202  0.1631 -0.0085 -0.3290
   52CHL1  H19A 3815   4.660   5.008   7.100  2.0621 -1.7955  0.6788
   52CHL1  H19B 3816   4.703   5.011   7.276 -1.7278 -1.2023  1.4642
   52CHL1  H19C 3817   4.542   4.961   7.229  0.1438  0.2335  0.2616
   52CHL1    C1 3818   4.463   5.215   7.140 -0.0410 -0.4136  0.6380
   52CHL1   H1A 3819   4.406   5.120   7.139  2.5909 -2.1380 -1.6690
   52CHL1   H1B 3820   4.413   5.299   7.192 -0.9988 -0.3260 -0.3933
   52CHL1    C2 3821   4.494   5.255   6.988 -0.3627 -0.6637 -0.4516
   52CHL1   H2A 3822   4.403   5.316   6.968 -0.9651 -1.3094  0.2271
   52CHL1   H2B 3823   4.502   5.168   6.919  2.0167  2.8875 -5.2587
   52CHL1   C20 3824   4.482   5.064   7.925  0.3256  0.7987  0.1905
   52CHL1   H20 3825   4.394   5.015   7.877  0.4903  0.2507  0.4373
   52CHL1   C21 3826   4.426   5.154   8.032  0.3992 -0.7946 -0.2624
   52CHL1  H21A 3827   4.373   5.102   8.115  0.4050 -0.5259 -0.0905
   52CHL1  H21B 3828   4.353   5.230   7.996  1.9640  1.6043  1.3490
   52CHL1  H21C 3829   4.505   5.214   8.081  2.0180 -1.6384 -1.7365
   52CHL1   C22 3830   4.577   4.951   7.992  0.4782  0.5205 -0.0607
   52CHL1  H22A 3831   4.631   4.900   7.910  1.4236 -0.5584  1.1945
   52CHL1  H22B 3832   4.648   5.004   8.058  0.9604 -0.2763  0.0693
   52CHL1   C23 3833   4.505   4.839   8.056  0.4388  0.0592  0.2703
   52CHL1  H23A 3834   4.411   4.873   8.106  0.3791  0.5259 -0.1401
   52CHL1  H23B 3835   4.476   4.770   7.974 -0.4681 -0.4140  0.9800
   52CHL1   C24 3836   4.591   4.759   8.154 -0.2131  0.3949 -0.3658
   52CHL1  H24A 3837   4.547   4.659   8.171 -1.1902  0.6565 -1.2448
   52CHL1  H24B 3838   4.681   4.732   8.094 -0.0781  0.5827 -0.2495
   52CHL1   C25 3839   4.620   4.833   8.289  0.1285 -0.1922  0.8976
   52CHL1   H25 3840   4.667   4.930   8.266 -0.1871 -0.3870 -0.7067
   52CHL1   C26 3841   4.499   4.867   8.375  1.0717 -0.1989  0.3903
   52CHL1  H26A 3842   4.544   4.935   8.451  0.0496  0.2350  0.6219
   52CHL1  H26B 3843   4.430   4.929   8.314  2.8434  0.4933 -1.0101
   52CHL1  H26C 3844   4.455   4.770   8.406  0.3445 -0.0250 -0.0741
   52CHL1   C27 3845   4.730   4.743   8.358 -0.1225 -0.1529  1.0623
   52CHL1  H27A 3846   4.754   4.807   8.446 -1.7147  0.8473  0.8040
   52CHL1  H27B 3847   4.691   4.647   8.398  0.7914 -1.2915 -0.6326
   52CHL1  H27C 3848   4.820   4.736   8.292  0.2878 -1.4189  1.7198
   53CHL1    C3 3849   1.990   1.844   7.202  0.0165  0.5636 -0.0887
   53CHL1    H3 3850   2.052   1.755   7.229 -3.5017 -2.0351  0.0254
   53CHL1    O3 3851   1.941   1.827   7.074  0.2940 -0.5919  0.3449
   53CHL1   H3' 3852   2.020   1.827   7.019  1.6578  0.3448  2.2081
   53CHL1    C4 3853   1.874   1.846   7.313  0.8360 -0.8184 -0.5486
   53CHL1   H4A 3854   1.790   1.913   7.285  1.9301  0.8242 -0.0094
   53CHL1   H4B 3855   1.828   1.745   7.304  0.4202 -0.6321 -0.5061
   53CHL1    C5 3856   1.931   1.866   7.450  0.0366 -0.3203 -1.4196
   53CHL1    C6 3857   1.920   1.778   7.545  0.2444 -0.2141 -0.2849
   53CHL1    H6 3858   1.877   1.678   7.526  2.7236 -1.3243 -0.4816
   53CHL1    C7 3859   1.961   1.805   7.691 -0.3967 -0.1226 -0.2950
   53CHL1   H7A 3860   1.878   1.797   7.764  0.9775  2.8296  1.8274
   53CHL1   H7B 3861   2.034   1.728   7.722 -1.3498 -0.5850  0.8541
   53CHL1    C8 3862   2.016   1.951   7.714 -0.1431 -0.1989  0.1770
   53CHL1    H8 3863   1.930   2.021   7.725  1.4618  1.6569  1.7502
   53CHL1   C14 3864   2.108   1.960   7.834 -0.0516  0.6573  0.6349
   53CHL1   H14 3865   2.196   1.894   7.821 -0.8089 -0.3188  0.3295
   53CHL1   C15 3866   2.051   1.899   7.967 -0.4407 -0.5522  0.8863
   53CHL1  H15A 3867   1.947   1.933   7.987 -0.2105  0.0663  1.0558
   53CHL1  H15B 3868   2.044   1.788   7.966  0.9701 -0.6638 -0.5380
   53CHL1   C16 3869   2.140   1.958   8.070 -0.5618 -0.6831  0.4409
   53CHL1  H16A 3870   2.076   2.003   8.149 -0.6183  2.7125 -1.3479
   53CHL1  H16B 3871   2.209   1.879   8.107  2.6521  0.9110 -1.7001
   53CHL1   C17 3872   2.228   2.074   8.006  0.5155 -0.5382 -0.3389
   53CHL1   H17 3873   2.319   2.018   7.977 -0.1655 -0.7110 -2.3314
   53CHL1   C13 3874   2.154   2.098   7.874 -0.4864 -0.1700 -0.2036
   53CHL1   C18 3875   2.033   2.196   7.897 -0.4553 -0.5724 -0.4798
   53CHL1  H18A 3876   2.076   2.296   7.921 -2.3283  0.2351 -0.2890
   53CHL1  H18B 3877   1.975   2.211   7.803  1.1399  2.0050 -1.1424
   53CHL1  H18C 3878   1.969   2.164   7.981 -0.4816  1.4781  0.3463
   53CHL1   C12 3879   2.243   2.152   7.754 -0.6360  0.2481 -0.2477
   53CHL1  H12A 3880   2.284   2.254   7.773  2.5528 -0.9135 -0.2370
   53CHL1  H12B 3881   2.324   2.077   7.744 -0.9759 -0.2188  0.4853
   53CHL1   C11 3882   2.155   2.144   7.624  0.2914 -0.6157 -0.6094
   53CHL1  H11A 3883   2.084   2.230   7.629  1.7955  0.6998 -1.0306
   53CHL1  H11B 3884   2.225   2.165   7.540  0.0421 -0.8155 -0.8690
   53CHL1    C9 3885   2.093   2.010   7.594  0.1479  0.5040  0.2443
   53CHL1    H9 3886   2.178   1.940   7.577 -1.0280 -1.0137  0.4357
   53CHL1   C10 3887   2.015   1.999   7.463  0.1007  0.3880 -0.0413
   53CHL1   C19 3888   1.934   2.124   7.440  0.1165  0.0378 -0.6941
   53CHL1  H19A 3889   2.001   2.208   7.413  1.1162 -0.4882  0.0662
   53CHL1  H19B 3890   1.868   2.121   7.351  0.1085  2.2568 -0.8068
   53CHL1  H19C 3891   1.852   2.131   7.515 -1.8386  0.3011 -2.7392
   53CHL1    C1 3892   2.116   2.001   7.349  0.0324  0.6321 -0.0162
   53CHL1   H1A 3893   2.180   2.092   7.348  1.1970 -0.1698 -0.9054
   53CHL1   H1B 3894   2.192   1.921   7.356  0.3735  0.5279 -3.3217
   53CHL1    C2 3895   2.073   1.972   7.204  0.3286  0.2412  0.2688
   53CHL1   H2A 3896   2.163   1.963   7.140  0.4890  0.4753  0.4577
   53CHL1   H2B 3897   2.013   2.050   7.151 -3.1383 -2.1028  0.4527
   53CHL1   C20 3898   2.256   2.181   8.113  0.1258 -0.5057 -0.1466
   53CHL1   H20 3899   2.166   2.246   8.112 -1.0260 -1.8733 -4.0334
   53CHL1   C21 3900   2.366   2.266   8.059 -0.1814 -0.9045  1.0197
   53CHL1  H21A 3901   2.345   2.301   7.956  0.8353  1.1968  1.4701
   53CHL1  H21B 3902   2.469   2.227   8.070  0.7798  1.2719  0.3906
   53CHL1  H21C 3903   2.375   2.359   8.120  1.4338 -0.6480  0.4343
   53CHL1   C22 3904   2.289   2.127   8.260 -0.7239 -0.1315 -0.2126
   53CHL1  H22A 3905   2.198   2.075   8.296  0.3225 -0.7522  1.7026
   53CHL1  H22B 3906   2.376   2.058   8.251 -1.2050 -0.7846  0.0117
   53CHL1   C23 3907   2.321   2.244   8.355  0.3876 -0.3690 -0.6570
   53CHL1  H23A 3908   2.408   2.311   8.338  0.6035 -0.3229  0.5256
   53CHL1  H23B 3909   2.231   2.309   8.358 -0.6111 -1.6369 -1.5795
   53CHL1   C24 3910   2.319   2.190   8.504 -0.2207  0.6758  0.2118
   53CHL1  H24A 3911   2.238   2.116   8.522  0.5690  0.2200  2.1210
   53CHL1  H24B 3912   2.412   2.130   8.504 -0.6468 -0.0082  1.1858
   53CHL1   C25 3913   2.325   2.288   8.619  0.2354 -0.3555  0.1268
   53CHL1   H25 3914   2.229   2.342   8.611 -0.0578 -0.7670  0.7972
   53CHL1   C26 3915   2.330   2.213   8.751  0.1454  0.2668  0.4341
   53CHL1  H26A 3916   2.422   2.150   8.761  0.2155 -0.1508 -2.0800
   53CHL1  H26B 3917   2.335   2.284   8.835  0.1115  3.4203 -2.0362
   53CHL1  H26C 3918   2.242   2.145   8.748  1.6231 -1.8097  1.2210
   53CHL1   C27 3919   2.440   2.394   8.611 -0.1821  0.3246  0.0971
   53CHL1  H27A 3920   2.422   2.487   8.670 -0.9070  2.3191 -3.0460
   53CHL1  H27B 3921   2.543   2.360   8.636 -0.0981  0.5556  0.0678
   53CHL1  H27C 3922   2.446   2.437   8.509 -1.0840  0.8500  0.2614
   54CHL1    C3 3923   1.087   2.895   7.290 -0.5287  0.2203  0.2044
   54CHL1    H3 3924   1.084   2.784   7.295 -0.3666  0.2394  0.7474
   54CHL1    O3 3925   1.078   2.942   7.151  0.2281 -0.5860 -0.1437
   54CHL1   H3' 3926   1.127   2.881   7.096 -1.2817  0.5200 -2.9359
   54CHL1    C4 3927   0.968   2.958   7.365  0.5819  0.5473 -0.3662
   54CHL1   H4A 3928   0.973   3.068   7.358 -2.6901  1.0253  2.2567
   54CHL1   H4B 3929   0.871   2.930   7.318  0.1048  1.2902  0.1656
   54CHL1    C5 3930   0.977   2.928   7.512 -0.0888  0.1345  0.5793
   54CHL1    C6 3931   0.870   2.867   7.575 -0.4207  0.5470  0.0044
   54CHL1    H6 3932   0.783   2.838   7.515  0.4611 -0.4519 -0.8367
   54CHL1    C7 3933   0.860   2.843   7.727 -0.5276  0.4623  0.1599
   54CHL1   H7A 3934   0.759   2.867   7.768 -2.8120 -1.5239 -3.7021
   54CHL1   H7B 3935   0.891   2.737   7.740  4.1240  1.5863 -0.0776
   54CHL1    C8 3936   0.970   2.924   7.802  0.0276  0.7478  0.1650
   54CHL1    H8 3937   0.936   3.030   7.806 -0.9569  0.4612 -0.2139
   54CHL1   C14 3938   0.977   2.876   7.946 -0.1918 -0.2660 -0.1650
   54CHL1   H14 3939   1.006   2.769   7.952 -0.3148 -0.3011 -0.2140
   54CHL1   C15 3940   0.848   2.876   8.030  0.8093  0.5055  0.3208
   54CHL1  H15A 3941   0.782   2.964   8.015 -2.0814 -1.4055  1.0265
   54CHL1  H15B 3942   0.791   2.786   7.999  2.3778 -0.0688 -1.0691
   54CHL1   C16 3943   0.898   2.860   8.177  1.0588 -0.7604 -0.4362
   54CHL1  H16A 3944   0.856   2.949   8.229  1.3396  0.7084 -2.5847
   54CHL1  H16B 3945   0.859   2.764   8.217  2.2450 -2.7081 -3.5898
   54CHL1   C17 3946   1.053   2.873   8.172  0.0083 -0.5381  1.0485
   54CHL1   H17 3947   1.091   2.768   8.171 -1.0846 -0.9910 -1.9399
   54CHL1   C13 3948   1.085   2.940   8.034  0.3438 -0.1718  0.5282
   54CHL1   C18 3949   1.068   3.094   8.041  0.8407  0.1820 -0.5648
   54CHL1  H18A 3950   0.972   3.115   8.092 -0.2397 -0.5651 -2.1901
   54CHL1  H18B 3951   1.150   3.143   8.098  0.2579  0.5418 -0.0174
   54CHL1  H18C 3952   1.072   3.141   7.940 -1.1201  0.8241 -0.3866
   54CHL1   C12 3953   1.218   2.907   7.966  0.1583 -0.1886  0.9066
   54CHL1  H12A 3954   1.312   2.935   8.018  1.8667 -2.9501 -0.4238
   54CHL1  H12B 3955   1.230   2.797   7.968  1.7732 -0.2107 -2.3817
   54CHL1   C11 3956   1.228   2.955   7.821  0.1749  0.0727 -0.6293
   54CHL1  H11A 3957   1.242   3.065   7.830 -1.1622  0.3537 -1.7253
   54CHL1  H11B 3958   1.320   2.910   7.778  1.1770 -0.0963  1.5358
   54CHL1    C9 3959   1.107   2.914   7.735 -0.0707 -0.3274  0.9390
   54CHL1    H9 3960   1.113   2.804   7.724 -2.6249 -0.4660  0.0967
   54CHL1   C10 3961   1.107   2.968   7.586 -0.5621 -0.5930 -0.2573
   54CHL1   C19 3962   1.122   3.125   7.582  0.1940  0.0085 -0.1685
   54CHL1  H19A 3963   1.103   3.166   7.481 -0.3889 -0.9395 -0.4576
   54CHL1  H19B 3964   1.056   3.171   7.659 -0.8953 -0.5072 -0.7587
   54CHL1  H19C 3965   1.228   3.147   7.606  0.5001 -1.1581 -0.3883
   54CHL1    C1 3966   1.223   2.906   7.503  0.9153  0.6943  0.3102
   54CHL1   H1A 3967   1.319   2.940   7.547  0.9596  1.9329 -0.6839
   54CHL1   H1B 3968   1.206   2.798   7.521 -1.1014  0.6556 -1.3456
   54CHL1    C2 3969   1.216   2.950   7.350  0.0371 -0.6367 -0.1911
   54CHL1   H2A 3970   1.303   2.906   7.297 -0.3966  0.0117 -1.4743
   54CHL1   H2B 3971   1.220   3.059   7.334  1.9323 -0.8677 -1.6549
   54CHL1   C20 3972   1.106   2.936   8.299 -0.3675  0.1296  0.1757
   54CHL1   H20 3973   1.070   3.041   8.302 -2.2105 -0.4510 -0.5818
   54CHL1   C21 3974   1.257   2.943   8.295  0.6576 -0.1286  0.3341
   54CHL1  H21A 3975   1.293   2.972   8.396  1.8073 -1.2083  0.2591
   54CHL1  H21B 3976   1.280   3.019   8.218  0.0332  0.6376  0.8927
   54CHL1  H21C 3977   1.308   2.852   8.254 -0.8631 -0.5977 -0.5970
   54CHL1   C22 3978   1.054   2.864   8.425 -0.9400 -0.4949  0.0932
   54CHL1  H22A 3979   0.943   2.866   8.428 -0.9491 -0.8162  0.0283
   54CHL1  H22B 3980   1.092   2.760   8.412  1.6198 -0.1744  3.6031
   54CHL1   C23 3981   1.092   2.926   8.558 -0.8778  0.2767  0.2093
   54CHL1  H23A 3982   1.034   2.878   8.640 -1.2630  0.9608  0.3458
   54CHL1  H23B 3983   1.199   2.917   8.586 -0.6988  2.9324  0.6545
   54CHL1   C24 3984   1.058   3.073   8.580  0.6087  0.1611  0.1517
   54CHL1  H24A 3985   1.106   3.152   8.518 -2.1924  1.7014 -0.2424
   54CHL1  H24B 3986   0.950   3.084   8.556  0.0869 -0.5344  1.9864
   54CHL1   C25 3987   1.077   3.115   8.729 -0.3746 -0.1383 -0.0830
   54CHL1   H25 3988   1.051   3.026   8.791 -3.1944  1.3812  1.1262
   54CHL1   C26 3989   1.228   3.142   8.765 -0.0686  0.0429  0.1184
   54CHL1  H26A 3990   1.283   3.046   8.762 -0.3387 -0.0911 -1.3182
   54CHL1  H26B 3991   1.276   3.215   8.696  0.9376 -0.3090  0.4210
   54CHL1  H26C 3992   1.240   3.189   8.865  1.8617  1.8359 -0.8630
   54CHL1   C27 3993   0.993   3.241   8.772  0.0569  0.9947 -0.0682
   54CHL1  H27A 3994   1.029   3.324   8.708 -1.3419  1.1867 -0.6462
   54CHL1  H27B 3995   0.885   3.224   8.751 -0.1727  1.1867  0.9350
   54CHL1  H27C 3996   1.000   3.263   8.880  0.2458  1.2273 -0.1283
   55CHL1    C3 3997   1.082   3.474   7.031  0.0355  0.3142  0.2827
   55CHL1    H3 3998   0.975   3.454   7.055  0.5092 -0.7263  1.6936
   55CHL1    O3 3999   1.104   3.458   6.895 -0.0139  0.5906 -0.4117
   55CHL1   H3' 4000   1.190   3.498   6.878  1.4941 -0.8524  2.9205
   55CHL1    C4 4001   1.121   3.613   7.074 -0.4780 -0.2482 -0.3088
   55CHL1   H4A 4002   1.226   3.634   7.045 -0.9500  1.1328 -1.1110
   55CHL1   H4B 4003   1.073   3.689   7.008 -0.5449  0.1338  0.1702
   55CHL1    C5 4004   1.083   3.628   7.222  0.4132  0.5409 -0.0449
   55CHL1    C6 4005   1.003   3.721   7.270  0.2081  0.1865 -0.1575
   55CHL1    H6 4006   0.956   3.781   7.191  0.2508  0.9047  0.3553
   55CHL1    C7 4007   0.978   3.761   7.410  0.0276 -0.0871  0.1748
   55CHL1   H7A 4008   0.968   3.869   7.435 -2.1232 -0.3433  0.6823
   55CHL1   H7B 4009   0.884   3.716   7.450  0.3442 -0.2052  0.7953
   55CHL1    C8 4010   1.091   3.697   7.497  0.0697  0.9335  0.4832
   55CHL1    H8 4011   1.184   3.757   7.482  0.2487  0.6544  0.4749
   55CHL1   C14 4012   1.049   3.704   7.639  0.5528 -0.0732 -0.3329
   55CHL1   H14 4013   0.961   3.637   7.649 -0.1088  0.8201 -0.0367
   55CHL1   C15 4014   1.003   3.835   7.704  1.0946 -0.8137  0.4147
   55CHL1  H15A 4015   1.070   3.913   7.662  1.3426 -1.9909 -1.4946
   55CHL1  H15B 4016   0.904   3.868   7.667  2.2444  0.7133 -1.5199
   55CHL1   C16 4017   1.012   3.803   7.857 -0.1800  1.0086  0.6316
   55CHL1  H16A 4018   1.062   3.896   7.890 -1.1942  1.8041 -0.0028
   55CHL1  H16B 4019   0.920   3.801   7.921  0.7582  0.0744  2.0215
   55CHL1   C17 4020   1.069   3.667   7.875 -0.1569 -0.3012  0.2026
   55CHL1   H17 4021   0.982   3.598   7.871 -0.8891  0.0408  4.8856
   55CHL1   C13 4022   1.146   3.641   7.738  0.1286 -0.1833 -0.2148
   55CHL1   C18 4023   1.292   3.705   7.747 -0.7523  0.2596 -0.3289
   55CHL1  H18A 4024   1.332   3.718   7.644  1.2233  0.6675  0.4503
   55CHL1  H18B 4025   1.292   3.809   7.784  3.5126 -0.6256  2.9790
   55CHL1  H18C 4026   1.367   3.644   7.801 -2.6869 -1.5353  0.4635
   55CHL1   C12 4027   1.155   3.491   7.704  0.5555 -0.3973 -0.7536
   55CHL1  H12A 4028   1.227   3.439   7.770 -0.9795 -0.9300  0.5662
   55CHL1  H12B 4029   1.061   3.436   7.727  1.7292 -2.0781  0.2612
   55CHL1   C11 4030   1.208   3.462   7.562  0.3860 -0.5565 -0.2738
   55CHL1  H11A 4031   1.313   3.498   7.554  0.7707 -1.1884  1.4443
   55CHL1  H11B 4032   1.213   3.360   7.517 -0.7603  0.7311 -3.6184
   55CHL1    C9 4033   1.119   3.548   7.463 -0.0714  0.0945  0.2169
   55CHL1    H9 4034   1.020   3.501   7.479 -0.4808  0.7054 -0.4452
   55CHL1   C10 4035   1.171   3.536   7.315  0.1789  0.4285 -0.4981
   55CHL1   C19 4036   1.328   3.576   7.312  0.3484 -0.2168  0.3325
   55CHL1  H19A 4037   1.347   3.676   7.357  1.3231 -0.0696 -0.3776
   55CHL1  H19B 4038   1.391   3.501   7.365 -0.9423 -2.3958 -1.0775
   55CHL1  H19C 4039   1.369   3.585   7.209  1.9034 -0.3468  0.9038
   55CHL1    C1 4040   1.162   3.389   7.263  0.4598  0.1914  0.0569
   55CHL1   H1A 4041   1.237   3.317   7.302 -0.3237 -0.0912  1.1139
   55CHL1   H1B 4042   1.061   3.356   7.296  0.9538 -0.5360  0.9035
   55CHL1    C2 4043   1.165   3.372   7.107 -0.4157  0.0761 -0.4556
   55CHL1   H2A 4044   1.126   3.271   7.085 -1.8708  0.8633 -1.6847
   55CHL1   H2B 4045   1.274   3.387   7.089 -0.2769  0.7641  0.8532
   55CHL1   C20 4046   1.134   3.643   8.014 -0.3951 -0.2262  0.5654
   55CHL1   H20 4047   1.234   3.691   8.024 -0.0624 -0.7224 -0.2270
   55CHL1   C21 4048   1.148   3.492   8.037 -0.4300  0.2019  0.8194
   55CHL1  H21A 4049   1.052   3.436   8.036 -0.1695 -0.3128 -1.3219
   55CHL1  H21B 4050   1.212   3.478   8.127 -0.5371  0.8151  0.9905
   55CHL1  H21C 4051   1.216   3.454   7.958 -1.9914  2.2655 -1.6511
   55CHL1   C22 4052   1.056   3.712   8.132  0.8192 -0.7060 -0.3379
   55CHL1  H22A 4053   1.077   3.820   8.114 -0.0845 -0.7457 -1.8370
   55CHL1  H22B 4054   0.949   3.683   8.123  0.8660 -1.5020  1.3412
   55CHL1   C23 4055   1.112   3.675   8.271  0.5453  0.3893  0.1458
   55CHL1  H23A 4056   1.111   3.565   8.281  2.5360  0.3756  0.6030
   55CHL1  H23B 4057   1.222   3.692   8.275  0.6141 -0.0235  0.0211
   55CHL1   C24 4058   1.036   3.753   8.383  0.3097 -0.4871  0.3188
   55CHL1  H24A 4059   1.052   3.861   8.362 -2.7822 -0.3411 -2.0741
   55CHL1  H24B 4060   0.926   3.738   8.375  0.5442 -1.2675 -2.6229
   55CHL1   C25 4061   1.090   3.702   8.523 -1.0935 -0.3030 -0.1071
   55CHL1   H25 4062   1.200   3.691   8.522 -1.1349 -0.7436  0.0621
   55CHL1   C26 4063   1.052   3.795   8.634  0.3941 -0.0648 -0.1123
   55CHL1  H26A 4064   0.942   3.784   8.639  0.4181 -0.9693 -1.1497
   55CHL1  H26B 4065   1.099   3.770   8.732  0.9321 -0.4813 -0.4696
   55CHL1  H26C 4066   1.076   3.901   8.610 -2.5143  0.8102  0.4884
   55CHL1   C27 4067   1.025   3.571   8.557  0.1394 -0.3436 -0.1981
   55CHL1  H27A 4068   0.915   3.576   8.573 -0.3098 -0.0990 -2.8334
   55CHL1  H27B 4069   1.034   3.497   8.474  0.3425 -0.8159  0.2355
   55CHL1  H27C 4070   1.065   3.530   8.652 -0.5770 -0.0450  0.2399
   56CHL1    C3 4071   1.716   2.513   7.069 -0.2207  0.2401  0.2506
   56CHL1    H3 4072   1.653   2.424   7.090  0.6127  0.0516  2.1622
   56CHL1    O3 4073   1.730   2.515   6.930  0.1236  0.2185 -0.3223
   56CHL1   H3' 4074   1.776   2.597   6.909  0.5085 -0.4549 -2.3655
   56CHL1    C4 4075   1.665   2.644   7.128  0.0940  0.4617  0.5120
   56CHL1   H4A 4076   1.724   2.728   7.087 -1.8739  1.1735 -0.9810
   56CHL1   H4B 4077   1.564   2.654   7.084  0.2611 -1.2322 -0.3402
   56CHL1    C5 4078   1.654   2.638   7.279  0.1039 -0.2761 -0.2972
   56CHL1    C6 4079   1.542   2.662   7.349 -0.3024  0.5480  0.5545
   56CHL1    H6 4080   1.451   2.694   7.296 -0.7738 -1.8612 -0.2272
   56CHL1    C7 4081   1.537   2.663   7.496  0.2412 -0.1076  0.4833
   56CHL1   H7A 4082   1.480   2.754   7.525  1.5751  0.5054  1.2780
   56CHL1   H7B 4083   1.485   2.574   7.538  0.9215 -0.7060  0.0784
   56CHL1    C8 4084   1.671   2.669   7.562  0.2073 -0.0569 -0.2106
   56CHL1    H8 4085   1.701   2.774   7.540  4.2728 -0.8327  0.7330
   56CHL1   C14 4086   1.647   2.645   7.704 -0.5637  0.2475 -0.4853
   56CHL1   H14 4087   1.612   2.542   7.728 -1.3276  0.7342  0.6043
   56CHL1   C15 4088   1.545   2.734   7.781  0.1549  0.0465  0.0838
   56CHL1  H15A 4089   1.547   2.841   7.750 -0.2840  0.2467  0.7187
   56CHL1  H15B 4090   1.439   2.702   7.771  0.0965  0.3773 -0.4000
   56CHL1   C16 4091   1.591   2.727   7.925  0.0549  0.2786 -0.2676
   56CHL1  H16A 4092   1.612   2.832   7.955 -0.1485 -0.0650  1.1556
   56CHL1  H16B 4093   1.504   2.688   7.983 -0.2136  0.6763 -0.3952
   56CHL1   C17 4094   1.716   2.636   7.936 -0.5769  0.5085  0.3118
   56CHL1   H17 4095   1.680   2.531   7.943 -1.7259  0.9088  0.6993
   56CHL1   C13 4096   1.776   2.643   7.789 -0.1351  0.8657  0.2114
   56CHL1   C18 4097   1.848   2.777   7.791 -0.2980 -0.2427  0.0035
   56CHL1  H18A 4098   1.937   2.778   7.858 -0.6980 -1.2412  0.5797
   56CHL1  H18B 4099   1.881   2.801   7.688  1.4989 -0.3156  0.5262
   56CHL1  H18C 4100   1.782   2.860   7.822  2.4435  2.7044 -1.4718
   56CHL1   C12 4101   1.871   2.527   7.738 -0.6748  0.2399  0.5154
   56CHL1  H12A 4102   1.963   2.522   7.799 -1.1171  3.9515  1.7026
   56CHL1  H12B 4103   1.816   2.431   7.751  1.0606 -1.0793 -1.3434
   56CHL1   C11 4104   1.893   2.545   7.584 -0.3209  0.2319 -0.2806
   56CHL1  H11A 4105   1.971   2.624   7.575 -0.0494  0.5035  2.9914
   56CHL1  H11B 4106   1.944   2.454   7.545 -0.0574  0.8910 -1.5105
   56CHL1    C9 4107   1.760   2.567   7.502  0.3492 -0.1437 -0.5165
   56CHL1    H9 4108   1.708   2.468   7.503 -0.8229  0.4424 -1.2278
   56CHL1   C10 4109   1.787   2.597   7.353  0.5109 -0.5066  0.4946
   56CHL1   C19 4110   1.881   2.719   7.346 -0.0678 -0.3669 -0.2335
   56CHL1  H19A 4111   1.983   2.682   7.369 -0.3032 -0.4574  0.7142
   56CHL1  H19B 4112   1.893   2.758   7.243  2.8076 -3.6411 -1.3465
   56CHL1  H19C 4113   1.843   2.792   7.421 -2.5153 -0.6093 -1.1578
   56CHL1    C1 4114   1.851   2.477   7.278  0.1380 -1.1050 -0.0978
   56CHL1   H1A 4115   1.958   2.470   7.307  0.7489 -2.1174 -2.3866
   56CHL1   H1B 4116   1.794   2.393   7.324 -2.3327  1.4335  1.8609
   56CHL1    C2 4117   1.850   2.484   7.125  0.5688  0.7024  0.4291
   56CHL1   H2A 4118   1.897   2.396   7.076  2.4963  1.7981  0.2188
   56CHL1   H2B 4119   1.921   2.563   7.096 -0.0983  1.6658  1.3231
   56CHL1   C20 4120   1.807   2.655   8.062  0.1386  0.1464 -0.6365
   56CHL1   H20 4121   1.888   2.729   8.047 -0.4641  0.7547 -0.9481
   56CHL1   C21 4122   1.863   2.517   8.093  0.4338 -0.2034 -0.0725
   56CHL1  H21A 4123   1.789   2.441   8.123  0.3530 -0.0491  0.1265
   56CHL1  H21B 4124   1.938   2.531   8.174 -1.0310 -0.9508  1.4753
   56CHL1  H21C 4125   1.906   2.480   7.998  0.3623  1.7521 -0.9288
   56CHL1   C22 4126   1.726   2.711   8.191 -0.4640  1.0561  0.8958
   56CHL1  H22A 4127   1.799   2.725   8.273  0.7611 -2.1648  0.4812
   56CHL1  H22B 4128   1.691   2.813   8.162 -1.2650  0.7297  0.6765
   56CHL1   C23 4129   1.620   2.617   8.249  0.3309 -0.8271  0.3977
   56CHL1  H23A 4130   1.545   2.580   8.176 -0.3618 -0.3658  0.8725
   56CHL1  H23B 4131   1.674   2.530   8.293  0.8183  0.0545  1.5909
   56CHL1   C24 4132   1.552   2.680   8.375 -0.3659  0.7772 -0.5361
   56CHL1  H24A 4133   1.611   2.727   8.457 -4.2486  1.5817  2.0348
   56CHL1  H24B 4134   1.497   2.760   8.321 -1.7683  0.2341  0.0541
   56CHL1   C25 4135   1.444   2.589   8.455 -0.3020  0.4402  0.5301
   56CHL1   H25 4136   1.388   2.653   8.526  2.3973  0.7055  2.5648
   56CHL1   C26 4137   1.334   2.533   8.362 -0.5006  0.3237 -0.1770
   56CHL1  H26A 4138   1.381   2.473   8.281 -0.0264 -0.6784  0.8241
   56CHL1  H26B 4139   1.258   2.608   8.330 -0.5614  0.3729  0.0836
   56CHL1  H26C 4140   1.277   2.462   8.425 -0.9206  0.2979 -0.5849
   56CHL1   C27 4141   1.518   2.479   8.542 -0.1646 -0.7240 -0.3134
   56CHL1  H27A 4142   1.442   2.431   8.607 -2.0012  0.4372 -1.4960
   56CHL1  H27B 4143   1.548   2.395   8.476 -0.1388 -1.7004  0.9035
   56CHL1  H27C 4144   1.606   2.523   8.593 -0.5590  1.4764 -1.3883
   57SAPC     N 4145   6.632   6.306  10.941 -0.8302  0.1437 -0.0801
   57SAPC   C12 4146   6.709   6.381  10.829  0.7404  0.4287 -0.1807
   57SAPC  H12A 4147   6.690   6.317  10.744 -0.5170 -2.1452  1.8809
   57SAPC  H12B 4148   6.814   6.363  10.842  0.7467  0.2645 -0.4522
   57SAPC   C13 4149   6.659   6.162  10.914 -0.0095  0.0097 -0.5816
   57SAPC  H13A 4150   6.761   6.144  10.882  0.0303 -1.6234  0.3879
   57SAPC  H13B 4151   6.638   6.103  11.001 -2.6605 -2.6121 -2.7811
   57SAPC  H13C 4152   6.595   6.124  10.836  1.5400  0.3597 -2.0883
   57SAPC   C14 4153   6.700   6.343  11.064 -0.1038 -1.2912 -0.5689
   57SAPC  H14A 4154   6.803   6.314  11.047  0.2223  0.8268 -2.6743
   57SAPC  H14B 4155   6.697   6.450  11.080 -1.2731 -1.4247  0.1807
   57SAPC  H14C 4156   6.654   6.302  11.153 -0.2976  0.1163 -0.0021
   57SAPC   C15 4157   6.491   6.327  10.930  0.5270 -0.1911 -0.0869
   57SAPC  H15A 4158   6.445   6.291  10.839  1.7311  0.8868 -1.1665
   57SAPC  H15B 4159   6.453   6.288  11.024 -0.3401  4.1505  1.5791
   57SAPC  H15C 4160   6.467   6.432  10.930 -1.3834 -0.5869  0.4436
   57SAPC   C11 4161   6.672   6.526  10.798  0.5868 -0.9550 -0.6419
   57SAPC  H11A 4162   6.581   6.530  10.735  1.5440  0.1472 -2.0253
   57SAPC  H11B 4163   6.761   6.556  10.738 -1.1130  0.5913 -2.5474
   57SAPC     P 4164   6.548   6.717  10.935  0.3887 -0.1201 -0.1707
   57SAPC   O13 4165   6.416   6.654  10.951  0.4087  0.1680  0.0440
   57SAPC   O14 4166   6.585   6.801  11.051 -0.1233 -0.4207 -0.1732
   57SAPC   O12 4167   6.661   6.610  10.916  0.4287  0.3053 -0.6676
   57SAPC   O11 4168   6.550   6.800  10.799  0.5174  0.3898 -0.7287
   57SAPC    C1 4169   6.665   6.881  10.780 -0.3670  0.0158 -1.1018
   57SAPC    HA 4170   6.659   6.970  10.845 -1.7351 -1.1230  0.4000
   57SAPC    HB 4171   6.758   6.835  10.820 -0.8602  1.6562  2.2385
   57SAPC    C2 4172   6.695   6.933  10.634  1.1012 -0.4781 -0.6375
   57SAPC    HS 4173   6.623   7.015  10.615  1.8589  0.5346  0.6878
   57SAPC   O21 4174   6.683   6.821  10.543 -0.4468 -0.1912 -0.1685
   57SAPC   C21 4175   6.563   6.810  10.474 -0.5406 -1.0808  0.2639
   57SAPC   O22 4176   6.472   6.888  10.489  0.3153  0.0432  0.1171
   57SAPC   C22 4177   6.573   6.693  10.376  0.1218 -0.3168  0.5408
   57SAPC   H2R 4178   6.672   6.696  10.325 -0.5203  0.9987 -0.7063
   57SAPC   H2S 4179   6.584   6.603  10.440  0.0329 -0.2868  0.5985
   57SAPC    C3 4180   6.839   6.994  10.604  0.0409 -0.5740 -0.6369
   57SAPC    HX 4181   6.913   6.912  10.618 -0.4505 -0.8772  0.2646
   57SAPC    HY 4182   6.847   7.066  10.689 -0.6033 -1.6291  0.3359
   57SAPC   O31 4183   6.840   7.066  10.479 -0.1564  0.4041  0.1630
   57SAPC   C31 4184   6.904   7.006  10.378 -0.7336  0.1844 -0.1242
   57SAPC   O32 4185   6.969   6.901  10.375  0.8741  0.3201  0.2188
   57SAPC   C32 4186   6.882   7.102  10.262 -0.4248  0.4159  0.2393
   57SAPC   H2X 4187   6.962   7.178  10.273  0.1632  0.0030 -0.9184
   57SAPC   H2Y 4188   6.782   7.149  10.270 -0.7680 -0.4969  1.8779
   57SAPC   C23 4189   6.461   6.674  10.272 -0.2653 -0.2571  0.1024
   57SAPC   H3R 4190   6.481   6.742  10.186 -0.4626  0.6792  0.7855
   57SAPC   H3S 4191   6.369   6.704  10.327  0.3742 -0.4239  1.2939
   57SAPC   C24 4192   6.430   6.529  10.230 -0.1046 -0.0950  0.6608
   57SAPC   H4R 4193   6.337   6.534  10.169  0.4474 -2.0216 -0.4359
   57SAPC   H4S 4194   6.407   6.466  10.319 -3.3976  1.3326  0.9486
   57SAPC   C25 4195   6.543   6.444  10.166 -0.2297  0.0351 -0.1371
   57SAPC   H5R 4196   6.584   6.365  10.231 -1.6731 -0.8661 -0.2668
   57SAPC   C26 4197   6.595   6.461  10.044  0.3945  0.7470  0.8740
   57SAPC   H6R 4198   6.667   6.387  10.006 -0.8141  0.7985 -1.7014
   57SAPC   C27 4199   6.552   6.574   9.950  0.5656  0.0804 -0.3183
   57SAPC   H7R 4200   6.477   6.642   9.995  0.5699  0.6337 -1.1236
   57SAPC   H7S 4201   6.510   6.528   9.858  4.2273 -0.5736 -1.8787
   57SAPC   C28 4202   6.660   6.661   9.899 -0.9108  0.4016  0.8195
   57SAPC   H8R 4203   6.729   6.706   9.972 -1.1372 -0.2902  1.4729
   57SAPC   C29 4204   6.689   6.690   9.763  0.2270 -0.0359 -0.0621
   57SAPC   H9R 4205   6.773   6.757   9.739  0.2747  0.5084  1.5173
   57SAPC  C210 4206   6.617   6.635   9.637 -0.1556  0.1524 -0.1472
   57SAPC  H10R 4207   6.534   6.702   9.609  0.7249  1.0876 -0.5704
   57SAPC  H10S 4208   6.569   6.537   9.660  3.1389 -0.7274  4.5931
   57SAPC  C211 4209   6.706   6.617   9.522 -0.6820  0.2806 -0.4968
   57SAPC  H11R 4210   6.768   6.526   9.515 -0.1264  0.5513  0.6366
   57SAPC  C212 4211   6.736   6.713   9.428  0.2572  0.3412 -0.4966
   57SAPC  H12R 4212   6.807   6.681   9.350  0.0309 -0.5265 -0.3572
   57SAPC  C213 4213   6.686   6.854   9.431 -0.5717 -0.5067  0.0722
   57SAPC  H13R 4214   6.769   6.921   9.402  1.3951 -2.6310  0.5388
   57SAPC  H13S 4215   6.655   6.882   9.534 -0.0050  0.2518  0.0446
   57SAPC  C214 4216   6.561   6.866   9.340 -0.5443  0.5778 -0.0647
   57SAPC  H14R 4217   6.467   6.822   9.378 -0.8915  0.1682 -1.3208
   57SAPC  C215 4218   6.559   6.926   9.213  0.4839 -0.1812 -0.1523
   57SAPC  H15R 4219   6.463   6.945   9.162  0.7460 -1.5507 -1.2036
   57SAPC  C216 4220   6.680   6.983   9.139 -0.1157  0.1106 -0.1654
   57SAPC  H16R 4221   6.763   6.997   9.212 -0.3730  0.1145  0.1264
   57SAPC  H16S 4222   6.650   7.085   9.106  0.3696  0.4336  0.3587
   57SAPC  C217 4223   6.720   6.887   9.027  0.1146 -0.9148 -0.1635
   57SAPC  H17R 4224   6.746   6.787   9.067 -0.8139 -0.8990  0.5163
   57SAPC  H17S 4225   6.812   6.939   8.995  1.3522 -1.4238  2.2835
   57SAPC  C218 4226   6.614   6.883   8.922 -0.3064 -0.0746  0.6554
   57SAPC  H18R 4227   6.578   6.985   8.897  0.7785  0.3536  0.7744
   57SAPC  H18S 4228   6.532   6.823   8.968 -0.7213 -1.2347 -1.4675
   57SAPC  C219 4229   6.671   6.803   8.800 -0.6660 -0.7001  0.0531
   57SAPC  H19R 4230   6.673   6.693   8.816 -0.0305 -1.0435 -2.0192
   57SAPC  H19S 4231   6.771   6.844   8.774 -0.3665 -1.9340 -0.8379
   57SAPC  C220 4232   6.570   6.802   8.683 -0.5163 -0.0384  0.0289
   57SAPC  H20R 4233   6.589   6.718   8.613 -1.7875 -1.5688  1.4157
   57SAPC  H20S 4234   6.580   6.900   8.632 -1.3117 -0.6424 -1.3499
   57SAPC  H20T 4235   6.466   6.795   8.722 -0.7615 -1.0352 -0.7673
   57SAPC   C33 4236   6.911   7.040  10.119  0.3099 -0.3703 -0.0589
   57SAPC   H3X 4237   6.838   6.957  10.109 -0.2119  0.1744 -0.9036
   57SAPC   H3Y 4238   7.009   6.988  10.130  1.7245  2.3457  0.9170
   57SAPC   C34 4239   6.920   7.143  10.009  0.2433 -0.1854  0.7271
   57SAPC   H4X 4240   6.991   7.223  10.038  0.5731 -0.4358  0.6093
   57SAPC   H4Y 4241   6.823   7.192   9.985  0.6441  0.7086  0.8798
   57SAPC   C35 4242   6.968   7.064   9.882 -0.0627 -0.1549  0.7352
   57SAPC   H5X 4243   6.898   6.987   9.845  0.7944 -0.0907 -1.1039
   57SAPC   H5Y 4244   7.059   7.008   9.914  0.1268  1.2780  2.9800
   57SAPC   C36 4245   7.008   7.145   9.756  0.0058  0.3861 -0.1055
   57SAPC   H6X 4246   7.064   7.085   9.681 -0.8355 -0.3423 -0.1738
   57SAPC   H6Y 4247   7.091   7.218   9.765  0.6451 -0.0393 -2.1079
   57SAPC   C37 4248   6.892   7.219   9.683 -0.3787  0.4327  0.4682
   57SAPC   H7X 4249   6.844   7.283   9.761  0.2092  0.7469  0.5752
   57SAPC   H7Y 4250   6.821   7.138   9.655  1.0629 -0.2152 -1.5787
   57SAPC   C38 4251   6.952   7.279   9.558 -0.0635  0.1231  0.5951
   57SAPC   H8X 4252   7.012   7.204   9.503  1.6068  1.1525  0.9390
   57SAPC   H8Y 4253   7.026   7.354   9.591  0.5842  0.8034 -2.1496
   57SAPC   C39 4254   6.856   7.361   9.469 -0.4647 -0.1959  0.0519
   57SAPC   H9X 4255   6.913   7.435   9.409 -0.3000 -0.4737 -0.1368
   57SAPC   H9Y 4256   6.784   7.422   9.528 -1.4670  0.5763 -1.8710
   57SAPC  C310 4257   6.791   7.263   9.369  0.4501 -0.2988 -0.4003
   57SAPC  H10X 4258   6.726   7.187   9.417 -0.8061  2.7870  3.3069
   57SAPC  H10Y 4259   6.877   7.221   9.313 -0.5255 -2.4820 -0.3361
   57SAPC  C311 4260   6.699   7.338   9.265  0.1018 -0.0249 -0.5002
   57SAPC  H11X 4261   6.642   7.394   9.343 -0.3665 -0.9112 -0.1885
   57SAPC  H11Y 4262   6.631   7.265   9.215  0.3791  0.4026 -1.5265
   57SAPC  C312 4263   6.776   7.422   9.168  0.0457  0.0691  0.1277
   57SAPC  H12X 4264   6.860   7.474   9.217 -0.2390  1.5341 -0.8672
   57SAPC  H12Y 4265   6.711   7.501   9.124  3.2081  3.7474  1.5734
   57SAPC  C313 4266   6.842   7.337   9.055 -0.0821  0.5712  0.6462
   57SAPC  H13X 4267   6.765   7.282   8.998 -0.8310  1.9234  0.3110
   57SAPC  H13Y 4268   6.894   7.246   9.092 -1.3433 -0.4643 -0.0366
   57SAPC  C314 4269   6.942   7.416   8.971  0.2130  0.3193  0.4997
   57SAPC  H14X 4270   7.036   7.430   9.027  2.2104 -0.0374 -2.4983
   57SAPC  H14Y 4271   6.903   7.514   8.938  1.2253  0.7673  0.6209
   57SAPC  C315 4272   6.986   7.341   8.840 -0.1787 -0.0343  0.9701
   57SAPC  H15X 4273   6.893   7.316   8.784 -0.7967  2.7172  0.6021
   57SAPC  H15Y 4274   7.042   7.252   8.874  1.5154  1.7591  3.2236
   57SAPC  C316 4275   7.067   7.421   8.745 -0.0826  0.3498  0.1275
   57SAPC  H16X 4276   7.172   7.411   8.778  0.7600 -2.5057 -2.8702
   57SAPC  H16Y 4277   7.030   7.526   8.740 -0.0045  0.4739  1.7069
   57SAPC  C317 4278   7.067   7.357   8.608  0.2807 -1.0345  0.2962
   57SAPC  H17X 4279   6.965   7.363   8.563  0.9344 -1.4812 -1.2996
   57SAPC  H17Y 4280   7.093   7.249   8.615  2.2596 -0.7716 -1.8354
   57SAPC  C318 4281   7.163   7.427   8.508  0.1003  0.2109  0.4832
   57SAPC  H18X 4282   7.130   7.413   8.403  1.7583  0.7891 -0.1406
   57SAPC  H18Y 4283   7.269   7.397   8.510  0.4321  0.9575 -2.1759
   57SAPC  H18Z 4284   7.153   7.537   8.522  3.0842  0.3079  2.7536
   58SAPC     N 4285   3.139   5.997  11.231  0.1841  0.4901 -0.4356
   58SAPC   C12 4286   3.219   5.968  11.111 -0.5581  1.0542 -0.6390
   58SAPC  H12A 4287   3.234   5.862  11.098 -1.2313  0.9325 -0.4470
   58SAPC  H12B 4288   3.319   6.005  11.131 -0.5004  1.1229 -1.0464
   58SAPC   C13 4289   3.215   5.962  11.358 -0.0261 -0.9607 -0.3920
   58SAPC  H13A 4290   3.261   5.864  11.353  0.4149 -0.7867  0.2169
   58SAPC  H13B 4291   3.295   6.034  11.366 -0.2050 -0.9240  1.4550
   58SAPC  H13C 4292   3.156   5.971  11.448  1.8009  0.0577  0.7641
   58SAPC   C14 4293   3.087   6.138  11.245 -0.6037  0.6786  0.1255
   58SAPC  H14A 4294   2.984   6.125  11.276 -1.2835  0.8154 -1.8856
   58SAPC  H14B 4295   3.154   6.187  11.314  1.2320 -1.0259 -0.3707
   58SAPC  H14C 4296   3.098   6.187  11.149 -1.3052 -0.2632 -0.4470
   58SAPC   C15 4297   3.016   5.902  11.237  0.2873  0.4104  0.5909
   58SAPC  H15A 4298   2.974   5.920  11.140 -0.0251 -0.4319  0.5578
   58SAPC  H15B 4299   3.036   5.796  11.227  1.4622  0.7878 -1.7189
   58SAPC  H15C 4300   2.962   5.921  11.328 -1.6490 -2.0342  0.0568
   58SAPC   C11 4301   3.176   6.018  10.967  0.0978  0.3776  0.3583
   58SAPC  H11A 4302   3.255   6.001  10.890  0.4970 -1.4209  1.1122
   58SAPC  H11B 4303   3.156   6.127  10.979 -2.0393  0.3650 -2.1358
   58SAPC     P 4304   2.941   6.010  10.837  0.0014  0.3092  0.2183
   58SAPC   O13 4305   2.839   5.902  10.828  0.8730 -1.0854  0.2295
   58SAPC   O14 4306   2.898   6.135  10.895 -0.1492  0.3362 -0.1471
   58SAPC   O12 4307   3.061   5.946  10.924 -0.0273 -0.3389  0.7602
   58SAPC   O11 4308   3.007   6.030  10.697  0.0055 -0.2657 -0.6177
   58SAPC    C1 4309   3.095   5.930  10.645  0.5512 -0.8670 -0.0584
   58SAPC    HA 4310   3.189   5.924  10.704  1.2941  4.4005 -0.1517
   58SAPC    HB 4311   3.031   5.839  10.643  0.2371 -0.7047  1.3289
   58SAPC    C2 4312   3.135   5.952  10.489  0.1748 -0.2093 -0.6012
   58SAPC    HS 4313   3.227   5.892  10.473  0.8160  0.8148 -0.8003
   58SAPC   O21 4314   3.160   6.093  10.472 -0.0095  0.3946 -0.1253
   58SAPC   C21 4315   3.273   6.143  10.502 -0.0897  0.1546 -0.7479
   58SAPC   O22 4316   3.367   6.080  10.549 -0.8373 -0.0767 -0.5179
   58SAPC   C22 4317   3.264   6.293  10.486  0.3713  0.6139 -0.1300
   58SAPC   H2R 4318   3.174   6.328  10.541 -0.2480  0.4892 -1.0302
   58SAPC   H2S 4319   3.347   6.348  10.535 -0.1637 -0.1584  1.7105
   58SAPC    C3 4320   3.021   5.901  10.397  0.0565 -0.5810  0.3249
   58SAPC    HX 4321   2.923   5.953  10.408  0.2295 -0.5111  1.7172
   58SAPC    HY 4322   3.014   5.791  10.411  0.9228 -0.5916  0.7123
   58SAPC   O31 4323   3.042   5.922  10.252 -0.3535 -0.0053 -0.8176
   58SAPC   C31 4324   3.138   5.859  10.198 -0.3550 -0.4571  0.1822
   58SAPC   O32 4325   3.207   5.777  10.256 -0.0392  0.5034 -0.9753
   58SAPC   C32 4326   3.153   5.903  10.051  0.7709  0.7824  0.1839
   58SAPC   H2X 4327   3.177   6.011  10.043  0.8041  0.8412  0.9462
   58SAPC   H2Y 4328   3.053   5.888  10.005  1.2679 -0.4910 -0.5334
   58SAPC   C23 4329   3.250   6.334  10.341  0.5205 -0.4458  0.2902
   58SAPC   H3R 4330   3.204   6.435  10.330  3.2969  0.8266 -0.7290
   58SAPC   H3S 4331   3.185   6.253  10.302  0.0928 -1.5199  3.0149
   58SAPC   C24 4332   3.384   6.344  10.272  0.7790  0.6760  0.3434
   58SAPC   H4R 4333   3.367   6.332  10.163 -1.8269 -1.4769  0.8767
   58SAPC   H4S 4334   3.447   6.258  10.302 -1.3183 -0.7676  0.8422
   58SAPC   C25 4335   3.454   6.471  10.308 -0.2943 -0.3677  0.0494
   58SAPC   H5R 4336   3.483   6.479  10.414 -0.0326 -3.5547  0.3030
   58SAPC   C26 4337   3.471   6.573  10.223  0.0560 -0.2871  0.1896
   58SAPC   H6R 4338   3.518   6.664  10.264  1.6515 -1.3704  0.8319
   58SAPC   C27 4339   3.419   6.572  10.082 -0.5477 -0.4767 -0.0181
   58SAPC   H7R 4340   3.309   6.554  10.084 -0.3121 -2.0623  0.1105
   58SAPC   H7S 4341   3.452   6.485  10.020  1.8643  0.5176 -0.2395
   58SAPC   C28 4342   3.437   6.700  10.008  0.3634 -0.6165  0.4004
   58SAPC   H8R 4343   3.491   6.778  10.064  1.3530 -0.4515 -0.7462
   58SAPC   C29 4344   3.389   6.726   9.880 -0.2539  0.0111 -0.6139
   58SAPC   H9R 4345   3.409   6.825   9.835 -1.5135 -0.1176 -1.5083
   58SAPC  C210 4346   3.311   6.628   9.794 -0.5295 -0.5001  0.5659
   58SAPC  H10R 4347   3.240   6.681   9.728  1.9448 -0.1085 -1.9535
   58SAPC  H10S 4348   3.256   6.556   9.859 -1.7641 -0.2914 -0.2343
   58SAPC  C211 4349   3.399   6.548   9.706  0.3379  0.2173  0.0576
   58SAPC  H11R 4350   3.471   6.477   9.750  1.9525  0.8721 -1.4281
   58SAPC  C212 4351   3.410   6.564   9.570 -0.8477 -0.0969  0.3318
   58SAPC  H12R 4352   3.467   6.489   9.512 -0.0125  1.7113 -1.3106
   58SAPC  C213 4353   3.342   6.667   9.479 -0.2786 -0.1751  0.0989
   58SAPC  H13R 4354   3.355   6.763   9.534  0.0741  0.9154 -1.7753
   58SAPC  H13S 4355   3.236   6.634   9.479 -0.5816  0.7558  0.9510
   58SAPC  C214 4356   3.397   6.675   9.342  0.4259 -0.9257 -0.6772
   58SAPC  H14R 4357   3.507   6.676   9.347  0.4148  1.1810  0.3129
   58SAPC  C215 4358   3.329   6.684   9.227  0.3151 -0.7060  0.1944
   58SAPC  H15R 4359   3.383   6.692   9.132 -0.0699  2.2062  0.1356
   58SAPC  C216 4360   3.178   6.705   9.225 -0.2087 -0.0493  0.4139
   58SAPC  H16R 4361   3.142   6.768   9.309  0.8614  1.5505 -0.2888
   58SAPC  H16S 4362   3.131   6.604   9.223  1.5666 -0.9052 -0.6337
   58SAPC  C217 4363   3.126   6.787   9.102 -0.3694 -0.2814  0.1971
   58SAPC  H17R 4364   3.176   6.886   9.097  1.1245 -0.9303  1.4888
   58SAPC  H17S 4365   3.022   6.808   9.136 -0.2078 -3.1675  2.9505
   58SAPC  C218 4366   3.122   6.706   8.971  0.2593 -0.0330  0.0551
   58SAPC  H18R 4367   3.062   6.614   8.986 -1.4863  1.0167 -0.2304
   58SAPC  H18S 4368   3.226   6.684   8.939  0.0898 -2.8499  1.1381
   58SAPC  C219 4369   3.056   6.787   8.857 -0.1282 -0.4208  0.5297
   58SAPC  H19R 4370   3.119   6.872   8.825  1.9014 -2.3351 -0.8654
   58SAPC  H19S 4371   2.971   6.838   8.907 -1.0618 -0.3202 -1.0931
   58SAPC  C220 4372   3.016   6.706   8.736  0.1186  0.8375 -0.0785
   58SAPC  H20R 4373   3.099   6.672   8.671 -1.6307 -1.6847 -1.1466
   58SAPC  H20S 4374   2.936   6.753   8.674 -0.5814 -0.2866 -0.0484
   58SAPC  H20T 4375   2.963   6.614   8.767 -0.0068  0.4867 -1.2825
   58SAPC   C33 4376   3.252   5.807   9.983 -0.1873 -0.1466 -0.3144
   58SAPC   H3X 4377   3.243   5.705  10.026 -0.3001  0.0611  0.1654
   58SAPC   H3Y 4378   3.353   5.841  10.014 -0.0675 -0.4195 -0.4123
   58SAPC   C34 4379   3.252   5.815   9.833 -0.5983 -0.9415 -0.1042
   58SAPC   H4X 4380   3.309   5.731   9.787  0.0343 -0.5804  0.0055
   58SAPC   H4Y 4381   3.310   5.902   9.797  1.3279 -2.6052 -1.2403
   58SAPC   C35 4382   3.121   5.819   9.757 -0.4222 -0.4864 -0.5954
   58SAPC   H5X 4383   3.043   5.891   9.791 -0.4402 -0.5446 -0.5138
   58SAPC   H5Y 4384   3.074   5.719   9.755 -2.3571  0.3665 -0.1856
   58SAPC   C36 4385   3.160   5.851   9.614  0.2823 -0.5684 -0.1102
   58SAPC   H6X 4386   3.214   5.948   9.607 -1.3653  0.4207  0.3083
   58SAPC   H6Y 4387   3.065   5.868   9.558  0.2432 -0.0571  0.1058
   58SAPC   C37 4388   3.248   5.753   9.537 -0.1478 -0.3687 -0.7066
   58SAPC   H7X 4389   3.194   5.656   9.534  2.9049 -2.1936 -3.6248
   58SAPC   H7Y 4390   3.351   5.742   9.576 -0.4723 -0.1019  0.2534
   58SAPC   C38 4391   3.256   5.798   9.391  0.5244  0.2237  0.6053
   58SAPC   H8X 4392   3.275   5.906   9.375 -3.6260  1.3012  1.7643
   58SAPC   H8Y 4393   3.155   5.784   9.347  0.5256 -0.5907  0.8488
   58SAPC   C39 4394   3.355   5.708   9.320  0.1671 -1.1162  0.0863
   58SAPC   H9X 4395   3.314   5.607   9.337 -1.3215 -0.4126  0.8776
   58SAPC   H9Y 4396   3.450   5.728   9.375  0.4609 -3.1556  0.4037
   58SAPC  C310 4397   3.367   5.738   9.168  0.3927 -0.3024 -0.0857
   58SAPC  H10X 4398   3.415   5.835   9.144 -1.4549  0.3886 -1.1530
   58SAPC  H10Y 4399   3.263   5.752   9.134  0.3886  0.5145  0.2561
   58SAPC  C311 4400   3.444   5.625   9.098  0.5442  0.5968 -0.0850
   58SAPC  H11X 4401   3.414   5.532   9.150  0.4935  1.1251  0.8767
   58SAPC  H11Y 4402   3.554   5.639   9.105  0.3304  3.6344 -1.2283
   58SAPC  C312 4403   3.420   5.632   8.945  0.3536  0.1631  0.1728
   58SAPC  H12X 4404   3.448   5.734   8.910 -0.7338  0.2477 -0.4981
   58SAPC  H12Y 4405   3.312   5.618   8.923 -0.3207 -0.5651  3.4407
   58SAPC  C313 4406   3.514   5.525   8.870  0.2264 -0.5396 -0.2727
   58SAPC  H13X 4407   3.482   5.423   8.899 -0.4121 -1.2327 -3.1033
   58SAPC  H13Y 4408   3.616   5.526   8.914  0.0370 -2.1648  0.2787
   58SAPC  C314 4409   3.516   5.540   8.720  0.6681 -1.0284  0.3031
   58SAPC  H14X 4410   3.528   5.649   8.707 -4.5389  0.2368  3.3068
   58SAPC  H14Y 4411   3.423   5.508   8.668  0.7150 -1.5353  0.5254
   58SAPC  C315 4412   3.638   5.472   8.662  0.0289  0.5630  0.4038
   58SAPC  H15X 4413   3.644   5.367   8.697 -0.8627 -0.3789 -2.1021
   58SAPC  H15Y 4414   3.726   5.527   8.704 -0.9634  3.0680 -0.5953
   58SAPC  C316 4415   3.624   5.477   8.506  0.9181  0.4014 -0.5132
   58SAPC  H16X 4416   3.623   5.581   8.467  2.2561  0.9412  0.7710
   58SAPC  H16Y 4417   3.525   5.430   8.489  1.0194 -0.6998  1.5985
   58SAPC  C317 4418   3.732   5.401   8.438 -0.1714 -0.5335  0.5997
   58SAPC  H17X 4419   3.698   5.390   8.333 -0.6244 -1.0867  0.7996
   58SAPC  H17Y 4420   3.745   5.301   8.484 -1.3720 -1.0480 -0.1465
   58SAPC  C318 4421   3.861   5.486   8.436 -0.3326 -0.1640  0.7086
   58SAPC  H18X 4422   3.886   5.509   8.542  3.4388  0.3806 -0.1729
   58SAPC  H18Y 4423   3.846   5.585   8.388  0.0352  0.4896  1.8976
   58SAPC  H18Z 4424   3.945   5.427   8.395 -1.1773 -0.3618 -0.8073
   59SAPC     N 4425   5.402   5.401  11.002 -0.1681  0.3774  0.8760
   59SAPC   C12 4426   5.482   5.448  11.118 -0.1249  0.3369  0.3572
   59SAPC  H12A 4427   5.560   5.379  11.145  0.0753  0.8331  1.0562
   59SAPC  H12B 4428   5.422   5.460  11.207 -0.5337 -0.3773  0.1884
   59SAPC   C13 4429   5.476   5.426  10.871 -0.3830  0.0238 -0.0881
   59SAPC  H13A 4430   5.483   5.530  10.842  1.0104 -0.3315 -1.1634
   59SAPC  H13B 4431   5.573   5.380  10.881  0.4481  1.7701  0.3434
   59SAPC  H13C 4432   5.421   5.376  10.792 -0.0063  0.7524 -0.8245
   59SAPC   C14 4433   5.376   5.251  11.026 -0.2237 -0.2118  0.3131
   59SAPC  H14A 4434   5.465   5.190  11.029 -0.0668 -0.0507 -0.7389
   59SAPC  H14B 4435   5.312   5.236  11.112 -2.0815  0.6977 -0.8379
   59SAPC  H14C 4436   5.320   5.221  10.938  2.7723 -0.3608 -1.7040
   59SAPC   C15 4437   5.276   5.470  10.999  0.4647 -0.3390  0.0622
   59SAPC  H15A 4438   5.296   5.572  11.029 -0.9412  0.0320 -0.2028
   59SAPC  H15B 4439   5.236   5.459  10.899  0.9059 -3.9533  0.1506
   59SAPC  H15C 4440   5.203   5.432  11.069 -0.3535  0.2622 -0.4493
   59SAPC   C11 4441   5.556   5.584  11.103 -0.1245 -0.0597 -0.8231
   59SAPC  H11A 4442   5.628   5.564  11.021 -0.2789 -1.3524 -0.6633
   59SAPC  H11B 4443   5.619   5.597  11.194  1.7883 -2.0787 -1.7568
   59SAPC     P 4444   5.390   5.773  11.177  0.3329  0.0462  0.0099
   59SAPC   O13 4445   5.247   5.778  11.135 -0.0473 -0.6202 -0.4398
   59SAPC   O14 4446   5.418   5.708  11.305  0.1589  0.8830 -0.8124
   59SAPC   O12 4447   5.475   5.700  11.075 -0.4947 -0.2268  0.0480
   59SAPC   O11 4448   5.459   5.920  11.174 -0.2203 -0.0997  0.1113
   59SAPC    C1 4449   5.409   6.026  11.082 -0.5354 -0.5616 -0.0035
   59SAPC    HA 4450   5.303   6.048  11.108 -0.2335  0.1312  0.6674
   59SAPC    HB 4451   5.465   6.121  11.095 -0.7851 -0.3779 -0.2598
   59SAPC    C2 4452   5.412   5.983  10.931  0.5310 -0.7498 -0.2288
   59SAPC    HS 4453   5.337   5.900  10.931 -0.7896  0.3984  0.2204
   59SAPC   O21 4454   5.544   5.939  10.902 -0.2654 -0.4956  0.8511
   59SAPC   C21 4455   5.543   5.844  10.808 -0.0777 -0.1465 -0.0299
   59SAPC   O22 4456   5.436   5.785  10.775 -0.2328 -0.1461 -0.4788
   59SAPC   C22 4457   5.684   5.800  10.761  0.1047 -0.5887 -0.3457
   59SAPC   H2R 4458   5.757   5.885  10.766 -0.1766 -0.2741 -1.2471
   59SAPC   H2S 4459   5.725   5.732  10.838  1.0769  0.7974  0.4144
   59SAPC    C3 4460   5.372   6.098  10.841 -0.0094 -0.7512  0.2329
   59SAPC    HX 4461   5.440   6.181  10.867 -1.1557 -0.2044  1.6227
   59SAPC    HY 4462   5.269   6.132  10.865  0.3663  2.0930 -1.6841
   59SAPC   O31 4463   5.393   6.073  10.698  0.1790 -0.2782 -0.2103
   59SAPC   C31 4464   5.291   6.010  10.633  0.3360  0.3008 -0.4413
   59SAPC   O32 4465   5.171   6.019  10.664 -0.1373 -0.1708 -0.5603
   59SAPC   C32 4466   5.345   5.957  10.502 -0.3833  0.1486 -0.2776
   59SAPC   H2X 4467   5.315   5.850  10.503 -0.3996  0.0864  2.9092
   59SAPC   H2Y 4468   5.455   5.973  10.498 -0.6529  1.9407 -1.9676
   59SAPC   C23 4469   5.694   5.733  10.618  0.3055 -0.9671 -0.5134
   59SAPC   H3R 4470   5.640   5.806  10.554  0.1479 -0.8362 -0.2360
   59SAPC   H3S 4471   5.630   5.642  10.613 -1.3767  0.2009 -1.0548
   59SAPC   C24 4472   5.838   5.709  10.569  0.3506  0.1194 -0.6233
   59SAPC   H4R 4473   5.901   5.656  10.644  0.5807 -1.5798 -1.9425
   59SAPC   H4S 4474   5.880   5.811  10.556  0.0020  0.4732  0.8162
   59SAPC   C25 4475   5.825   5.625  10.444 -0.1329 -0.3170 -0.3859
   59SAPC   H5R 4476   5.808   5.518  10.461 -0.5266  0.0034  1.4813
   59SAPC   C26 4477   5.828   5.668  10.319 -0.1187  0.0333 -0.0671
   59SAPC   H6R 4478   5.815   5.601  10.233  0.4485  1.6144 -1.4652
   59SAPC   C27 4479   5.846   5.811  10.273  0.0484  0.5579 -0.3084
   59SAPC   H7R 4480   5.846   5.880  10.361  1.8628  0.8302 -0.4856
   59SAPC   H7S 4481   5.773   5.852  10.199 -1.6808  1.4445  1.7797
   59SAPC   C28 4482   5.987   5.818  10.222 -0.0933  0.1902  0.5271
   59SAPC   H8R 4483   6.064   5.796  10.298 -0.6913 -0.3825  0.9837
   59SAPC   C29 4484   6.027   5.849  10.100  0.0008  0.4659  0.5896
   59SAPC   H9R 4485   6.136   5.848  10.092 -0.0452  2.3565 -1.0760
   59SAPC  C210 4486   5.949   5.893   9.978  0.4493  0.4168 -0.0406
   59SAPC  H10R 4487   5.996   5.991   9.956  0.4571  0.7448  1.3607
   59SAPC  H10S 4488   5.846   5.924  10.004  0.3895  0.4543 -0.3172
   59SAPC  C211 4489   5.941   5.792   9.869 -1.2048  0.2258 -0.3474
   59SAPC  H11R 4490   5.929   5.691   9.912 -1.7220  0.6204  0.4865
   59SAPC  C212 4491   5.928   5.817   9.734 -0.3256  0.4298 -0.5806
   59SAPC  H12R 4492   5.911   5.726   9.674  0.1565  0.5819 -0.9571
   59SAPC  C213 4493   5.913   5.942   9.659 -0.4031 -0.0915  0.5310
   59SAPC  H13R 4494   5.997   5.949   9.586 -1.2488 -0.9997 -0.5730
   59SAPC  H13S 4495   5.917   6.034   9.721 -1.0352 -0.4971  1.1855
   59SAPC  C214 4496   5.778   5.942   9.588 -0.4972 -0.1547 -0.0912
   59SAPC  H14R 4497   5.694   5.974   9.652  0.2709 -0.5009  1.1196
   59SAPC  C215 4498   5.742   5.907   9.470 -0.1201  0.7160 -0.2849
   59SAPC  H15R 4499   5.633   5.913   9.459 -0.4519 -0.6903  1.8097
   59SAPC  C216 4500   5.830   5.854   9.358  0.5638 -0.4942  0.2071
   59SAPC  H16R 4501   5.801   5.750   9.329 -2.6975  0.9239 -2.2494
   59SAPC  H16S 4502   5.936   5.849   9.389  0.1524 -0.3753  1.7051
   59SAPC  C217 4503   5.819   5.944   9.230 -0.8666 -0.4817 -0.1152
   59SAPC  H17R 4504   5.920   5.946   9.184 -0.7019  2.5548  0.1436
   59SAPC  H17S 4505   5.804   6.045   9.274 -0.0041 -0.2555 -0.3381
   59SAPC  C218 4506   5.715   5.912   9.129  0.3301  0.5512 -0.4164
   59SAPC  H18R 4507   5.622   5.905   9.190  0.8230  2.4781  0.6282
   59SAPC  H18S 4508   5.742   5.809   9.095 -0.4432  0.1654  0.1064
   59SAPC  C219 4509   5.709   6.007   9.014  0.2961 -0.7249  0.0964
   59SAPC  H19R 4510   5.624   5.968   8.954  0.0614  1.5544 -1.2039
   59SAPC  H19S 4511   5.800   6.015   8.950  0.4754  3.0690  0.5588
   59SAPC  C220 4512   5.679   6.148   9.058 -0.1093 -0.1450 -0.5983
   59SAPC  H20R 4513   5.735   6.186   9.147 -2.9063  0.4304  1.0515
   59SAPC  H20S 4514   5.572   6.150   9.088 -0.0747 -1.3284 -0.3608
   59SAPC  H20T 4515   5.697   6.225   8.980  3.7182  0.5830  0.7691
   59SAPC   C33 4516   5.289   6.023  10.376  0.9948 -0.5593 -0.1106
   59SAPC   H3X 4517   5.327   6.127  10.363 -2.2596  0.6129 -1.3430
   59SAPC   H3Y 4518   5.179   6.028  10.394  0.6249 -1.9363 -1.7321
   59SAPC   C34 4519   5.304   5.952  10.241  0.5811  0.5360 -0.5134
   59SAPC   H4X 4520   5.240   5.862  10.249 -1.3231  1.9501  1.7794
   59SAPC   H4Y 4521   5.407   5.910  10.241 -0.5319 -2.5945 -3.4630
   59SAPC   C35 4522   5.284   6.053  10.129  0.5316  0.1724  0.2530
   59SAPC   H5X 4523   5.343   6.144  10.153  0.7076 -0.0793  0.7929
   59SAPC   H5Y 4524   5.176   6.072  10.114  0.3175 -1.3123 -0.2568
   59SAPC   C36 4525   5.326   6.003   9.998 -0.2685 -1.1362 -0.0793
   59SAPC   H6X 4526   5.282   5.901   9.994  0.3575 -1.4349  0.3476
   59SAPC   H6Y 4527   5.436   5.985   9.992 -0.2517 -0.7299 -1.2728
   59SAPC   C37 4528   5.280   6.101   9.881  0.7860 -0.8086 -0.1543
   59SAPC   H7X 4529   5.288   6.209   9.906 -1.7561 -0.8232  1.0519
   59SAPC   H7Y 4530   5.170   6.090   9.883  0.8595 -1.5915  0.1782
   59SAPC   C38 4531   5.341   6.059   9.745  0.3650  0.5037  0.8451
   59SAPC   H8X 4532   5.307   5.954   9.736 -1.5882  0.9179  2.6262
   59SAPC   H8Y 4533   5.451   6.053   9.732  0.0437 -3.5325 -1.8116
   59SAPC   C39 4534   5.277   6.119   9.617 -0.2132 -0.1141 -0.7042
   59SAPC   H9X 4535   5.321   6.221   9.611 -1.1850  0.5177  1.7717
   59SAPC   H9Y 4536   5.172   6.142   9.642  0.3944  0.5315  1.4713
   59SAPC  C310 4537   5.294   6.034   9.491 -0.0805 -0.4334 -0.9030
   59SAPC  H10X 4538   5.291   5.927   9.521 -0.2572  0.0187  0.7563
   59SAPC  H10Y 4539   5.396   6.055   9.453 -0.0077  0.1959 -0.3651
   59SAPC  C311 4540   5.188   6.061   9.388 -0.2181  0.2897  0.3339
   59SAPC  H11X 4541   5.200   6.158   9.335 -0.3725 -0.6420 -1.4778
   59SAPC  H11Y 4542   5.081   6.054   9.418 -0.6791  0.2442 -1.2725
   59SAPC  C312 4543   5.199   5.958   9.275  1.0825 -0.7836 -0.1214
   59SAPC  H12X 4544   5.213   5.857   9.317 -0.6196 -0.8297  0.3789
   59SAPC  H12Y 4545   5.285   5.974   9.207 -0.7028  1.5479 -2.0139
   59SAPC  C313 4546   5.083   5.947   9.176 -0.0168  0.8297  0.0253
   59SAPC  H13X 4547   4.984   5.934   9.224 -0.7717 -3.7775 -2.2540
   59SAPC  H13Y 4548   5.107   5.857   9.116 -3.9527 -0.2956 -0.1074
   59SAPC  C314 4549   5.066   6.067   9.074  0.1805  0.0178 -0.9612
   59SAPC  H14X 4550   5.172   6.093   9.054  0.2613 -0.7891 -1.6382
   59SAPC  H14Y 4551   5.010   6.154   9.115  0.5720 -0.7839  1.4060
   59SAPC  C315 4552   5.009   6.027   8.941  0.0345 -0.5394  0.2645
   59SAPC  H15X 4553   4.899   6.015   8.943 -0.3798  1.5450 -2.6467
   59SAPC  H15Y 4554   5.050   5.927   8.913 -1.9987 -1.4572  0.4147
   59SAPC  C316 4555   5.051   6.122   8.829 -0.5543 -0.3162 -0.0606
   59SAPC  H16X 4556   5.156   6.107   8.794 -0.9356 -1.2337 -0.8415
   59SAPC  H16Y 4557   5.029   6.224   8.866  1.3300 -0.6814  2.2895
   59SAPC  C317 4558   4.963   6.094   8.702 -0.3798  0.7196 -0.3997
   59SAPC  H17X 4559   4.960   6.189   8.646  0.2179  1.2231  0.4017
   59SAPC  H17Y 4560   4.860   6.062   8.728  0.1731 -0.5127  0.3539
   59SAPC  C318 4561   5.041   5.992   8.608 -0.9202  0.1255 -0.3545
   59SAPC  H18X 4562   5.083   5.910   8.669 -0.6237 -0.4726 -1.3432
   59SAPC  H18Y 4563   5.126   6.050   8.565  1.8959 -2.1248  1.7628
   59SAPC  H18Z 4564   4.981   5.937   8.532 -1.0541  1.0616 -0.9446
   60SAPC     N 4565   5.441   4.355  10.940 -0.0075 -0.4219  0.5342
   60SAPC   C12 4566   5.394   4.231  10.870  0.6931 -0.2525  0.1056
   60SAPC  H12A 4567   5.314   4.246  10.798  0.3891 -2.0306  0.0273
   60SAPC  H12B 4568   5.340   4.170  10.942 -1.2423  0.3633 -0.7378
   60SAPC   C13 4569   5.504   4.438  10.836 -0.1069  0.4845 -0.0108
   60SAPC  H13A 4570   5.568   4.377  10.774  0.4854 -0.2593  1.2668
   60SAPC  H13B 4571   5.429   4.481  10.772  1.9755  2.4880 -1.2662
   60SAPC  H13C 4572   5.562   4.521  10.876  1.3267 -0.3698 -0.2215
   60SAPC   C14 4573   5.331   4.427  11.005  0.3821  0.7022 -0.0050
   60SAPC  H14A 4574   5.368   4.518  11.050  2.3638 -0.0153 -0.0467
   60SAPC  H14B 4575   5.248   4.443  10.939  0.7679 -1.0587 -0.9873
   60SAPC  H14C 4576   5.291   4.368  11.086  1.7991  1.1522  1.0717
   60SAPC   C15 4577   5.548   4.315  11.038 -0.1603 -0.1973  0.0028
   60SAPC  H15A 4578   5.513   4.228  11.091  2.0184 -1.0379  0.1591
   60SAPC  H15B 4579   5.642   4.305  10.986 -0.0904  4.1000 -1.0659
   60SAPC  H15C 4580   5.557   4.382  11.123  0.0143 -2.1654  1.6013
   60SAPC   C11 4581   5.505   4.144  10.799  0.3836 -0.2665  0.1524
   60SAPC  H11A 4582   5.568   4.204  10.731 -0.8957 -0.2832 -1.0917
   60SAPC  H11B 4583   5.454   4.063  10.743  1.8251  0.2784 -2.0386
   60SAPC     P 4584   5.707   3.995  10.852  0.3046  0.1463 -0.4622
   60SAPC   O13 4585   5.824   4.015  10.935 -0.3050  0.0331  0.0190
   60SAPC   O14 4586   5.650   3.858  10.848 -0.1533 -0.5059  0.4700
   60SAPC   O12 4587   5.592   4.089  10.898  0.3946  0.1821  0.0997
   60SAPC   O11 4588   5.737   4.039  10.706  0.9982 -0.0181  0.3480
   60SAPC    C1 4589   5.848   4.118  10.663 -0.0215  0.5345  0.4146
   60SAPC    HA 4590   5.902   4.163  10.750  0.2646 -1.5176  1.3725
   60SAPC    HB 4591   5.918   4.052  10.607 -1.2649 -0.2137 -0.2885
   60SAPC    C2 4592   5.812   4.229  10.569  0.2331 -0.2286 -0.4010
   60SAPC    HS 4593   5.759   4.310  10.624  0.1179 -1.9366  2.1485
   60SAPC   O21 4594   5.730   4.169  10.466  0.0360 -0.0179 -0.0706
   60SAPC   C21 4595   5.632   4.238  10.421  0.3920 -0.8694  0.1241
   60SAPC   O22 4596   5.606   4.355  10.444 -0.2860 -0.2908 -0.5481
   60SAPC   C22 4597   5.562   4.154  10.326  0.1639 -0.0234 -0.3385
   60SAPC   H2R 4598   5.569   4.049  10.362  1.2852 -0.6397 -2.2431
   60SAPC   H2S 4599   5.455   4.185  10.322  0.5908  2.1775  2.0904
   60SAPC    C3 4600   5.945   4.291  10.499  0.6137  0.1663  0.0055
   60SAPC    HX 4601   5.992   4.199  10.458  1.0935 -1.2029  3.3152
   60SAPC    HY 4602   6.004   4.349  10.573  1.6228  1.9290 -2.0405
   60SAPC   O31 4603   5.914   4.372  10.381  0.1573 -0.0059  0.6358
   60SAPC   C31 4604   5.892   4.500  10.415 -0.3188  0.0260  0.3494
   60SAPC   O32 4605   5.887   4.540  10.530  0.6472 -0.0586 -0.1763
   60SAPC   C32 4606   5.874   4.592  10.294  0.0229 -0.3423 -0.0104
   60SAPC   H2X 4607   5.968   4.626  10.245 -1.5383  1.8775 -1.5966
   60SAPC   H2Y 4608   5.829   4.686  10.331  2.2255  0.2833  1.3071
   60SAPC   C23 4609   5.625   4.163  10.194 -0.2572  0.2581  0.8770
   60SAPC   H3R 4610   5.731   4.133  10.212 -0.4116 -1.9189 -1.2967
   60SAPC   H3S 4611   5.621   4.266  10.154  1.4071  0.7753  1.9139
   60SAPC   C24 4612   5.571   4.061  10.093  0.1818 -0.1272  1.0401
   60SAPC   H4R 4613   5.461   4.076  10.087  0.2469  0.1610  0.4984
   60SAPC   H4S 4614   5.577   3.956  10.128 -1.4352 -0.7301 -0.3596
   60SAPC   C25 4615   5.621   4.067   9.949 -0.3869  0.1411 -0.0209
   60SAPC   H5R 4616   5.716   4.016   9.928 -1.3920 -1.3050 -1.2660
   60SAPC   C26 4617   5.561   4.138   9.847 -0.2239  0.2354  0.1211
   60SAPC   H6R 4618   5.620   4.165   9.758  1.2936  2.0848  1.5902
   60SAPC   C27 4619   5.430   4.214   9.846 -0.3628 -0.9322 -0.5093
   60SAPC   H7R 4620   5.439   4.322   9.821 -1.8854 -0.7268 -0.2690
   60SAPC   H7S 4621   5.402   4.227   9.953  3.5086 -1.1351  0.7037
   60SAPC   C28 4622   5.315   4.141   9.774 -0.1159  0.3503 -0.3202
   60SAPC   H8R 4623   5.234   4.109   9.841 -1.5202  1.0740 -1.6349
   60SAPC   C29 4624   5.301   4.115   9.643  0.1943  0.2346  0.4341
   60SAPC   H9R 4625   5.212   4.058   9.612  1.5786 -0.9955 -1.4201
   60SAPC  C210 4626   5.412   4.145   9.539  0.1188  0.2970 -0.3287
   60SAPC  H10R 4627   5.507   4.101   9.577  1.0058  1.3397 -1.2584
   60SAPC  H10S 4628   5.422   4.256   9.533 -0.2134  0.3431 -0.0558
   60SAPC  C211 4629   5.377   4.097   9.403 -0.0275  0.1747 -0.4126
   60SAPC  H11R 4630   5.403   3.995   9.372  2.4341  1.0699 -1.6014
   60SAPC  C212 4631   5.308   4.163   9.311 -0.4575 -0.0211 -0.3301
   60SAPC  H12R 4632   5.276   4.100   9.226 -0.8444  1.2887 -1.1885
   60SAPC  C213 4633   5.243   4.296   9.329 -0.1975 -0.6479  0.2863
   60SAPC  H13R 4634   5.184   4.304   9.423  0.0506  1.3191  0.3116
   60SAPC  H13S 4635   5.166   4.306   9.250  1.3649 -0.9566 -1.3391
   60SAPC  C214 4636   5.339   4.414   9.313  0.6776 -0.4858 -0.3210
   60SAPC  H14R 4637   5.443   4.405   9.347  1.2647 -0.7981 -2.0898
   60SAPC  C215 4638   5.298   4.538   9.271  0.3873 -0.1477  0.8300
   60SAPC  H15R 4639   5.380   4.610   9.261  0.3170  0.0010  1.3219
   60SAPC  C216 4640   5.170   4.580   9.204 -0.3779  0.1265 -0.9797
   60SAPC  H16R 4641   5.142   4.679   9.247  1.7930  0.0211  0.8489
   60SAPC  H16S 4642   5.083   4.518   9.236  1.1359 -0.3227  2.7283
   60SAPC  C217 4643   5.164   4.583   9.048  0.1223 -0.5630 -0.2469
   60SAPC  H17R 4644   5.214   4.491   9.011 -0.4788 -1.5171  1.2063
   60SAPC  H17S 4645   5.213   4.669   8.998 -1.1158 -0.4726 -1.3939
   60SAPC  C218 4646   5.020   4.578   8.994  0.2393 -0.4027 -0.0398
   60SAPC  H18R 4647   4.969   4.667   9.038 -0.3661  0.0865 -1.6571
   60SAPC  H18S 4648   4.969   4.489   9.037  1.1467 -0.9128 -0.0171
   60SAPC  C219 4649   5.000   4.572   8.841  0.8935 -0.3574  0.3636
   60SAPC  H19R 4650   5.042   4.663   8.792 -2.9603  1.8676  0.7915
   60SAPC  H19S 4651   4.892   4.591   8.825  0.6157 -0.9036  1.4826
   60SAPC  C220 4652   5.044   4.438   8.782  0.4919 -0.1050 -0.1705
   60SAPC  H20R 4653   5.015   4.452   8.676 -1.7076  0.7955  0.5012
   60SAPC  H20S 4654   4.975   4.358   8.817 -1.7556  1.3688 -1.0811
   60SAPC  H20T 4655   5.154   4.433   8.796  0.4273  0.9688  0.8427
   60SAPC   C33 4656   5.779   4.532  10.192 -0.5734  0.6369 -0.7954
   60SAPC   H3X 4657   5.685   4.491  10.237 -1.1991  0.0748 -2.5442
   60SAPC   H3Y 4658   5.827   4.442  10.149  0.7846 -0.0890  1.9568
   60SAPC   C34 4659   5.746   4.621  10.066 -0.2540  0.7648 -0.0000
   60SAPC   H4X 4660   5.830   4.618   9.994 -0.0469 -2.3399  0.2155
   60SAPC   H4Y 4661   5.738   4.728  10.095 -0.2283  0.9115 -0.5251
   60SAPC   C35 4662   5.617   4.584   9.991 -0.9308  0.3520 -0.3176
   60SAPC   H5X 4663   5.532   4.623  10.051 -1.0599 -1.9401  1.1293
   60SAPC   H5Y 4664   5.595   4.475   9.982 -3.8117  0.8502 -0.2255
   60SAPC   C36 4665   5.593   4.650   9.857  0.5191  0.0519 -0.6640
   60SAPC   H6X 4666   5.603   4.760   9.858 -0.5588  0.2361 -2.7965
   60SAPC   H6Y 4667   5.484   4.633   9.841  0.3506 -1.3361  1.5623
   60SAPC   C37 4668   5.663   4.577   9.742 -0.6471 -0.7862 -0.0489
   60SAPC   H7X 4669   5.648   4.467   9.739 -1.0035 -0.7228 -0.9042
   60SAPC   H7Y 4670   5.772   4.594   9.753 -0.6948 -0.3781 -0.1791
   60SAPC   C38 4671   5.627   4.629   9.597  0.0847 -0.0942 -0.6728
   60SAPC   H8X 4672   5.652   4.737   9.593  0.8600 -0.2447 -0.1808
   60SAPC   H8Y 4673   5.519   4.616   9.574 -0.1548  1.6733 -0.7265
   60SAPC   C39 4674   5.714   4.561   9.487 -0.1671 -0.1320 -0.0760
   60SAPC   H9X 4675   5.689   4.453   9.493  0.8985 -0.3102  1.9100
   60SAPC   H9Y 4676   5.822   4.583   9.501 -0.4084  1.4614 -0.5315
   60SAPC  C310 4677   5.693   4.623   9.346 -0.0724  0.2134  0.1213
   60SAPC  H10X 4678   5.743   4.723   9.351 -1.7800  1.0859  0.5837
   60SAPC  H10Y 4679   5.583   4.627   9.336  0.0338 -2.3087 -3.7387
   60SAPC  C311 4680   5.742   4.529   9.235 -0.0398 -0.2242  0.9156
   60SAPC  H11X 4681   5.685   4.434   9.240  0.1666 -0.5638 -1.7405
   60SAPC  H11Y 4682   5.852   4.517   9.244  0.0123 -0.9024 -0.3635
   60SAPC  C312 4683   5.725   4.581   9.091  0.0136 -1.2321 -1.0385
   60SAPC  H12X 4684   5.617   4.598   9.076  0.4512  1.1363 -1.8276
   60SAPC  H12Y 4685   5.764   4.500   9.025  2.5892 -0.7474 -0.2292
   60SAPC  C313 4686   5.798   4.711   9.075 -0.8600  0.5542  0.1982
   60SAPC  H13X 4687   5.907   4.715   9.095 -0.8471  0.3369  0.1735
   60SAPC  H13Y 4688   5.750   4.787   9.141 -1.9271  1.1395 -1.1867
   60SAPC  C314 4689   5.799   4.753   8.931 -0.6373  0.7265 -0.2284
   60SAPC  H14X 4690   5.695   4.776   8.899 -0.4734  0.3223 -1.0700
   60SAPC  H14Y 4691   5.830   4.673   8.861 -0.3874 -0.2529  0.9535
   60SAPC  C315 4692   5.881   4.878   8.905 -0.0210 -0.2661 -0.1469
   60SAPC  H15X 4693   5.843   4.962   8.968 -0.4305 -1.9744  1.9950
   60SAPC  H15Y 4694   5.860   4.908   8.800 -1.3187  1.2705  0.5087
   60SAPC  C316 4695   6.033   4.859   8.911 -0.2719 -0.1024  0.1386
   60SAPC  H16X 4696   6.070   4.769   8.858  0.8228  0.1059  0.5287
   60SAPC  H16Y 4697   6.051   4.841   9.019 -0.4145  1.0686  0.3719
   60SAPC  C317 4698   6.106   4.988   8.868  0.2963 -0.1123  0.0436
   60SAPC  H17X 4699   6.098   5.054   8.956  0.7288  0.0610 -0.0472
   60SAPC  H17Y 4700   6.048   5.027   8.782 -1.6297 -1.2111  0.7721
   60SAPC  C318 4701   6.252   4.975   8.829 -0.1799 -0.4561  0.9076
   60SAPC  H18X 4702   6.309   4.913   8.902 -0.4302 -1.1617  0.5182
   60SAPC  H18Y 4703   6.300   5.075   8.828  0.4375 -0.7395  1.2543
   60SAPC  H18Z 4704   6.271   4.925   8.731 -0.9083 -0.6387  0.8592
   61SAPC     N 4705   2.860   2.837  11.129 -0.0419 -0.0576 -0.3522
   61SAPC   C12 4706   2.710   2.854  11.095  0.1470  0.6271 -0.4992
   61SAPC  H12A 4707   2.668   2.755  11.085 -1.8107  1.3385  0.3087
   61SAPC  H12B 4708   2.695   2.905  11.001  1.6064 -1.4743 -1.9895
   61SAPC   C13 4709   2.879   2.759  11.261  0.2843 -0.3526  0.6993
   61SAPC  H13A 4710   2.861   2.655  11.240  2.6688 -0.9762  1.4446
   61SAPC  H13B 4711   2.977   2.773  11.303  0.7506 -2.2818  0.3507
   61SAPC  H13C 4712   2.811   2.788  11.340  0.6812 -1.6653  1.5458
   61SAPC   C14 4713   2.930   2.766  11.020  0.4150 -0.5004  0.9131
   61SAPC  H14A 4714   3.036   2.768  11.038  0.3061  0.0912  1.5028
   61SAPC  H14B 4715   2.904   2.661  11.021  1.5713 -0.8475  3.9099
   61SAPC  H14C 4716   2.925   2.795  10.916  0.3513 -0.3833  0.9490
   61SAPC   C15 4717   2.917   2.981  11.143 -0.5515  0.5448  0.0404
   61SAPC  H15A 4718   3.022   2.982  11.170 -1.0446 -1.0285  2.2758
   61SAPC  H15B 4719   2.922   3.032  11.048 -0.6814 -0.6619 -0.6395
   61SAPC  H15C 4720   2.861   3.035  11.217 -0.4343 -0.5023  0.9252
   61SAPC   C11 4721   2.618   2.931  11.195 -0.4955 -0.2523 -0.2139
   61SAPC  H11A 4722   2.622   2.881  11.294 -1.9355  0.2171  0.1042
   61SAPC  H11B 4723   2.511   2.926  11.165 -0.8251 -0.1882  0.9128
   61SAPC     P 4724   2.613   3.187  11.123  0.1075  0.3755  0.2087
   61SAPC   O13 4725   2.474   3.221  11.158  0.0271 -0.2071  0.4801
   61SAPC   O14 4726   2.714   3.294  11.125  0.1046 -0.3852  0.4583
   61SAPC   O12 4727   2.655   3.072  11.219  0.1894 -0.1030 -0.3312
   61SAPC   O11 4728   2.625   3.110  10.987 -0.0900  0.3115 -0.6050
   61SAPC    C1 4729   2.549   3.158  10.870 -1.1257 -0.2089 -0.7382
   61SAPC    HA 4730   2.442   3.175  10.894 -1.0942  1.0308 -1.4121
   61SAPC    HB 4731   2.599   3.251  10.836  0.4705  0.3342  2.6875
   61SAPC    C2 4732   2.542   3.056  10.746 -1.0484  0.3283  0.2283
   61SAPC    HS 4733   2.518   2.951  10.775  0.5779  0.4267  2.1323
   61SAPC   O21 4734   2.672   3.058  10.681  0.2234  0.2906  0.0329
   61SAPC   C21 4735   2.768   2.974  10.705  0.2545  0.7340 -0.5429
   61SAPC   O22 4736   2.770   2.887  10.793 -0.0694 -0.4644  0.4537
   61SAPC   C22 4737   2.872   2.982  10.594 -0.3721  0.4879  0.1390
   61SAPC   H2R 4738   2.966   3.024  10.638 -0.5701 -0.0880  1.1554
   61SAPC   H2S 4739   2.906   2.880  10.565  1.7079  0.5945  1.9026
   61SAPC    C3 4740   2.429   3.103  10.652  0.4617 -0.0551  0.2187
   61SAPC    HX 4741   2.466   3.203  10.621  0.8064 -0.8299 -2.0439
   61SAPC    HY 4742   2.333   3.116  10.705 -0.4390  0.7061 -1.5277
   61SAPC   O31 4743   2.417   3.019  10.533  0.0992 -0.8047 -0.5738
   61SAPC   C31 4744   2.298   3.029  10.467 -0.1355  0.0626  0.7386
   61SAPC   O32 4745   2.206   3.104  10.495  0.0032  0.1684 -0.4134
   61SAPC   C32 4746   2.299   2.937  10.344  0.4649  0.6220  0.2573
   61SAPC   H2X 4747   2.341   2.838  10.371  0.1973  0.4949  0.2095
   61SAPC   H2Y 4748   2.356   2.983  10.260  2.2057 -1.0452  0.4632
   61SAPC   C23 4749   2.839   3.058  10.463 -0.2636 -0.4088  0.5326
   61SAPC   H3R 4750   2.825   3.166  10.487  0.9182 -0.4428  1.4365
   61SAPC   H3S 4751   2.746   3.016  10.419 -0.0087  0.8732 -1.3835
   61SAPC   C24 4752   2.945   3.040  10.346  0.1561 -0.2264  0.0981
   61SAPC   H4R 4753   2.904   3.101  10.262  3.3053  1.4942 -0.3211
   61SAPC   H4S 4754   2.959   2.937  10.307  0.6091 -0.6243  1.2737
   61SAPC   C25 4755   3.076   3.094  10.383 -0.2304 -0.0414 -0.2539
   61SAPC   H5R 4756   3.114   3.039  10.470  2.4758  0.1298 -1.2180
   61SAPC   C26 4757   3.135   3.209  10.335 -0.2591 -0.2084  0.6427
   61SAPC   H6R 4758   3.235   3.241  10.365 -0.1540  1.0922 -0.9241
   61SAPC   C27 4759   3.077   3.307  10.230 -0.3445  0.6846 -0.2191
   61SAPC   H7R 4760   3.026   3.391  10.282 -0.1674  0.7874 -0.2115
   61SAPC   H7S 4761   2.991   3.261  10.177  0.2392  0.0932 -0.6850
   61SAPC   C28 4762   3.175   3.381  10.149 -0.4314 -0.6114 -0.6180
   61SAPC   H8R 4763   3.250   3.427  10.215 -0.6539 -0.2262 -0.6340
   61SAPC   C29 4764   3.181   3.396  10.017  0.2833  0.0984  0.6388
   61SAPC   H9R 4765   3.260   3.457   9.969 -0.5138 -0.1754 -1.1308
   61SAPC  C210 4766   3.072   3.336   9.927  0.1584  0.4011  0.4462
   61SAPC  H10R 4767   3.023   3.244   9.966 -1.0377  1.2463  0.9895
   61SAPC  H10S 4768   3.125   3.299   9.837 -0.5903 -1.0041  0.5483
   61SAPC  C211 4769   2.967   3.434   9.896  0.5037 -0.0541 -0.6480
   61SAPC  H11R 4770   2.933   3.503   9.974  0.5238 -0.7348 -0.0272
   61SAPC  C212 4771   2.924   3.486   9.781 -0.2609  0.3119 -0.4807
   61SAPC  H12R 4772   2.843   3.560   9.775 -0.6907  0.1493  2.0293
   61SAPC  C213 4773   2.969   3.439   9.640  0.7097 -0.0590 -0.7055
   61SAPC  H13R 4774   3.078   3.438   9.619  0.3088 -0.2917 -2.9523
   61SAPC  H13S 4775   2.928   3.510   9.565 -1.6028 -0.6071 -0.0523
   61SAPC  C214 4776   2.904   3.307   9.605  0.4269  0.0768  0.5726
   61SAPC  H14R 4777   2.848   3.252   9.681 -1.7713  0.2236 -0.8678
   61SAPC  C215 4778   2.913   3.254   9.482 -0.2649  0.4811 -0.3700
   61SAPC  H15R 4779   2.865   3.157   9.463  0.7393 -0.4858  1.5875
   61SAPC  C216 4780   2.992   3.321   9.374 -0.1192 -0.6659 -0.1565
   61SAPC  H16R 4781   3.062   3.403   9.401 -0.8348 -0.0834 -0.0359
   61SAPC  H16S 4782   2.922   3.353   9.293 -1.8448 -0.8355  1.1949
   61SAPC  C217 4783   3.073   3.217   9.290  0.1914  0.3337  0.0997
   61SAPC  H17R 4784   3.130   3.155   9.363  0.2766 -0.1648 -0.3768
   61SAPC  H17S 4785   3.144   3.270   9.223  0.6690 -0.4955 -0.0741
   61SAPC  C218 4786   2.987   3.117   9.210  0.2061 -0.6263 -0.1221
   61SAPC  H18R 4787   2.921   3.178   9.144  1.6903  0.9100 -0.2693
   61SAPC  H18S 4788   2.919   3.070   9.284 -0.9715  1.7769  0.4526
   61SAPC  C219 4789   3.061   3.009   9.139  0.1364  0.0446 -0.0330
   61SAPC  H19R 4790   2.977   2.939   9.121 -0.2747  0.3389  0.7084
   61SAPC  H19S 4791   3.134   2.966   9.210  0.3050 -0.5325 -0.5503
   61SAPC  C220 4792   3.138   3.048   9.012 -0.4987  0.0325 -0.3422
   61SAPC  H20R 4793   3.222   3.110   9.050 -0.0428  0.0664 -1.3630
   61SAPC  H20S 4794   3.073   3.113   8.949  1.1177  1.9506 -0.1443
   61SAPC  H20T 4795   3.173   2.962   8.951  0.0370  2.5586 -3.8967
   61SAPC   C33 4796   2.153   2.916  10.302  0.0856 -0.3594 -1.3746
   61SAPC   H3X 4797   2.088   3.005  10.295  0.0679 -0.1360  0.8666
   61SAPC   H3Y 4798   2.095   2.856  10.375  2.0850  0.5557  1.1165
   61SAPC   C34 4799   2.153   2.835  10.173  0.2584  0.1390 -0.7962
   61SAPC   H4X 4800   2.222   2.749  10.181  0.2030  0.2794  2.2084
   61SAPC   H4Y 4801   2.184   2.901  10.089 -3.0703 -1.8691 -3.9273
   61SAPC   C35 4802   2.009   2.782  10.149  0.0230  0.1086  0.2666
   61SAPC   H5X 4803   1.944   2.872  10.155 -2.3157 -1.4110 -0.6527
   61SAPC   H5Y 4804   1.990   2.712  10.233 -0.2053  0.3496  0.4153
   61SAPC   C36 4805   1.991   2.720  10.017  0.0580  0.7677  0.1187
   61SAPC   H6X 4806   1.920   2.634  10.017 -1.0693  1.6636  0.2489
   61SAPC   H6Y 4807   2.080   2.668   9.978 -2.1376 -1.0687 -2.8849
   61SAPC   C37 4808   1.927   2.813   9.911 -0.0391  0.0486 -0.5735
   61SAPC   H7X 4809   1.973   2.914   9.911 -1.1520  0.5625 -0.4437
   61SAPC   H7Y 4810   1.824   2.839   9.942  0.5648  1.2176  0.5511
   61SAPC   C38 4811   1.926   2.751   9.776 -0.1375 -0.0024  0.6313
   61SAPC   H8X 4812   1.872   2.654   9.774 -1.8507  0.8236 -3.4932
   61SAPC   H8Y 4813   2.028   2.739   9.735 -0.5157 -2.9711  0.3858
   61SAPC   C39 4814   1.850   2.845   9.668 -0.0679 -0.3571  0.1829
   61SAPC   H9X 4815   1.881   2.952   9.671  0.1217 -0.3670 -0.9320
   61SAPC   H9Y 4816   1.744   2.848   9.701  0.0642  0.5361  0.5622
   61SAPC  C310 4817   1.846   2.785   9.522  0.0529 -0.1785 -0.1188
   61SAPC  H10X 4818   1.775   2.700   9.509 -0.2817 -0.0780  0.9366
   61SAPC  H10Y 4819   1.950   2.749   9.504 -0.6672 -2.1224 -0.7277
   61SAPC  C311 4820   1.824   2.897   9.417 -0.7381 -0.2785  0.3634
   61SAPC  H11X 4821   1.846   2.845   9.322  3.1035  0.4053  0.7115
   61SAPC  H11Y 4822   1.896   2.982   9.424  1.4635 -1.8182 -2.0298
   61SAPC  C312 4823   1.681   2.949   9.420  0.3682 -0.5737  1.0448
   61SAPC  H12X 4824   1.679   3.007   9.515  1.7059  0.4783  0.4602
   61SAPC  H12Y 4825   1.611   2.863   9.429 -1.2898  0.7536  1.4547
   61SAPC  C313 4826   1.645   3.035   9.291  0.0026 -0.2917 -0.4729
   61SAPC  H13X 4827   1.708   3.126   9.299 -2.2989  1.4732 -1.1879
   61SAPC  H13Y 4828   1.540   3.073   9.297 -0.5437 -1.4762 -1.8524
   61SAPC  C314 4829   1.675   2.966   9.157  0.7738  0.0968  0.0601
   61SAPC  H14X 4830   1.657   2.857   9.157  2.2505 -0.1676  0.3521
   61SAPC  H14Y 4831   1.786   2.965   9.151  0.8426  0.4081  1.0330
   61SAPC  C315 4832   1.616   3.032   9.032 -0.1498  0.1566 -0.8467
   61SAPC  H15X 4833   1.682   3.119   9.015  0.2650  0.3676  1.5517
   61SAPC  H15Y 4834   1.524   3.074   9.077 -0.0589 -1.2791  0.7842
   61SAPC  C316 4835   1.580   2.942   8.916  0.1248  0.2514  0.1611
   61SAPC  H16X 4836   1.481   2.893   8.931  0.1773 -0.4413 -1.5157
   61SAPC  H16Y 4837   1.662   2.867   8.906 -0.2214  0.0860 -2.0255
   61SAPC  C317 4838   1.566   3.014   8.778  0.4384 -0.3540  0.4411
   61SAPC  H17X 4839   1.670   3.040   8.750  0.0821  1.0270  0.3354
   61SAPC  H17Y 4840   1.520   3.115   8.775 -0.5890 -0.8148  0.1889
   61SAPC  C318 4841   1.508   2.920   8.671  0.2969  0.0619 -1.1484
   61SAPC  H18X 4842   1.492   2.968   8.572 -0.1402  0.6616 -0.7939
   61SAPC  H18Y 4843   1.414   2.879   8.713  0.4138  0.7734 -0.1635
   61SAPC  H18Z 4844   1.580   2.837   8.651 -0.9316 -1.5481  0.7665
   62SAPC     N 4845   0.394   2.081  10.907 -0.6835  1.0942 -0.1411
   62SAPC   C12 4846   0.330   1.952  10.918 -0.4095 -0.9604 -0.3987
   62SAPC  H12A 4847   0.225   1.972  10.900 -0.2120  0.5718 -0.0520
   62SAPC  H12B 4848   0.326   1.913  11.018  0.8422 -1.0776 -0.3802
   62SAPC   C13 4849   0.343   2.179  11.012 -0.7512  0.7421  0.2259
   62SAPC  H13A 4850   0.351   2.135  11.110  1.1642  0.1704 -0.1444
   62SAPC  H13B 4851   0.394   2.273  11.003 -0.6058  0.5765 -0.7930
   62SAPC  H13C 4852   0.238   2.194  10.992 -1.0788 -0.9529  0.4647
   62SAPC   C14 4853   0.540   2.072  10.929  0.5953 -0.3367  0.6723
   62SAPC  H14A 4854   0.568   2.176  10.929 -0.6824  0.0333  1.7736
   62SAPC  H14B 4855   0.573   2.024  11.019  0.5694 -0.3720  0.6628
   62SAPC  H14C 4856   0.586   2.026  10.843 -1.3487  0.8856 -1.1323
   62SAPC   C15 4857   0.364   2.137  10.773  0.5520 -0.2798  0.2351
   62SAPC  H15A 4858   0.424   2.225  10.756 -0.5860  0.6243  0.7417
   62SAPC  H15B 4859   0.375   2.064  10.694 -1.8615  1.0955 -1.5068
   62SAPC  H15C 4860   0.260   2.164  10.766  0.6440 -0.1852 -0.9401
   62SAPC   C11 4861   0.376   1.829  10.835 -0.5272 -0.0571 -0.2410
   62SAPC  H11A 4862   0.304   1.746  10.854 -0.0665 -0.5777 -0.7118
   62SAPC  H11B 4863   0.475   1.793  10.873 -1.0638  1.1922  2.6301
   62SAPC     P 4864   0.494   1.804  10.599 -0.0520 -0.4840  0.0766
   62SAPC   O13 4865   0.537   1.665  10.629  0.2202  0.1788  0.2830
   62SAPC   O14 4866   0.454   1.829  10.458 -0.3178  0.2244 -0.2111
   62SAPC   O12 4867   0.372   1.847  10.698  0.8382  0.0244  0.7220
   62SAPC   O11 4868   0.595   1.905  10.640 -0.1891  0.5768 -0.1128
   62SAPC    C1 4869   0.612   2.035  10.569 -0.7987  0.5328 -0.4298
   62SAPC    HA 4870   0.518   2.067  10.520 -1.9506 -0.3419  1.1335
   62SAPC    HB 4871   0.629   2.115  10.644  0.0529  0.3565 -0.4179
   62SAPC    C2 4872   0.737   2.044  10.470 -0.3102  0.6774 -0.3500
   62SAPC    HS 4873   0.734   2.149  10.435 -2.6587  1.0974  0.8666
   62SAPC   O21 4874   0.724   1.951  10.365  0.5574 -0.0235  0.0047
   62SAPC   C21 4875   0.636   1.979  10.278 -0.0914 -0.2211  0.4122
   62SAPC   O22 4876   0.571   2.084  10.272  0.0747 -0.4660  0.2201
   62SAPC   C22 4877   0.622   1.871  10.176 -0.4080 -0.6042  0.7565
   62SAPC   H2R 4878   0.653   1.776  10.224 -0.3007 -0.6841  0.5317
   62SAPC   H2S 4879   0.515   1.857  10.150  0.0426 -1.1998 -0.9367
   62SAPC    C3 4880   0.867   2.015  10.547 -0.1554 -0.0475  0.7319
   62SAPC    HX 4881   0.869   1.907  10.574  2.8556 -0.0502  0.8412
   62SAPC    HY 4882   0.864   2.082  10.636  0.3309 -1.0540  1.5272
   62SAPC   O31 4883   0.985   2.044  10.458  0.9220 -0.5583  0.4078
   62SAPC   C31 4884   1.091   1.973  10.493 -0.4786 -0.3918  0.1764
   62SAPC   O32 4885   1.104   1.911  10.598  0.0640  0.1471 -0.3707
   62SAPC   C32 4886   1.194   2.000  10.383  0.3109  0.6843  0.1309
   62SAPC   H2X 4887   1.208   2.110  10.376  0.2060  0.6069 -2.8547
   62SAPC   H2Y 4888   1.131   1.967  10.297 -0.2714  0.0738  0.7829
   62SAPC   C23 4889   0.706   1.897  10.048 -0.1289  0.1953  0.3662
   62SAPC   H3R 4890   0.812   1.899  10.081  0.1271  0.9811 -0.4726
   62SAPC   H3S 4891   0.691   1.990   9.989  3.2737 -1.1129 -2.9649
   62SAPC   C24 4892   0.705   1.774   9.951 -1.0935  0.1735  0.1958
   62SAPC   H4R 4893   0.740   1.682  10.002 -1.4831 -0.8047 -1.2352
   62SAPC   H4S 4894   0.786   1.796   9.877 -0.5842  0.9548  0.9638
   62SAPC   C25 4895   0.559   1.753   9.895 -0.4450  0.4420  0.3043
   62SAPC   H5R 4896   0.484   1.707   9.960 -1.2886  1.9071  0.4197
   62SAPC   C26 4897   0.515   1.777   9.765  0.7009 -0.2600 -0.0297
   62SAPC   H6R 4898   0.414   1.745   9.733  0.8555 -0.4310 -0.3471
   62SAPC   C27 4899   0.587   1.841   9.645  0.4872  0.5240  0.1303
   62SAPC   H7R 4900   0.524   1.842   9.554 -0.6995  1.7366  0.9362
   62SAPC   H7S 4901   0.672   1.770   9.633 -1.3514 -2.5054  3.2390
   62SAPC   C28 4902   0.626   1.982   9.668 -0.2891 -0.6191  0.1883
   62SAPC   H8R 4903   0.620   2.024   9.769 -1.4009 -1.3256  0.4358
   62SAPC   C29 4904   0.679   2.064   9.574  0.0113  0.1131  0.5144
   62SAPC   H9R 4905   0.704   2.167   9.601 -1.3424  0.7366 -0.5294
   62SAPC  C210 4906   0.719   2.017   9.433 -0.2024 -0.1127 -0.4067
   62SAPC  H10R 4907   0.710   1.907   9.418  0.9787  0.0749 -2.8966
   62SAPC  H10S 4908   0.826   2.041   9.416  0.2565  0.4372  2.6528
   62SAPC  C211 4909   0.647   2.086   9.319 -0.8608  0.0925  0.7490
   62SAPC  H11R 4910   0.599   2.178   9.356 -0.5291  0.5317  0.1012
   62SAPC  C212 4911   0.650   2.056   9.185  0.0178  0.0487  0.2233
   62SAPC  H12R 4912   0.608   2.125   9.110  1.7906  0.8799 -0.0665
   62SAPC  C213 4913   0.731   1.944   9.133  0.7744 -0.0396  0.2524
   62SAPC  H13R 4914   0.831   1.942   9.180  1.0955 -0.6754 -0.4457
   62SAPC  H13S 4915   0.746   1.974   9.027 -0.9859  0.9657  0.2426
   62SAPC  C214 4916   0.657   1.811   9.132  0.4616 -0.5079  0.0669
   62SAPC  H14R 4917   0.591   1.782   9.216 -0.0161 -3.3670 -1.2093
   62SAPC  C215 4918   0.643   1.730   9.029 -0.7405 -0.0052 -0.0370
   62SAPC  H15R 4919   0.581   1.639   9.034 -2.0664  0.8576 -0.2976
   62SAPC  C216 4920   0.709   1.749   8.893  0.4630 -0.2059 -0.2004
   62SAPC  H16R 4921   0.659   1.836   8.845  0.2854 -0.1803  0.0231
   62SAPC  H16S 4922   0.687   1.657   8.835 -2.0786  1.1768 -1.6235
   62SAPC  C217 4923   0.863   1.764   8.889  0.7099  0.7622  0.5352
   62SAPC  H17R 4924   0.903   1.690   8.961  0.8804 -0.8148 -1.1305
   62SAPC  H17S 4925   0.888   1.866   8.925 -1.3651  0.6726  2.4823
   62SAPC  C218 4926   0.926   1.751   8.753 -0.3622  0.5333  0.4656
   62SAPC  H18R 4927   0.862   1.687   8.689  0.6781  0.2814 -0.3341
   62SAPC  H18S 4928   1.026   1.707   8.771  0.4057  0.1303 -3.8598
   62SAPC  C219 4929   0.949   1.885   8.691 -0.6911 -0.3916  0.3164
   62SAPC  H19R 4930   1.016   1.957   8.742  0.0687  1.5893 -3.2095
   62SAPC  H19S 4931   0.855   1.944   8.693 -1.5212 -1.6660  1.8668
   62SAPC  C220 4932   1.011   1.872   8.554  1.3024 -0.4764 -0.2266
   62SAPC  H20R 4933   1.112   1.826   8.562  1.8066  0.2734 -1.9262
   62SAPC  H20S 4934   1.010   1.963   8.490 -1.7582 -0.4351 -0.2712
   62SAPC  H20T 4935   0.953   1.804   8.487  1.1158  0.3006 -0.8626
   62SAPC   C33 4936   1.320   1.910  10.392  0.2851  0.1389 -0.1493
   62SAPC   H3X 4937   1.295   1.804  10.366  1.4322  0.3168 -2.1947
   62SAPC   H3Y 4938   1.348   1.910  10.500 -2.3947 -1.0358  0.6553
   62SAPC   C34 4939   1.439   1.962  10.310 -0.3395 -0.1249  0.2054
   62SAPC   H4X 4940   1.531   1.927  10.362 -0.6176 -0.1122  0.7168
   62SAPC   H4Y 4941   1.441   2.073  10.317 -0.7338 -0.2044  1.9276
   62SAPC   C35 4942   1.440   1.919  10.162  0.2385  0.6631  0.5411
   62SAPC   H5X 4943   1.347   1.957  10.116 -0.2878 -1.0939  0.0852
   62SAPC   H5Y 4944   1.457   1.810  10.156 -0.9944  0.4711  0.3329
   62SAPC   C36 4945   1.563   1.975  10.084 -0.3041 -0.4664  1.1566
   62SAPC   H6X 4946   1.658   1.924  10.108  0.4196  0.5944  0.6496
   62SAPC   H6Y 4947   1.584   2.082  10.107  1.3422 -0.1472 -1.4690
   62SAPC   C37 4948   1.549   1.959   9.931  0.1504  0.7201  0.6316
   62SAPC   H7X 4949   1.610   2.032   9.875 -0.4678  1.2431  0.6204
   62SAPC   H7Y 4950   1.446   1.979   9.894  0.7099  1.7669 -0.4190
   62SAPC   C38 4951   1.608   1.831   9.866  0.3173 -0.2724  0.5987
   62SAPC   H8X 4952   1.554   1.734   9.866 -0.4176  0.1224  0.0507
   62SAPC   H8Y 4953   1.706   1.808   9.913  0.6294 -0.1985 -0.0140
   62SAPC   C39 4954   1.648   1.850   9.717  0.2329  0.3381  0.5689
   62SAPC   H9X 4955   1.718   1.770   9.684 -2.4457 -2.1722  0.5470
   62SAPC   H9Y 4956   1.691   1.952   9.707 -0.5585  0.6109 -0.2184
   62SAPC  C310 4957   1.531   1.848   9.613  0.5713 -0.7287  0.1683
   62SAPC  H10X 4958   1.453   1.912   9.661  1.0439 -0.8469  1.1161
   62SAPC  H10Y 4959   1.492   1.745   9.623 -0.2511 -0.3873  0.5470
   62SAPC  C311 4960   1.575   1.891   9.468  0.4749  0.1375  0.2548
   62SAPC  H11X 4961   1.677   1.929   9.488  0.2381  0.4524  0.9073
   62SAPC  H11Y 4962   1.513   1.969   9.418 -2.4126 -2.1816 -0.0273
   62SAPC  C312 4963   1.598   1.763   9.389 -0.2373 -0.5594  0.4248
   62SAPC  H12X 4964   1.501   1.712   9.375 -1.3587  1.4159  0.6423
   62SAPC  H12Y 4965   1.674   1.701   9.441 -0.3305  0.9353  2.4716
   62SAPC  C313 4966   1.656   1.774   9.245 -0.4388 -0.5883  0.2298
   62SAPC  H13X 4967   1.688   1.672   9.214  0.3056  0.2089 -1.7555
   62SAPC  H13Y 4968   1.752   1.828   9.244 -0.1031 -1.1767 -0.4509
   62SAPC  C314 4969   1.560   1.825   9.135  0.1533  0.0131  0.0506
   62SAPC  H14X 4970   1.521   1.925   9.167 -1.5069  0.2158 -2.3663
   62SAPC  H14Y 4971   1.473   1.756   9.130 -0.4696  0.8890 -2.4643
   62SAPC  C315 4972   1.602   1.821   8.994 -0.1600 -0.3540  0.5121
   62SAPC  H15X 4973   1.516   1.821   8.924 -0.1823 -0.7886  0.5387
   62SAPC  H15Y 4974   1.670   1.735   8.972  0.6952 -0.2773  2.6604
   62SAPC  C316 4975   1.680   1.948   8.955  0.5363 -0.0747  1.0294
   62SAPC  H16X 4976   1.756   1.969   9.033  0.2422 -1.7680  1.8368
   62SAPC  H16Y 4977   1.609   2.033   8.952 -0.1496 -0.6075  1.7692
   62SAPC  C317 4978   1.764   1.933   8.827 -0.8826 -0.2779  0.1337
   62SAPC  H17X 4979   1.701   1.935   8.735 -0.5640  2.7562 -0.1180
   62SAPC  H17Y 4980   1.824   1.840   8.822 -0.9547 -0.2797 -1.2574
   62SAPC  C318 4981   1.866   2.042   8.817 -0.1789 -0.1454  0.1706
   62SAPC  H18X 4982   1.939   2.039   8.901  0.5727 -0.5890 -0.4864
   62SAPC  H18Y 4983   1.814   2.140   8.825  0.7087  0.2886  0.8208
   62SAPC  H18Z 4984   1.926   2.044   8.723 -1.5431  2.4092 -0.7353
   63SAPC     N 4985   3.673   1.839   6.638  0.0653  1.0154  0.3515
   63SAPC   C12 4986   3.806   1.768   6.636  0.0758  0.4375  0.0333
   63SAPC  H12A 4987   3.798   1.686   6.565 -1.8890 -0.9260  1.6944
   63SAPC  H12B 4988   3.822   1.706   6.723  0.7746 -1.5515 -1.4290
   63SAPC   C13 4989   3.659   1.924   6.762 -0.0076  0.3993 -0.3016
   63SAPC  H13A 4990   3.716   1.872   6.838  4.5969  2.6340 -1.8983
   63SAPC  H13B 4991   3.711   2.013   6.732  1.7563 -0.7307 -0.7792
   63SAPC  H13C 4992   3.555   1.935   6.789  0.7033  3.1209  1.7499
   63SAPC   C14 4993   3.659   1.918   6.517  0.3065  0.1344 -0.2511
   63SAPC  H14A 4994   3.658   1.855   6.428  0.3059 -0.1913 -0.0228
   63SAPC  H14B 4995   3.569   1.978   6.517  0.5014  0.4280  0.3833
   63SAPC  H14C 4996   3.745   1.980   6.496  1.0512 -0.5410  0.7025
   63SAPC   C15 4997   3.563   1.733   6.650  0.9841 -0.2097 -0.5602
   63SAPC  H15A 4998   3.566   1.700   6.753  0.5918  0.3819 -0.3527
   63SAPC  H15B 4999   3.460   1.764   6.639  0.5647 -1.2796  0.1016
   63SAPC  H15C 5000   3.571   1.642   6.592 -0.8793  0.3013 -1.7108
   63SAPC   C11 5001   3.933   1.853   6.607 -0.1206 -0.7626  0.0795
   63SAPC  H11A 5002   4.017   1.809   6.666 -2.7900 -3.8052  1.9111
   63SAPC  H11B 5003   3.919   1.952   6.657  1.4012 -1.1490  1.3743
   63SAPC     P 5004   4.015   1.995   6.401 -0.3764 -0.2581  0.5646
   63SAPC   O13 5005   4.117   1.963   6.297  0.2430  0.6199 -0.6848
   63SAPC   O14 5006   3.912   2.093   6.377  0.4289  1.1011  0.2117
   63SAPC   O12 5007   3.956   1.857   6.462  0.0967  0.4882 -0.2466
   63SAPC   O11 5008   4.099   2.047   6.525 -0.7081  0.1567  0.3886
   63SAPC    C1 5009   4.150   2.179   6.532 -0.0681 -0.0889  0.6093
   63SAPC    HA 5010   4.254   2.183   6.494  0.1486 -2.0775  0.9068
   63SAPC    HB 5011   4.083   2.248   6.475 -0.4660 -1.0998 -0.1742
   63SAPC    C2 5012   4.169   2.221   6.679  0.0444  0.0232 -0.3275
   63SAPC    HS 5013   4.177   2.332   6.679  0.8827 -0.0334  0.0384
   63SAPC   O21 5014   4.279   2.146   6.734 -0.0500 -0.8252  0.0037
   63SAPC   C21 5015   4.393   2.223   6.742 -0.1273  0.8595 -0.2186
   63SAPC   O22 5016   4.423   2.321   6.675 -0.3519 -0.1088  0.6097
   63SAPC   C22 5017   4.492   2.169   6.849  0.6256 -0.3891  0.5393
   63SAPC   H2R 5018   4.479   2.060   6.866 -1.5426 -0.4401 -1.0185
   63SAPC   H2S 5019   4.592   2.190   6.805  0.1790  3.0389  0.8860
   63SAPC    C3 5020   4.037   2.199   6.755  0.2246  0.1806 -0.1594
   63SAPC    HX 5021   4.004   2.093   6.765 -0.4618  0.4129  0.1424
   63SAPC    HY 5022   3.967   2.258   6.692  1.2471  0.6227 -0.9109
   63SAPC   O31 5023   4.057   2.266   6.882  0.0582 -0.3585 -0.1850
   63SAPC   C31 5024   3.952   2.259   6.957 -0.1110 -1.6075 -0.5491
   63SAPC   O32 5025   3.844   2.218   6.934  0.0099  0.4844 -0.2511
   63SAPC   C32 5026   3.990   2.340   7.081  0.2226 -0.1158  0.1499
   63SAPC   H2X 5027   3.929   2.433   7.073 -0.6500 -0.3770  2.7592
   63SAPC   H2Y 5028   4.096   2.372   7.079  0.7255 -1.6713  0.4369
   63SAPC   C23 5029   4.494   2.262   6.971  0.2587 -0.6864 -0.1126
   63SAPC   H3R 5030   4.482   2.366   6.936  0.1625 -1.6889 -3.4852
   63SAPC   H3S 5031   4.597   2.245   7.010 -0.6901 -3.5363  1.4652
   63SAPC   C24 5032   4.397   2.244   7.080 -0.2050 -0.1151  0.3712
   63SAPC   H4R 5033   4.296   2.270   7.040 -0.5979  0.6073  1.7524
   63SAPC   H4S 5034   4.410   2.323   7.157 -2.0224 -0.1754  0.8052
   63SAPC   C25 5035   4.385   2.108   7.131 -0.1438  0.4561 -0.5234
   63SAPC   H5R 5036   4.339   2.027   7.072 -2.0455 -0.0456  1.4956
   63SAPC   C26 5037   4.412   2.062   7.257  0.6324 -0.4100 -0.9571
   63SAPC   H6R 5038   4.398   1.957   7.284  1.5232  0.2317  2.4834
   63SAPC   C27 5039   4.460   2.149   7.374 -0.0340 -0.0841  0.2374
   63SAPC   H7R 5040   4.387   2.124   7.453 -0.5821 -2.1430 -0.8524
   63SAPC   H7S 5041   4.466   2.259   7.360 -2.1704  0.1085  0.6181
   63SAPC   C28 5042   4.593   2.094   7.424  0.6999 -0.9514  0.4893
   63SAPC   H8R 5043   4.682   2.135   7.374  0.0955  1.4064  1.1860
   63SAPC   C29 5044   4.619   2.019   7.531 -0.5657  0.2197 -0.5802
   63SAPC   H9R 5045   4.725   1.991   7.539  0.2162  3.1936  1.2152
   63SAPC  C210 5046   4.526   1.968   7.637 -0.2010 -0.1210  0.5088
   63SAPC  H10R 5047   4.557   1.863   7.654 -0.3163  0.1425  2.7660
   63SAPC  H10S 5048   4.424   1.982   7.595 -0.4700 -2.1887  0.3996
   63SAPC  C211 5049   4.530   2.058   7.755 -0.2851 -0.1008 -0.0625
   63SAPC  H11R 5050   4.499   2.162   7.735 -1.6303 -0.6593 -0.9811
   63SAPC  C212 5051   4.575   2.022   7.880  0.3747 -0.0924  0.3933
   63SAPC  H12R 5052   4.577   2.097   7.960  0.3702 -0.4967  0.7764
   63SAPC  C213 5053   4.626   1.882   7.922 -0.0310 -0.1970  0.0768
   63SAPC  H13R 5054   4.678   1.902   8.018  0.5423  0.3590 -0.3434
   63SAPC  H13S 5055   4.705   1.844   7.854 -0.7086 -0.2801 -0.6806
   63SAPC  C214 5056   4.522   1.769   7.928  0.0213 -0.0879  0.4560
   63SAPC  H14R 5057   4.474   1.742   7.833 -2.2129  0.4999  1.3617
   63SAPC  C215 5058   4.486   1.688   8.024 -0.3659  0.7776 -0.6596
   63SAPC  H15R 5059   4.427   1.599   8.000  0.0446 -0.0111  1.0700
   63SAPC  C216 5060   4.523   1.689   8.173 -0.1777 -0.5864  0.3110
   63SAPC  H16R 5061   4.618   1.745   8.191 -0.2177 -0.3657 -0.1463
   63SAPC  H16S 5062   4.540   1.582   8.199 -2.3788 -0.9745  0.3147
   63SAPC  C217 5063   4.414   1.732   8.266  0.9627  0.3212  0.1229
   63SAPC  H17R 5064   4.323   1.669   8.255  1.1269 -0.2155  1.6553
   63SAPC  H17S 5065   4.389   1.840   8.259 -2.6984 -0.3540  0.8672
   63SAPC  C218 5066   4.450   1.739   8.423  0.0385 -0.6863  0.5871
   63SAPC  H18R 5067   4.356   1.768   8.473  0.4468  0.5337  0.6711
   63SAPC  H18S 5068   4.525   1.819   8.443 -1.7506  0.8165  1.5635
   63SAPC  C219 5069   4.515   1.607   8.481  0.0081 -0.5662  0.1981
   63SAPC  H19R 5070   4.564   1.622   8.579  1.4481 -1.4560 -0.3589
   63SAPC  H19S 5071   4.587   1.569   8.405  0.8050  0.1396  0.5885
   63SAPC  C220 5072   4.425   1.484   8.503  0.1073  0.4393 -0.0681
   63SAPC  H20R 5073   4.350   1.500   8.583 -1.1118  0.0622 -1.0924
   63SAPC  H20S 5074   4.490   1.399   8.534 -0.9964 -0.9213 -1.3147
   63SAPC  H20T 5075   4.378   1.454   8.407  2.2077 -0.1055 -0.9883
   63SAPC   C33 5076   3.968   2.264   7.210 -0.0909 -0.5132  0.3394
   63SAPC   H3X 5077   4.015   2.165   7.196  0.6923 -0.4177  2.0113
   63SAPC   H3Y 5078   3.866   2.243   7.249  0.3086 -2.2959  0.4888
   63SAPC   C34 5079   4.044   2.327   7.328  0.2329  0.2385 -0.0676
   63SAPC   H4X 5080   3.984   2.414   7.363  0.6629  0.8987 -0.9190
   63SAPC   H4Y 5081   4.143   2.362   7.291 -0.7241  0.4526 -2.5875
   63SAPC   C35 5082   4.059   2.234   7.442  0.1659  0.9752  0.7334
   63SAPC   H5X 5083   4.129   2.149   7.426 -1.4160 -0.1907 -0.2516
   63SAPC   H5Y 5084   3.959   2.197   7.472  0.4990 -2.3274 -1.6470
   63SAPC   C36 5085   4.115   2.298   7.577 -0.2273  1.2815  0.6182
   63SAPC   H6X 5086   4.035   2.369   7.606 -3.7987 -2.1791  0.1611
   63SAPC   H6Y 5087   4.215   2.341   7.555  1.1901 -2.3425 -0.9090
   63SAPC   C37 5088   4.132   2.198   7.689 -0.3642  0.5608  0.0894
   63SAPC   H7X 5089   4.213   2.128   7.659 -1.9267 -0.7733 -1.2207
   63SAPC   H7Y 5090   4.039   2.137   7.697  0.8525 -1.2780  1.0547
   63SAPC   C38 5091   4.161   2.250   7.832  0.3477 -0.7299  0.2163
   63SAPC   H8X 5092   4.059   2.284   7.863  0.5675 -1.6638  2.1227
   63SAPC   H8Y 5093   4.225   2.340   7.823 -0.1539 -0.4193 -0.3702
   63SAPC   C39 5094   4.209   2.150   7.939  0.0262  0.1305  0.1174
   63SAPC   H9X 5095   4.314   2.119   7.917  0.4370  2.0209 -0.8702
   63SAPC   H9Y 5096   4.149   2.057   7.948 -0.1308 -0.1776 -2.8700
   63SAPC  C310 5097   4.217   2.229   8.078 -0.1539 -0.0170  0.0988
   63SAPC  H10X 5098   4.122   2.281   8.105 -0.9465 -0.1435 -2.2250
   63SAPC  H10Y 5099   4.294   2.308   8.074 -1.7130  1.5091 -1.0681
   63SAPC  C311 5100   4.258   2.130   8.189  0.4873  0.1888 -0.3861
   63SAPC  H11X 5101   4.365   2.109   8.171  0.6535  1.4540 -0.9728
   63SAPC  H11Y 5102   4.199   2.036   8.182  0.8768 -0.1314  0.4818
   63SAPC  C312 5103   4.258   2.188   8.332 -0.1908  0.1076 -0.5983
   63SAPC  H12X 5104   4.155   2.222   8.355  0.0115  1.1444 -1.1580
   63SAPC  H12Y 5105   4.320   2.280   8.341  0.0342 -0.1063  0.1171
   63SAPC  C313 5106   4.314   2.083   8.429 -0.2673 -0.1202  0.1420
   63SAPC  H13X 5107   4.405   2.029   8.397 -1.0115 -2.3992  1.6060
   63SAPC  H13Y 5108   4.241   2.000   8.423 -0.1393 -0.1653 -0.9726
   63SAPC  C314 5109   4.329   2.126   8.574 -0.2321 -0.1617  0.6695
   63SAPC  H14X 5110   4.247   2.198   8.596 -0.6451 -0.0825 -0.9882
   63SAPC  H14Y 5111   4.417   2.193   8.582 -1.7444  2.0261 -0.1972
   63SAPC  C315 5112   4.321   2.011   8.679  0.0658 -0.6102  0.9053
   63SAPC  H15X 5113   4.405   1.939   8.661  0.8907  0.4003  0.6408
   63SAPC  H15Y 5114   4.223   1.958   8.683  0.3323 -1.1383  0.6191
   63SAPC  C316 5115   4.344   2.069   8.815  0.1278  0.3014  0.1511
   63SAPC  H16X 5116   4.260   2.133   8.851  0.1843  0.5446 -0.1532
   63SAPC  H16Y 5117   4.423   2.146   8.814  0.3389  0.1003  0.8134
   63SAPC  C317 5118   4.381   1.974   8.926  0.2760 -0.6991  0.9803
   63SAPC  H17X 5119   4.451   1.897   8.888 -0.2980 -0.2635 -1.0943
   63SAPC  H17Y 5120   4.294   1.914   8.962 -0.3012  0.5449  1.7116
   63SAPC  C318 5121   4.458   2.042   9.040  0.6739 -0.5453 -0.2394
   63SAPC  H18X 5122   4.405   2.132   9.079  2.3485  0.2683  0.2435
   63SAPC  H18Y 5123   4.560   2.074   9.011 -0.3702  3.0501 -0.5188
   63SAPC  H18Z 5124   4.486   1.969   9.118  2.0423  0.8599  0.6500
   64SAPC     N 5125   6.138   2.464   5.740  0.3774  0.2220 -0.8019
   64SAPC   C12 5126   6.055   2.455   5.867 -0.6752 -0.4387 -0.5657
   64SAPC  H12A 5127   5.984   2.374   5.866 -3.2737  1.6643  0.6926
   64SAPC  H12B 5128   5.993   2.543   5.876 -1.8061 -1.4692  3.4898
   64SAPC   C13 5129   6.230   2.348   5.729  0.0879  0.2308  0.0041
   64SAPC  H13A 5130   6.288   2.357   5.639 -1.3164  1.9050 -0.7885
   64SAPC  H13B 5131   6.309   2.356   5.803 -0.4082  0.1797  0.5439
   64SAPC  H13C 5132   6.180   2.253   5.739  1.3284 -0.2998  1.9892
   64SAPC   C14 5133   6.053   2.452   5.622  0.1870  1.1896  0.6745
   64SAPC  H14A 5134   6.107   2.456   5.529  1.5641 -1.6603  1.2349
   64SAPC  H14B 5135   5.994   2.361   5.621 -0.9467  1.9149 -0.5310
   64SAPC  H14C 5136   5.987   2.537   5.626 -2.9259 -1.0552  1.9839
   64SAPC   C15 5137   6.219   2.590   5.735  0.2731 -0.6957 -0.5324
   64SAPC  H15A 5138   6.160   2.680   5.729  0.0341 -0.7982  0.2711
   64SAPC  H15B 5139   6.279   2.607   5.822  0.0203 -1.0228 -0.2896
   64SAPC  H15C 5140   6.291   2.588   5.655 -0.3654  0.0322 -1.1416
   64SAPC   C11 5141   6.141   2.454   6.002 -0.4403 -0.0719 -0.0955
   64SAPC  H11A 5142   6.073   2.483   6.085 -0.4441 -1.2553  0.3437
   64SAPC  H11B 5143   6.215   2.536   5.991  1.9198 -1.6533  2.7191
   64SAPC     P 5144   6.323   2.321   6.127 -0.2474 -0.1063  0.0439
   64SAPC   O13 5145   6.352   2.188   6.165 -0.2083  0.1866  0.6167
   64SAPC   O14 5146   6.436   2.407   6.071 -0.2529  0.1802  0.0993
   64SAPC   O12 5147   6.199   2.320   6.022 -0.2867 -0.2133 -0.7226
   64SAPC   O11 5148   6.254   2.397   6.253 -0.7651  0.2079  0.4788
   64SAPC    C1 5149   6.302   2.515   6.313  0.5675  0.6059  0.1657
   64SAPC    HA 5150   6.327   2.591   6.236 -0.6317  1.5470  0.6742
   64SAPC    HB 5151   6.226   2.550   6.386 -0.0661 -2.0013  0.8713
   64SAPC    C2 5152   6.439   2.485   6.389 -0.2889  0.0304 -0.0597
   64SAPC    HS 5153   6.519   2.468   6.313  0.5885 -0.2757  0.9065
   64SAPC   O21 5154   6.431   2.368   6.472 -0.3914  0.0128 -0.0594
   64SAPC   C21 5155   6.538   2.331   6.537 -0.5826  0.1183  1.0257
   64SAPC   O22 5156   6.640   2.396   6.550 -0.5134  0.5529 -0.4939
   64SAPC   C22 5157   6.520   2.189   6.596 -0.0269  0.7415 -0.2014
   64SAPC   H2R 5158   6.413   2.164   6.606  0.1705  0.3833  1.1974
   64SAPC   H2S 5159   6.574   2.124   6.524  2.6091 -1.5110  3.4493
   64SAPC    C3 5160   6.478   2.613   6.470 -0.8344 -0.0677  0.3410
   64SAPC    HX 5161   6.470   2.697   6.397 -0.8341 -0.3943 -0.0401
   64SAPC    HY 5162   6.580   2.615   6.512 -0.2938  1.1912 -0.9551
   64SAPC   O31 5163   6.387   2.633   6.575  0.4595  0.1390 -0.0355
   64SAPC   C31 5164   6.364   2.761   6.608 -0.5958 -0.0507  0.4791
   64SAPC   O32 5165   6.411   2.851   6.549 -0.1930 -0.1107  0.0765
   64SAPC   C32 5166   6.274   2.767   6.736 -0.0272 -0.0684 -0.0761
   64SAPC   H2X 5167   6.312   2.679   6.791  0.8406 -0.1634 -0.7980
   64SAPC   H2Y 5168   6.166   2.755   6.715  0.2655 -1.3182 -0.9936
   64SAPC   C23 5169   6.600   2.161   6.726  0.1607  0.1339 -0.0297
   64SAPC   H3R 5170   6.694   2.218   6.712 -0.9811  2.1666  0.2639
   64SAPC   H3S 5171   6.622   2.052   6.735  1.8649  0.4381 -0.1167
   64SAPC   C24 5172   6.526   2.215   6.855  0.4344  0.5580  0.3208
   64SAPC   H4R 5173   6.496   2.317   6.823 -0.7196  0.3432  0.7063
   64SAPC   H4S 5174   6.591   2.237   6.942 -0.3547 -0.0954  1.0873
   64SAPC   C25 5175   6.399   2.139   6.881 -0.6263  0.7534 -0.2977
   64SAPC   H5R 5176   6.345   2.117   6.788 -1.2964 -1.6569  0.5856
   64SAPC   C26 5177   6.346   2.113   7.007  0.1194  1.4343  0.0286
   64SAPC   H6R 5178   6.252   2.055   7.009  0.0434  1.5519 -0.1644
   64SAPC   C27 5179   6.410   2.144   7.145  0.6164 -0.5228 -0.2940
   64SAPC   H7R 5180   6.520   2.124   7.142  0.4571 -1.3132 -2.0068
   64SAPC   H7S 5181   6.366   2.074   7.219 -2.9123 -0.0458 -1.7611
   64SAPC   C28 5182   6.395   2.286   7.185 -1.1316  0.7561  0.4475
   64SAPC   H8R 5183   6.428   2.350   7.101  2.3658 -1.1578  0.1859
   64SAPC   C29 5184   6.342   2.334   7.299 -0.3548  0.1733 -0.1975
   64SAPC   H9R 5185   6.354   2.442   7.314  3.6999 -0.2036  0.3333
   64SAPC  C210 5186   6.300   2.251   7.422 -0.2524 -0.8976 -0.3052
   64SAPC  H10R 5187   6.253   2.155   7.392 -0.6969 -0.4028 -1.2309
   64SAPC  H10S 5188   6.232   2.319   7.478 -0.2842  0.2188 -1.6677
   64SAPC  C211 5189   6.419   2.221   7.513 -0.4707 -0.5081  0.2361
   64SAPC  H11R 5190   6.514   2.197   7.463 -1.4060 -0.2083 -1.8384
   64SAPC  C212 5191   6.413   2.214   7.640 -0.1472  0.1396 -0.5581
   64SAPC  H12R 5192   6.506   2.192   7.695 -0.9320 -2.2094 -0.0404
   64SAPC  C213 5193   6.299   2.239   7.726 -0.1680 -0.3521 -0.4603
   64SAPC  H13R 5194   6.207   2.256   7.665 -0.1693 -2.5913 -1.1849
   64SAPC  H13S 5195   6.329   2.330   7.782  0.0399 -0.8941  0.3255
   64SAPC  C214 5196   6.262   2.115   7.809  0.0610 -0.8607 -0.3137
   64SAPC  H14R 5197   6.223   2.030   7.751 -0.6664  0.0024 -1.1168
   64SAPC  C215 5198   6.261   2.107   7.943 -0.2265  0.1906  0.6166
   64SAPC  H15R 5199   6.229   2.010   7.985 -1.2010 -0.3120 -1.1821
   64SAPC  C216 5200   6.300   2.211   8.042 -0.3498 -0.1174  1.1075
   64SAPC  H16R 5201   6.212   2.246   8.099 -0.8490  0.1108  0.2042
   64SAPC  H16S 5202   6.348   2.292   7.984 -0.7557 -0.5158  0.2064
   64SAPC  C217 5203   6.412   2.164   8.134  0.0768 -0.2666  0.4816
   64SAPC  H17R 5204   6.494   2.121   8.074 -1.5123 -1.0200 -1.2563
   64SAPC  H17S 5205   6.372   2.076   8.190 -0.1160 -1.4240 -1.3934
   64SAPC  C218 5206   6.471   2.280   8.223 -0.6475  0.1499  0.5739
   64SAPC  H18R 5207   6.490   2.370   8.161  0.4429 -1.2412 -1.2049
   64SAPC  H18S 5208   6.572   2.246   8.256 -1.5220 -1.3433  1.8670
   64SAPC  C219 5209   6.378   2.308   8.340 -0.0308 -0.5216 -0.9499
   64SAPC  H19R 5210   6.279   2.349   8.309  1.1597  2.5411 -1.0320
   64SAPC  H19S 5211   6.420   2.386   8.406 -2.8918  0.3334  0.0189
   64SAPC  C220 5212   6.348   2.190   8.435  0.2943 -0.0236  0.8743
   64SAPC  H20R 5213   6.303   2.108   8.374 -0.2724  0.2158  0.9660
   64SAPC  H20S 5214   6.283   2.207   8.523 -1.7422 -0.2559 -0.5134
   64SAPC  H20T 5215   6.444   2.148   8.472  1.8531  1.6733 -0.9699
   64SAPC   C33 5216   6.289   2.895   6.814  0.1886  0.7366  0.0006
   64SAPC   H3X 5217   6.267   2.987   6.756  3.3528  1.5704 -0.1028
   64SAPC   H3Y 5218   6.394   2.909   6.848  0.2802  3.8308 -1.2693
   64SAPC   C34 5219   6.209   2.900   6.944 -0.0603  0.0705 -0.2789
   64SAPC   H4X 5220   6.248   2.815   7.003  1.6488  2.3961  2.1427
   64SAPC   H4Y 5221   6.101   2.874   6.937 -0.7529  2.2020  1.3771
   64SAPC   C35 5222   6.229   3.028   7.022 -0.1071 -0.6012  0.1486
   64SAPC   H5X 5223   6.167   3.105   6.970 -3.3782 -0.0441  4.3552
   64SAPC   H5Y 5224   6.335   3.057   7.004  0.7412 -2.3623  1.9708
   64SAPC   C36 5225   6.203   3.031   7.167 -0.1202 -0.6041  0.4427
   64SAPC   H6X 5226   6.099   3.007   7.198  0.3804 -1.2858  1.6730
   64SAPC   H6Y 5227   6.223   3.135   7.199 -0.7355 -0.1543 -0.5766
   64SAPC   C37 5228   6.284   2.928   7.253 -1.1444 -0.5356 -0.4829
   64SAPC   H7X 5229   6.389   2.964   7.258 -1.1405 -0.6718  0.4641
   64SAPC   H7Y 5230   6.282   2.826   7.209  0.1585 -1.1073  0.7506
   64SAPC   C38 5231   6.228   2.911   7.402 -0.9215  0.3806 -0.1909
   64SAPC   H8X 5232   6.124   2.871   7.397 -0.2573 -1.3677 -0.6580
   64SAPC   H8Y 5233   6.221   3.014   7.444  0.3698  0.1614  0.6211
   64SAPC   C39 5234   6.312   2.804   7.475  0.4794  0.3584 -0.2141
   64SAPC   H9X 5235   6.416   2.820   7.437  0.5754  1.0215  0.3184
   64SAPC   H9Y 5236   6.275   2.704   7.445  2.2962 -1.0810  1.9936
   64SAPC  C310 5237   6.313   2.810   7.629 -0.5096  0.4399 -0.1746
   64SAPC  H10X 5238   6.213   2.787   7.672 -0.5612 -0.5756 -0.7980
   64SAPC  H10Y 5239   6.345   2.910   7.665 -0.7912  0.6320 -0.4538
   64SAPC  C311 5240   6.402   2.694   7.708 -0.4819 -0.1486 -0.1600
   64SAPC  H11X 5241   6.506   2.719   7.680 -0.6358  0.9768  0.2172
   64SAPC  H11Y 5242   6.377   2.601   7.654  1.7611 -0.1036 -1.3858
   64SAPC  C312 5243   6.376   2.696   7.860  0.2380 -0.1008  0.1338
   64SAPC  H12X 5244   6.401   2.799   7.892  1.2779  0.2393 -1.6478
   64SAPC  H12Y 5245   6.430   2.616   7.916 -1.4562 -2.3137 -1.2461
   64SAPC  C313 5246   6.230   2.676   7.898  0.0291 -0.2478  0.3148
   64SAPC  H13X 5247   6.185   2.595   7.836 -1.7558  1.0103 -0.1161
   64SAPC  H13Y 5248   6.175   2.768   7.871  1.8988  0.7262 -0.3686
   64SAPC  C314 5249   6.211   2.653   8.048 -0.3480 -0.7659  0.3752
   64SAPC  H14X 5250   6.262   2.560   8.083  1.9109 -0.2624 -1.3526
   64SAPC  H14Y 5251   6.105   2.636   8.076 -0.1783 -0.5320  1.1922
   64SAPC  C315 5252   6.268   2.766   8.137 -0.2106 -0.5086  0.0691
   64SAPC  H15X 5253   6.376   2.781   8.112 -0.2200 -0.6595 -0.0636
   64SAPC  H15Y 5254   6.259   2.758   8.247 -2.5186 -1.2775 -0.1234
   64SAPC  C316 5255   6.195   2.895   8.114 -0.5157 -0.5492  0.7941
   64SAPC  H16X 5256   6.084   2.886   8.112 -1.1317  4.0267  2.6817
   64SAPC  H16Y 5257   6.219   2.940   8.015 -1.6967 -2.8320 -0.6140
   64SAPC  C317 5258   6.217   2.997   8.228 -0.4625  0.0026  0.4305
   64SAPC  H17X 5259   6.324   3.003   8.260 -0.6224  0.3081  0.9181
   64SAPC  H17Y 5260   6.174   2.958   8.323 -0.6328  1.0178  0.7837
   64SAPC  C318 5261   6.163   3.140   8.196 -0.7114 -0.0423  0.3175
   64SAPC  H18X 5262   6.053   3.153   8.186 -0.8445 -0.4152  1.1701
   64SAPC  H18Y 5263   6.224   3.183   8.114  0.6557  1.5668  2.0845
   64SAPC  H18Z 5264   6.182   3.207   8.283  2.4525  1.2849 -1.2403
   65SAPC     N 5265   0.649   3.736   5.776  0.4123 -0.1037  0.4876
   65SAPC   C12 5266   0.737   3.677   5.885 -0.7502  0.6285 -0.0240
   65SAPC  H12A 5267   0.828   3.647   5.835 -1.2052  1.7292 -1.5846
   65SAPC  H12B 5268   0.692   3.588   5.928  0.9686  0.2160  1.0263
   65SAPC   C13 5269   0.700   3.876   5.732  0.0055 -0.4338  0.0919
   65SAPC  H13A 5270   0.699   3.940   5.819  1.8616 -1.0078  0.5588
   65SAPC  H13B 5271   0.803   3.873   5.700 -0.0984  1.3356 -0.5453
   65SAPC  H13C 5272   0.637   3.920   5.656  0.6627  1.8303  0.7635
   65SAPC   C14 5273   0.638   3.650   5.658  0.3026  0.8527  0.6360
   65SAPC  H14A 5274   0.728   3.642   5.598 -0.4701 -1.4417 -0.3054
   65SAPC  H14B 5275   0.610   3.547   5.672  0.1804  0.7762 -0.1145
   65SAPC  H14C 5276   0.560   3.693   5.597 -1.8769 -1.5758  1.5312
   65SAPC   C15 5277   0.508   3.749   5.828  0.3974 -0.0082 -0.4356
   65SAPC  H15A 5278   0.499   3.844   5.879 -0.3252  0.2282 -0.9882
   65SAPC  H15B 5279   0.433   3.765   5.752  0.1810 -1.0575 -0.4588
   65SAPC  H15C 5280   0.493   3.665   5.894 -0.6500 -0.9916 -1.8693
   65SAPC   C11 5281   0.774   3.772   5.997 -0.2610 -0.0263  0.1464
   65SAPC  H11A 5282   0.830   3.860   5.960 -1.6949  0.1805 -1.7178
   65SAPC  H11B 5283   0.847   3.719   6.062  0.6911 -0.8927 -1.5649
   65SAPC     P 5284   0.595   3.748   6.193  0.0917  0.2059  0.5488
   65SAPC   O13 5285   0.503   3.854   6.259  0.3271  0.0737  0.7387
   65SAPC   O14 5286   0.538   3.623   6.142  0.0170  0.1782 -0.5738
   65SAPC   O12 5287   0.660   3.822   6.077  0.0974  0.4853 -0.5288
   65SAPC   O11 5288   0.712   3.718   6.290  0.2638  0.1919  0.1862
   65SAPC    C1 5289   0.781   3.827   6.353 -0.4539  0.2354 -0.0003
   65SAPC    HA 5290   0.890   3.807   6.340 -0.6245 -2.0594  1.5145
   65SAPC    HB 5291   0.767   3.923   6.299 -0.6344  1.0711  1.4818
   65SAPC    C2 5292   0.753   3.840   6.510 -0.8143 -0.4095 -0.2697
   65SAPC    HS 5293   0.771   3.746   6.567 -0.8889 -0.3586 -0.1618
   65SAPC   O21 5294   0.625   3.896   6.547 -0.4175  0.3143 -0.4629
   65SAPC   C21 5295   0.530   3.797   6.553  0.0868  0.1982  0.2799
   65SAPC   O22 5296   0.556   3.675   6.537  0.0703  0.2484 -0.4690
   65SAPC   C22 5297   0.394   3.863   6.592 -0.2395  0.4528 -0.4859
   65SAPC   H2R 5298   0.371   3.935   6.511 -1.0541 -1.2629 -1.8394
   65SAPC   H2S 5299   0.317   3.783   6.598 -0.7191  0.9441  0.1104
   65SAPC    C3 5300   0.848   3.949   6.557  0.5373  0.3523 -0.4326
   65SAPC    HX 5301   0.802   4.041   6.514  2.5494  0.6421 -2.1218
   65SAPC    HY 5302   0.942   3.935   6.501 -1.6532 -1.2851 -4.0714
   65SAPC   O31 5303   0.854   3.956   6.705 -0.4481  0.0954 -0.0600
   65SAPC   C31 5304   0.820   4.070   6.757  0.2186 -0.6601 -0.0754
   65SAPC   O32 5305   0.809   4.172   6.695 -0.1044 -0.5902  0.2771
   65SAPC   C32 5306   0.799   4.042   6.906  0.8779  0.1481  0.2771
   65SAPC   H2X 5307   0.845   3.944   6.932  0.1661 -1.0045 -2.4725
   65SAPC   H2Y 5308   0.689   4.029   6.913  0.8503  0.6874  0.9233
   65SAPC   C23 5309   0.393   3.944   6.728 -0.3335 -0.2838  0.3191
   65SAPC   H3R 5310   0.298   4.000   6.738 -1.4481 -1.8678 -0.9945
   65SAPC   H3S 5311   0.473   4.022   6.726 -0.6280  0.0459  0.9350
   65SAPC   C24 5312   0.413   3.852   6.851 -0.4744 -0.8478 -0.7269
   65SAPC   H4R 5313   0.507   3.796   6.834  0.5662  0.0581  1.6150
   65SAPC   H4S 5314   0.325   3.787   6.864  1.0355 -2.7120  0.6686
   65SAPC   C25 5315   0.424   3.934   6.982  0.4927  0.0657 -0.0459
   65SAPC   H5R 5316   0.383   4.036   6.985 -1.7256 -0.7112 -1.6031
   65SAPC   C26 5317   0.490   3.893   7.090 -0.2814  0.2848  0.2057
   65SAPC   H6R 5318   0.491   3.957   7.180  3.0399 -1.3507  1.4893
   65SAPC   C27 5319   0.564   3.765   7.111 -0.1452 -0.6814  0.5537
   65SAPC   H7R 5320   0.669   3.774   7.144 -0.2243 -0.8804  0.8633
   65SAPC   H7S 5321   0.567   3.707   7.016  1.8165  0.5053 -0.1554
   65SAPC   C28 5322   0.501   3.679   7.215  0.2353 -0.3551  0.3247
   65SAPC   H8R 5323   0.444   3.592   7.180  0.2168 -0.4692  0.6343
   65SAPC   C29 5324   0.508   3.694   7.350 -0.1636 -0.3589  0.2893
   65SAPC   H9R 5325   0.451   3.626   7.414  0.5443 -0.6555  0.6172
   65SAPC  C210 5326   0.580   3.805   7.423  0.1171  0.6832  0.2594
   65SAPC  H10R 5327   0.497   3.879   7.429 -0.2224  0.3456 -0.2285
   65SAPC  H10S 5328   0.658   3.867   7.374  0.0387  1.2498  0.8372
   65SAPC  C211 5329   0.621   3.758   7.558 -0.3095  0.0621  0.1950
   65SAPC  H11R 5330   0.659   3.656   7.571  0.7199  0.5465  1.2860
   65SAPC  C212 5331   0.631   3.834   7.669 -0.0037  0.4739 -0.6667
   65SAPC  H12R 5332   0.660   3.796   7.768 -0.6137  1.3056 -0.1567
   65SAPC  C213 5333   0.602   3.986   7.670 -0.1850  0.4201 -0.2281
   65SAPC  H13R 5334   0.493   4.001   7.689 -0.2407  0.1836 -0.3686
   65SAPC  H13S 5335   0.615   4.038   7.573 -2.2310  2.3307  0.4341
   65SAPC  C214 5336   0.678   4.054   7.780 -0.5484  0.1636  0.4005
   65SAPC  H14R 5337   0.772   4.012   7.818  0.5389  2.2146  0.1468
   65SAPC  C215 5338   0.647   4.173   7.834 -0.3811 -0.6292  0.2716
   65SAPC  H15R 5339   0.717   4.202   7.913 -0.8930 -1.7740  1.1719
   65SAPC  C216 5340   0.534   4.267   7.799 -0.3882  0.7392 -0.4826
   65SAPC  H16R 5341   0.454   4.258   7.876  0.3608 -1.4676  0.1006
   65SAPC  H16S 5342   0.481   4.237   7.706  0.7589 -0.0641 -0.8945
   65SAPC  C217 5343   0.572   4.413   7.779  0.0849 -0.6918 -0.3946
   65SAPC  H17R 5344   0.642   4.424   7.693  0.4446  1.8329  0.1475
   65SAPC  H17S 5345   0.620   4.449   7.872 -2.6433  0.9373  0.4782
   65SAPC  C218 5346   0.462   4.513   7.749 -0.0647 -0.0218  0.1554
   65SAPC  H18R 5347   0.386   4.534   7.828  1.1176  1.1301  1.0242
   65SAPC  H18S 5348   0.402   4.476   7.663  1.0939 -0.4191 -0.5101
   65SAPC  C219 5349   0.512   4.653   7.715 -0.0410  0.5400  0.0000
   65SAPC  H19R 5350   0.596   4.648   7.643  0.3121 -0.1365  0.4520
   65SAPC  H19S 5351   0.553   4.696   7.809 -1.5298 -0.1203  0.9896
   65SAPC  C220 5352   0.400   4.742   7.662  0.4689 -0.2116  0.6850
   65SAPC  H20R 5353   0.374   4.698   7.563  0.5406 -1.8212  1.3508
   65SAPC  H20S 5354   0.439   4.845   7.647  0.1684 -0.1275  0.4588
   65SAPC  H20T 5355   0.303   4.739   7.717 -0.3669  0.6785 -0.6538
   65SAPC   C33 5356   0.833   4.162   6.995  0.4476  0.2615  0.8749
   65SAPC   H3X 5357   0.771   4.253   6.983  3.0500  2.2374  1.5391
   65SAPC   H3Y 5358   0.933   4.195   6.961 -0.1724  0.4681 -0.8390
   65SAPC   C34 5359   0.843   4.122   7.141  0.0171 -0.5221 -0.9381
   65SAPC   H4X 5360   0.907   4.031   7.153 -1.1225 -1.7205 -3.3347
   65SAPC   H4Y 5361   0.747   4.091   7.189 -1.4304  2.0583 -2.0102
   65SAPC   C35 5362   0.890   4.228   7.250 -0.4808 -0.7083 -0.7191
   65SAPC   H5X 5363   0.806   4.299   7.268 -0.6921 -0.9642 -0.6879
   65SAPC   H5Y 5364   0.973   4.281   7.200  0.8286 -0.3231  1.7239
   65SAPC   C36 5365   0.939   4.181   7.386 -0.0380  0.3935  0.2391
   65SAPC   H6X 5366   1.018   4.103   7.378 -1.1331 -0.6460 -0.8090
   65SAPC   H6Y 5367   0.855   4.125   7.433 -1.0888  0.8960 -0.9807
   65SAPC   C37 5368   0.979   4.292   7.477 -0.6430 -0.0936  0.1679
   65SAPC   H7X 5369   0.892   4.357   7.498 -0.8610 -0.0436 -0.8111
   65SAPC   H7Y 5370   1.055   4.357   7.428 -1.0830  0.1232 -0.2247
   65SAPC   C38 5371   1.031   4.235   7.612  0.3654  0.1257  0.7107
   65SAPC   H8X 5372   1.133   4.191   7.610 -0.6071 -2.2842  0.1482
   65SAPC   H8Y 5373   0.974   4.151   7.656  1.4732 -0.2568  1.4755
   65SAPC   C39 5374   1.054   4.347   7.719  0.5908  0.0665 -0.2111
   65SAPC   H9X 5375   0.956   4.400   7.719  0.7700  0.4496 -1.4196
   65SAPC   H9Y 5376   1.136   4.412   7.681  1.8515 -0.6745  1.2002
   65SAPC  C310 5377   1.102   4.296   7.860 -0.6092 -0.7275  0.0564
   65SAPC  H10X 5378   1.151   4.380   7.913  0.5714 -1.6600  0.5060
   65SAPC  H10Y 5379   1.192   4.231   7.844  0.1945  0.6275 -1.2074
   65SAPC  C311 5380   0.993   4.234   7.947 -0.2760 -0.1071 -0.2372
   65SAPC  H11X 5381   0.957   4.148   7.887  1.5994 -1.1192  0.0315
   65SAPC  H11Y 5382   0.903   4.300   7.942  0.2909  0.5822 -3.1288
   65SAPC  C312 5383   1.020   4.204   8.091  0.0979  0.1204  0.0657
   65SAPC  H12X 5384   0.927   4.174   8.144 -0.8152  1.6078 -0.6350
   65SAPC  H12Y 5385   1.039   4.307   8.128  1.6504  0.0560 -0.4850
   65SAPC  C313 5386   1.140   4.115   8.120  0.3224 -0.6254 -0.3971
   65SAPC  H13X 5387   1.229   4.167   8.078  0.1627  0.3740  0.4764
   65SAPC  H13Y 5388   1.120   4.021   8.064 -2.3926  0.9683 -2.3404
   65SAPC  C314 5389   1.178   4.100   8.271  0.8021  0.7753  0.0552
   65SAPC  H14X 5390   1.092   4.063   8.331  1.3859 -0.0011  0.4236
   65SAPC  H14Y 5391   1.210   4.196   8.316  2.4698 -0.0430  0.6977
   65SAPC  C315 5392   1.302   4.013   8.283  0.7042 -0.1122 -0.2320
   65SAPC  H15X 5393   1.368   4.045   8.199  0.7167  1.5144  0.3508
   65SAPC  H15Y 5394   1.267   3.909   8.271 -2.0913  0.8115 -0.9702
   65SAPC  C316 5395   1.361   4.012   8.424 -0.9597 -0.0430 -0.2978
   65SAPC  H16X 5396   1.296   3.950   8.489 -0.0076 -0.5169  0.2248
   65SAPC  H16Y 5397   1.372   4.117   8.459  3.9734 -0.6160  0.6914
   65SAPC  C317 5398   1.496   3.947   8.427 -0.2143 -0.4088  0.0712
   65SAPC  H17X 5399   1.572   4.023   8.399  0.5283 -1.3085 -0.3947
   65SAPC  H17Y 5400   1.497   3.860   8.358 -0.7945 -0.5054  0.1807
   65SAPC  C318 5401   1.524   3.885   8.565  0.1440  0.0301 -0.2618
   65SAPC  H18X 5402   1.540   3.970   8.634  0.3661  0.1023 -0.3979
   65SAPC  H18Y 5403   1.627   3.842   8.574  0.1719  0.2467  0.4816
   65SAPC  H18Z 5404   1.446   3.815   8.601  0.7888 -0.4655  0.2165
   66SAPC     N 5405   3.189   2.220   6.188 -0.2492  0.0258 -0.7349
   66SAPC   C12 5406   3.229   2.336   6.285 -0.5343  0.5357  0.0060
   66SAPC  H12A 5407   3.266   2.294   6.377 -0.4992  0.9836  0.1949
   66SAPC  H12B 5408   3.137   2.381   6.318 -0.3408  1.2881 -0.4653
   66SAPC   C13 5409   3.304   2.125   6.152 -0.3988 -0.6583 -0.1785
   66SAPC  H13A 5410   3.358   2.095   6.240  0.1118 -0.7293 -0.5142
   66SAPC  H13B 5411   3.270   2.031   6.111 -1.3093 -0.6644  0.5409
   66SAPC  H13C 5412   3.382   2.181   6.103 -0.5075 -0.7291 -0.4330
   66SAPC   C14 5413   3.087   2.142   6.259  0.4863 -0.0896  0.5694
   66SAPC  H14A 5414   3.116   2.080   6.342 -0.3596 -3.2986 -1.3448
   66SAPC  H14B 5415   3.015   2.214   6.295  0.5705  1.3402 -1.8726
   66SAPC  H14C 5416   3.031   2.083   6.187 -2.0724  0.8680  1.6676
   66SAPC   C15 5417   3.130   2.272   6.067  0.0481 -0.4152  0.7593
   66SAPC  H15A 5418   3.203   2.327   6.010 -0.9430 -1.3810 -1.5919
   66SAPC  H15B 5419   3.086   2.196   6.003 -1.5032  1.5008 -0.5754
   66SAPC  H15C 5420   3.056   2.345   6.096  0.3391 -0.5770  1.9199
   66SAPC   C11 5421   3.346   2.434   6.232  0.3176 -0.6503 -0.1425
   66SAPC  H11A 5422   3.439   2.379   6.208  0.4549 -1.7629  2.5063
   66SAPC  H11B 5423   3.376   2.496   6.319  2.0304 -1.6216 -0.0029
   66SAPC     P 5424   3.202   2.640   6.137 -0.3505  0.4465 -0.1497
   66SAPC   O13 5425   3.211   2.731   6.024  0.1131  0.0375 -0.1367
   66SAPC   O14 5426   3.066   2.590   6.164  0.0853  0.1165  0.0288
   66SAPC   O12 5427   3.302   2.514   6.119 -0.1666 -0.4348  0.2444
   66SAPC   O11 5428   3.261   2.719   6.263 -0.3475  0.2506  0.5976
   66SAPC    C1 5429   3.389   2.778   6.266  0.4242  0.2332  0.1969
   66SAPC    HA 5430   3.458   2.697   6.295 -1.1875 -0.6404  1.8435
   66SAPC    HB 5431   3.429   2.817   6.171  1.9965  0.5716  0.9706
   66SAPC    C2 5432   3.403   2.895   6.360  0.3035 -0.0554  0.6852
   66SAPC    HS 5433   3.493   2.944   6.315  1.0550 -0.8128  1.3398
   66SAPC   O21 5434   3.423   2.853   6.493 -0.3481  0.1985  0.8539
   66SAPC   C21 5435   3.499   2.932   6.570  0.4330  0.0295  0.2152
   66SAPC   O22 5436   3.563   3.026   6.526 -0.1612 -0.0008  0.3422
   66SAPC   C22 5437   3.486   2.908   6.713  0.6420  0.4500  0.6153
   66SAPC   H2R 5438   3.378   2.923   6.733  0.9070  1.7329  1.2289
   66SAPC   H2S 5439   3.514   2.802   6.732 -0.0289 -0.3776 -2.5212
   66SAPC    C3 5440   3.277   2.980   6.350  0.8353 -0.1886  0.0777
   66SAPC    HX 5441   3.201   2.911   6.392  1.9342 -1.8311 -0.5296
   66SAPC    HY 5442   3.251   2.996   6.243  1.1602 -0.8750 -0.1074
   66SAPC   O31 5443   3.276   3.101   6.429  0.2186  0.1520 -0.1467
   66SAPC   C31 5444   3.343   3.205   6.384 -0.2847  0.0219  0.1508
   66SAPC   O32 5445   3.430   3.199   6.296 -0.2509  0.0076  0.2350
   66SAPC   C32 5446   3.293   3.334   6.450 -0.2534 -0.7866  0.2129
   66SAPC   H2X 5447   3.207   3.306   6.515 -1.4105 -0.5552 -1.1559
   66SAPC   H2Y 5448   3.255   3.404   6.372 -1.0096 -1.6112 -0.1726
   66SAPC   C23 5449   3.553   3.007   6.808  0.1106 -0.5193  1.0055
   66SAPC   H3R 5450   3.555   3.109   6.764 -1.6660 -0.3299  1.2848
   66SAPC   H3S 5451   3.657   2.968   6.808  1.8142  3.3112 -2.0542
   66SAPC   C24 5452   3.472   3.014   6.942  0.2755 -0.5561  0.0380
   66SAPC   H4R 5453   3.466   2.916   6.993  2.2329 -1.1404 -0.7536
   66SAPC   H4S 5454   3.369   3.042   6.910  0.2963 -1.0806 -0.5159
   66SAPC   C25 5455   3.525   3.125   7.022  0.6755 -1.1817 -0.4936
   66SAPC   H5R 5456   3.477   3.219   6.990  1.1347 -0.2048  1.5665
   66SAPC   C26 5457   3.596   3.123   7.137 -0.1756 -0.4985 -0.1078
   66SAPC   H6R 5458   3.623   3.219   7.182 -2.4719  0.9594 -1.6222
   66SAPC   C27 5459   3.646   2.997   7.197 -0.4229 -0.0232 -0.1620
   66SAPC   H7R 5460   3.664   2.907   7.134 -0.7039 -0.1902 -0.0044
   66SAPC   H7S 5461   3.560   2.957   7.255  0.4528 -4.0511 -1.3251
   66SAPC   C28 5462   3.767   3.038   7.282 -0.2902 -0.6869 -0.3293
   66SAPC   H8R 5463   3.855   3.050   7.216 -1.5336  0.0053 -1.9278
   66SAPC   C29 5464   3.768   3.059   7.417  0.3050  0.4130  0.1871
   66SAPC   H9R 5465   3.861   3.071   7.474  1.4384 -1.8996 -1.0576
   66SAPC  C210 5466   3.644   3.053   7.509  0.3556 -0.4780 -0.3705
   66SAPC  H10R 5467   3.653   2.962   7.572 -0.1253  0.3146  0.8686
   66SAPC  H10S 5468   3.551   3.040   7.450  0.9084 -0.8835 -1.1851
   66SAPC  C211 5469   3.648   3.185   7.580 -0.0800  0.2482 -0.1123
   66SAPC  H11R 5470   3.625   3.269   7.513  1.0659  0.7564  0.1176
   66SAPC  C212 5471   3.682   3.198   7.712 -0.9836  0.2500  0.9177
   66SAPC  H12R 5472   3.691   3.297   7.759  1.1437  0.3711  0.3690
   66SAPC  C213 5473   3.721   3.085   7.807 -0.2357 -0.4066  0.2617
   66SAPC  H13R 5474   3.767   3.136   7.894 -1.6330 -1.1948  1.5254
   66SAPC  H13S 5475   3.794   3.020   7.755  0.9762 -0.3440  1.8139
   66SAPC  C214 5476   3.588   3.020   7.843 -0.4399 -0.1959  0.1583
   66SAPC  H14R 5477   3.495   3.029   7.786  0.1448 -3.7267 -1.5771
   66SAPC  C215 5478   3.579   2.948   7.957  0.1480 -1.3170  0.3188
   66SAPC  H15R 5479   3.481   2.910   7.988 -0.7151  1.1075  0.7085
   66SAPC  C216 5480   3.696   2.923   8.045  0.0959 -0.1038 -0.0855
   66SAPC  H16R 5481   3.775   3.001   8.035  0.6134 -0.4817  0.9642
   66SAPC  H16S 5482   3.738   2.821   8.036 -0.4578 -0.4609  1.2085
   66SAPC  C217 5483   3.651   2.926   8.185  0.1868  0.3139 -0.6347
   66SAPC  H17R 5484   3.575   2.849   8.212  1.3014 -0.2447  1.1137
   66SAPC  H17S 5485   3.584   3.012   8.205 -0.6291 -0.6928  1.2794
   66SAPC  C218 5486   3.766   2.916   8.291  0.5407  0.0484 -0.4688
   66SAPC  H18R 5487   3.838   2.999   8.271  0.1002 -0.2753 -4.3147
   66SAPC  H18S 5488   3.809   2.815   8.275  0.9519 -0.2372  2.1644
   66SAPC  C219 5489   3.710   2.926   8.436 -0.0770  0.3913 -0.3751
   66SAPC  H19R 5490   3.633   2.847   8.451 -0.5007  0.8316 -0.1954
   66SAPC  H19S 5491   3.645   3.016   8.431  0.9870  1.1665 -0.4874
   66SAPC  C220 5492   3.806   2.909   8.551 -0.4587 -0.3011 -0.5323
   66SAPC  H20R 5493   3.765   2.935   8.651  0.6333  1.6865 -0.5438
   66SAPC  H20S 5494   3.901   2.961   8.525  0.5849 -2.6773 -1.7060
   66SAPC  H20T 5495   3.845   2.805   8.554 -1.0199 -0.5220  2.3951
   66SAPC   C33 5496   3.408   3.408   6.523 -0.1556 -0.0129  0.0918
   66SAPC   H3X 5497   3.366   3.492   6.582 -1.1087  0.1518 -0.7854
   66SAPC   H3Y 5498   3.474   3.456   6.447  0.2096  0.9868  1.0037
   66SAPC   C34 5499   3.505   3.336   6.617 -0.5731  0.2993 -0.4600
   66SAPC   H4X 5500   3.569   3.263   6.563 -2.2241 -0.6846 -1.1898
   66SAPC   H4Y 5501   3.445   3.271   6.685  1.1876  0.4063  1.2765
   66SAPC   C35 5502   3.592   3.429   6.707 -0.0759  0.1565 -0.3087
   66SAPC   H5X 5503   3.620   3.513   6.641 -0.3761  1.3005  0.9830
   66SAPC   H5Y 5504   3.683   3.373   6.739 -0.8099  0.2859  2.1711
   66SAPC   C36 5505   3.525   3.471   6.842  0.4830  0.2603 -0.3613
   66SAPC   H6X 5506   3.516   3.373   6.893  1.4546  0.7660  0.8500
   66SAPC   H6Y 5507   3.427   3.523   6.836 -0.3075 -0.4830  3.5111
   66SAPC   C37 5508   3.621   3.547   6.937  0.1044  0.4421  0.1384
   66SAPC   H7X 5509   3.634   3.650   6.898  3.1018 -0.4998 -1.7888
   66SAPC   H7Y 5510   3.722   3.500   6.934 -0.5261 -0.9814  0.2840
   66SAPC   C38 5511   3.564   3.555   7.079 -0.1312 -0.1564 -0.2894
   66SAPC   H8X 5512   3.523   3.454   7.103  0.5085 -0.6519 -1.2196
   66SAPC   H8Y 5513   3.481   3.629   7.080  1.0946  1.3214  2.1569
   66SAPC   C39 5514   3.666   3.602   7.184 -0.0548 -0.1993 -0.0779
   66SAPC   H9X 5515   3.712   3.701   7.165 -1.2827  0.6198  0.9796
   66SAPC   H9Y 5516   3.755   3.537   7.182  1.3744  1.5011  2.4168
   66SAPC  C310 5517   3.605   3.588   7.323 -0.2645 -0.4143  0.4294
   66SAPC  H10X 5518   3.606   3.481   7.356 -2.8752 -0.6313  0.0486
   66SAPC  H10Y 5519   3.498   3.618   7.322  0.2897  1.7360 -1.1705
   66SAPC  C311 5520   3.682   3.659   7.431  0.3194  0.0641 -0.1550
   66SAPC  H11X 5521   3.667   3.768   7.421 -1.2053  0.3114  3.4272
   66SAPC  H11Y 5522   3.791   3.644   7.416  0.1837 -1.1955 -0.0288
   66SAPC  C312 5523   3.646   3.628   7.579  0.0357  0.5657 -0.0509
   66SAPC  H12X 5524   3.699   3.534   7.602  0.6394  0.6764 -0.9265
   66SAPC  H12Y 5525   3.535   3.619   7.588  0.2397 -1.0280  1.1192
   66SAPC  C313 5526   3.699   3.736   7.677  0.5898 -0.4260 -0.0197
   66SAPC  H13X 5527   3.658   3.837   7.655  1.5172  0.1890  0.9682
   66SAPC  H13Y 5528   3.809   3.754   7.677  0.3840  1.3019  2.0970
   66SAPC  C314 5529   3.660   3.702   7.826  0.7549  0.2579  0.1027
   66SAPC  H14X 5530   3.704   3.602   7.841 -0.9345 -0.4000  0.9426
   66SAPC  H14Y 5531   3.551   3.687   7.840  0.9631  0.3007  1.9677
   66SAPC  C315 5532   3.704   3.807   7.930  0.3089  0.0389  0.1206
   66SAPC  H15X 5533   3.654   3.904   7.913 -0.7512 -0.1816  1.8028
   66SAPC  H15Y 5534   3.815   3.807   7.919  0.2962 -1.0409 -0.1960
   66SAPC  C316 5535   3.662   3.762   8.071  0.2937  0.0905  0.0978
   66SAPC  H16X 5536   3.705   3.665   8.101  3.7131  1.7995  1.3056
   66SAPC  H16Y 5537   3.552   3.748   8.074  0.4210 -0.8518  0.7960
   66SAPC  C317 5538   3.702   3.860   8.183  0.6112  0.2891  0.2710
   66SAPC  H17X 5539   3.665   3.963   8.168 -0.5260 -0.0373  0.7043
   66SAPC  H17Y 5540   3.813   3.858   8.184  0.6309  0.9625 -0.3757
   66SAPC  C318 5541   3.651   3.807   8.312 -0.1635  0.2967  0.2891
   66SAPC  H18X 5542   3.639   3.892   8.382 -1.5361  1.4182 -1.2428
   66SAPC  H18Y 5543   3.723   3.741   8.365 -0.9111  0.0776  1.0478
   66SAPC  H18Z 5544   3.554   3.756   8.291 -0.2529  0.9527 -0.9783
   67SAPC     N 5545   6.546   4.654   5.987  0.8029  0.7966  0.5593
   67SAPC   C12 5546   6.648   4.653   6.101  0.1691 -0.3535 -0.5359
   67SAPC  H12A 5547   6.726   4.715   6.060 -0.0485 -0.0392 -0.4774
   67SAPC  H12B 5548   6.683   4.551   6.106  0.2009 -0.2844  2.2662
   67SAPC   C13 5549   6.507   4.798   5.972  0.2177  0.1052 -0.4573
   67SAPC  H13A 5550   6.429   4.812   5.899  0.1772 -0.1850 -0.4723
   67SAPC  H13B 5551   6.482   4.844   6.066 -1.0888 -2.7710  0.7489
   67SAPC  H13C 5552   6.586   4.856   5.926 -1.9059  1.4815 -2.6109
   67SAPC   C14 5553   6.602   4.599   5.855 -0.5310  0.2957 -0.0908
   67SAPC  H14A 5554   6.520   4.578   5.789 -1.0640  2.1858 -0.0791
   67SAPC  H14B 5555   6.664   4.673   5.807  1.3879 -0.9633  0.3205
   67SAPC  H14C 5556   6.648   4.506   5.888  0.3502  0.5662 -0.5190
   67SAPC   C15 5557   6.436   4.565   6.035 -0.1629  0.3790 -0.1900
   67SAPC  H15A 5558   6.399   4.592   6.133 -1.1888  0.5553 -0.6069
   67SAPC  H15B 5559   6.343   4.582   5.982  0.7747  1.6288 -1.5222
   67SAPC  H15C 5560   6.458   4.460   6.044  0.1281  0.6043  2.5603
   67SAPC   C11 5561   6.602   4.706   6.243  0.5077 -0.6788  0.6004
   67SAPC  H11A 5562   6.678   4.682   6.321 -0.1769 -0.2492  1.4226
   67SAPC  H11B 5563   6.507   4.659   6.279  1.6105 -1.0318  3.2952
   67SAPC     P 5564   6.709   4.939   6.253 -0.3316  0.0272 -0.0427
   67SAPC   O13 5565   6.815   4.886   6.163  0.2004  0.1272  0.1168
   67SAPC   O14 5566   6.678   5.083   6.236  0.7184 -0.3803 -0.1095
   67SAPC   O12 5567   6.580   4.847   6.238  0.4396 -0.0716 -0.1494
   67SAPC   O11 5568   6.748   4.918   6.405  0.8648 -0.3050 -0.0712
   67SAPC    C1 5569   6.650   4.900   6.506 -0.3743  0.1053  0.2772
   67SAPC    HA 5570   6.580   4.815   6.488  1.9921 -1.9916  0.4356
   67SAPC    HB 5571   6.706   4.875   6.598 -0.4892  0.9010  0.5697
   67SAPC    C2 5572   6.578   5.036   6.541  0.3738  0.3956  0.5781
   67SAPC    HS 5573   6.531   5.056   6.442  1.2804  1.1545  0.2932
   67SAPC   O21 5574   6.680   5.130   6.574 -0.3041  0.1606  0.1380
   67SAPC   C21 5575   6.635   5.255   6.573  0.3611  0.0871 -0.2850
   67SAPC   O22 5576   6.523   5.290   6.549  0.6420 -0.0790  0.6589
   67SAPC   C22 5577   6.743   5.349   6.622 -0.1772  0.2691  0.2085
   67SAPC   H2R 5578   6.838   5.292   6.631 -1.0993 -2.2886 -3.6756
   67SAPC   H2S 5579   6.754   5.414   6.532  0.4923 -1.9532 -1.3786
   67SAPC    C3 5580   6.465   5.013   6.652  0.1851 -0.8713  0.6130
   67SAPC    HX 5581   6.398   4.925   6.638 -0.7719 -0.0930  0.2068
   67SAPC    HY 5582   6.396   5.099   6.640  0.6450 -0.6735 -0.8486
   67SAPC   O31 5583   6.516   5.019   6.784 -0.2991  0.0802  0.0346
   67SAPC   C31 5584   6.539   4.905   6.843  1.1807 -0.2159  0.2635
   67SAPC   O32 5585   6.517   4.794   6.797 -0.0301  0.1365  0.3777
   67SAPC   C32 5586   6.593   4.941   6.977  0.2165  0.1461  0.7412
   67SAPC   H2X 5587   6.518   5.008   7.024 -2.0336 -1.4147 -0.4124
   67SAPC   H2Y 5588   6.680   5.002   6.946  0.1974 -0.5439 -0.7566
   67SAPC   C23 5589   6.723   5.445   6.738  0.1887  0.3114 -0.3580
   67SAPC   H3R 5590   6.628   5.499   6.722  0.5300  0.5234 -1.8330
   67SAPC   H3S 5591   6.804   5.520   6.732 -2.1043  3.3854  2.8948
   67SAPC   C24 5592   6.734   5.368   6.875  0.1654  0.4479  0.0269
   67SAPC   H4R 5593   6.818   5.295   6.883  0.4383  0.6163 -1.1700
   67SAPC   H4S 5594   6.636   5.317   6.888 -1.3823  3.0575 -0.5706
   67SAPC   C25 5595   6.746   5.469   6.983  0.1636 -0.0059  0.2380
   67SAPC   H5R 5596   6.848   5.510   6.994  0.7210 -1.4441  0.7511
   67SAPC   C26 5597   6.645   5.510   7.061  0.4588  0.0125 -0.1346
   67SAPC   H6R 5598   6.675   5.571   7.147 -0.3818 -0.8765  0.7991
   67SAPC   C27 5599   6.499   5.468   7.060 -0.0850 -0.5003  0.3158
   67SAPC   H7R 5600   6.451   5.511   7.150 -0.5021 -1.5902  0.6289
   67SAPC   H7S 5601   6.483   5.359   7.076  0.6054 -0.2710  2.9358
   67SAPC   C28 5602   6.423   5.503   6.929 -0.2289 -0.6399 -0.9221
   67SAPC   H8R 5603   6.444   5.603   6.888 -3.0311  0.4217 -0.0402
   67SAPC   C29 5604   6.325   5.426   6.867 -0.1604  0.2175  0.2934
   67SAPC   H9R 5605   6.272   5.470   6.781  2.5586  1.8542 -0.6776
   67SAPC  C210 5606   6.282   5.288   6.913  0.0637  0.4831 -1.1786
   67SAPC  H10R 5607   6.357   5.247   6.984 -2.0687  0.8851  1.4469
   67SAPC  H10S 5608   6.263   5.223   6.825  0.0460  2.8286 -3.0071
   67SAPC  C211 5609   6.149   5.312   6.981 -0.7216 -0.6231 -0.2332
   67SAPC  H11R 5610   6.087   5.392   6.938  0.1173  0.5340  0.6123
   67SAPC  C212 5611   6.111   5.271   7.107 -0.2381 -1.2924 -0.2460
   67SAPC  H12R 5612   6.011   5.303   7.140  1.1304  2.3161  0.8653
   67SAPC  C213 5613   6.184   5.180   7.202 -0.5793 -0.4950  0.1888
   67SAPC  H13R 5614   6.290   5.168   7.170 -1.1984 -1.0319 -1.7839
   67SAPC  H13S 5615   6.152   5.079   7.172  1.3314 -0.5182 -2.0986
   67SAPC  C214 5616   6.161   5.207   7.344 -0.6370  0.4333 -0.0612
   67SAPC  H14R 5617   6.056   5.198   7.375 -1.5052  2.4109 -2.1204
   67SAPC  C215 5618   6.261   5.234   7.424 -0.2674  0.2186 -0.3582
   67SAPC  H15R 5619   6.236   5.239   7.531  0.1522  1.0761 -0.2871
   67SAPC  C216 5620   6.410   5.254   7.399  0.4404 -0.6572 -0.2331
   67SAPC  H16R 5621   6.432   5.271   7.292  0.0163 -0.3278 -0.2709
   67SAPC  H16S 5622   6.477   5.173   7.437  0.1347 -1.1537 -0.7512
   67SAPC  C217 5623   6.456   5.379   7.478 -0.6723  0.1590 -0.0401
   67SAPC  H17R 5624   6.393   5.465   7.447  1.7869  1.3083 -2.1470
   67SAPC  H17S 5625   6.557   5.407   7.441 -1.1465 -0.4164 -1.8596
   67SAPC  C218 5626   6.454   5.376   7.631  0.7048  0.2234 -0.4437
   67SAPC  H18R 5627   6.509   5.290   7.675  0.3169  0.0385 -0.3247
   67SAPC  H18S 5628   6.348   5.361   7.659  0.9358  0.2008  0.4556
   67SAPC  C219 5629   6.498   5.512   7.688  0.5950 -0.0558  0.2341
   67SAPC  H19R 5630   6.443   5.596   7.640 -1.2028 -0.7035  1.0788
   67SAPC  H19S 5631   6.597   5.526   7.640  1.0968 -2.7286  0.3606
   67SAPC  C220 5632   6.496   5.535   7.838  0.3260 -0.0012 -0.4160
   67SAPC  H20R 5633   6.552   5.459   7.897 -1.2546 -0.5367  0.4451
   67SAPC  H20S 5634   6.392   5.529   7.876  0.6125  0.8889  0.5501
   67SAPC  H20T 5635   6.541   5.633   7.865 -2.1951  1.0162  0.3549
   67SAPC   C33 5636   6.636   4.826   7.066 -0.1750 -0.3372 -0.7461
   67SAPC   H3X 5637   6.687   4.862   7.158  1.2456 -0.0351 -1.6187
   67SAPC   H3Y 5638   6.714   4.772   7.009  0.0099 -0.7216 -0.1384
   67SAPC   C34 5639   6.529   4.724   7.110 -0.4923 -0.4510 -0.2545
   67SAPC   H4X 5640   6.577   4.639   7.162 -1.4157 -1.6142 -1.2417
   67SAPC   H4Y 5641   6.485   4.673   7.022 -1.4144 -0.6599  0.3135
   67SAPC   C35 5642   6.407   4.783   7.186 -0.0062  0.3797  0.3521
   67SAPC   H5X 5643   6.327   4.706   7.193  1.7105 -1.5616 -0.3378
   67SAPC   H5Y 5644   6.372   4.859   7.113 -1.9595 -0.6136  0.1693
   67SAPC   C36 5645   6.438   4.846   7.324  0.1935 -0.6121  0.4461
   67SAPC   H6X 5646   6.344   4.889   7.366 -0.6929 -0.5727 -1.4693
   67SAPC   H6Y 5647   6.515   4.925   7.316  0.4789 -0.9665 -0.4113
   67SAPC   C37 5648   6.484   4.748   7.427  0.0741 -0.4672  0.4493
   67SAPC   H7X 5649   6.584   4.713   7.395  1.2651  2.9581  0.0054
   67SAPC   H7Y 5650   6.416   4.660   7.430 -2.3204  1.2095 -0.9178
   67SAPC   C38 5651   6.499   4.827   7.557 -0.6987  0.4916  0.0396
   67SAPC   H8X 5652   6.401   4.856   7.600  0.6001  0.2038  3.5869
   67SAPC   H8Y 5653   6.551   4.924   7.549  1.6700 -0.8399 -2.6347
   67SAPC   C39 5654   6.578   4.740   7.661  0.3625 -0.1378  0.3156
   67SAPC   H9X 5655   6.684   4.744   7.629  0.4752 -0.9205  0.5794
   67SAPC   H9Y 5656   6.535   4.638   7.658  1.4960 -0.6297  0.4484
   67SAPC  C310 5657   6.577   4.800   7.800  0.3452  0.2176  0.2598
   67SAPC  H10X 5658   6.470   4.829   7.811 -0.0818 -0.7191 -1.1782
   67SAPC  H10Y 5659   6.645   4.887   7.804 -0.7377  1.0441  1.8273
   67SAPC  C311 5660   6.611   4.701   7.905 -0.1282  0.1379  0.0503
   67SAPC  H11X 5661   6.716   4.721   7.934  0.7325  0.6539 -3.0311
   67SAPC  H11Y 5662   6.614   4.602   7.853  0.4273 -0.0175  0.3703
   67SAPC  C312 5663   6.514   4.695   8.020  0.4941  0.2444 -0.1790
   67SAPC  H12X 5664   6.517   4.601   8.079 -0.3454  1.6562  2.2841
   67SAPC  H12Y 5665   6.408   4.703   7.988  0.5181  2.3854  0.0936
   67SAPC  C313 5666   6.532   4.815   8.112 -0.2163 -0.0576 -0.1695
   67SAPC  H13X 5667   6.433   4.851   8.148 -0.0327  1.4839 -1.1028
   67SAPC  H13Y 5668   6.570   4.902   8.054 -3.6028  2.0833  0.5200
   67SAPC  C314 5669   6.625   4.784   8.228 -0.1088 -0.1396  0.0008
   67SAPC  H14X 5670   6.727   4.761   8.191 -0.7745 -2.9924 -0.3405
   67SAPC  H14Y 5671   6.588   4.693   8.280 -0.3371 -0.3114 -0.4489
   67SAPC  C315 5672   6.658   4.900   8.328  0.1106  0.0273 -0.5808
   67SAPC  H15X 5673   6.582   4.979   8.310  0.1054 -0.4484 -2.9212
   67SAPC  H15Y 5674   6.762   4.936   8.319  1.4124 -2.8061  1.5317
   67SAPC  C316 5675   6.647   4.851   8.469 -1.0476 -0.9011 -0.3808
   67SAPC  H16X 5676   6.699   4.753   8.475  0.5702 -0.2496 -2.4943
   67SAPC  H16Y 5677   6.542   4.829   8.497 -0.8309  0.1967  1.4618
   67SAPC  C317 5678   6.696   4.957   8.577  1.0273  0.3830 -0.7875
   67SAPC  H17X 5679   6.623   5.040   8.563  1.4813  0.5958 -2.0368
   67SAPC  H17Y 5680   6.796   5.002   8.559  0.2820  1.7244 -1.7942
   67SAPC  C318 5681   6.683   4.907   8.721 -0.0300  0.1874 -0.9176
   67SAPC  H18X 5682   6.734   4.814   8.754 -2.5377 -0.1213  2.6294
   67SAPC  H18Y 5683   6.574   4.897   8.739  0.1549  1.7887  1.4755
   67SAPC  H18Z 5684   6.707   4.982   8.798 -0.1421  0.8483 -1.5189
   68SAPC     N 5685   5.233   3.290   6.090 -0.1899 -0.4264  0.2692
   68SAPC   C12 5686   5.148   3.376   6.184 -0.3542 -0.2549 -0.3952
   68SAPC  H12A 5687   5.124   3.467   6.131  1.9814  1.6270  1.5497
   68SAPC  H12B 5688   5.209   3.419   6.262  3.0861  0.8387 -3.4216
   68SAPC   C13 5689   5.153   3.226   5.980 -0.0315  0.4502  0.3623
   68SAPC  H13A 5690   5.216   3.166   5.914  0.4040  0.6789  0.5675
   68SAPC  H13B 5691   5.073   3.163   6.015 -1.4932  0.9950 -1.7684
   68SAPC  H13C 5692   5.106   3.304   5.922  1.7246  2.1140  1.0792
   68SAPC   C14 5693   5.342   3.380   6.019 -0.0601  0.3399  0.2388
   68SAPC  H14A 5694   5.288   3.442   5.948 -1.9993 -2.1879 -0.6263
   68SAPC  H14B 5695   5.391   3.449   6.087  2.0662 -0.2062 -0.6593
   68SAPC  H14C 5696   5.419   3.323   5.971  0.4464 -0.6086  2.0737
   68SAPC   C15 5697   5.295   3.178   6.168  0.6113  0.0821 -0.3753
   68SAPC  H15A 5698   5.375   3.213   6.232 -0.2869  1.7574 -0.1092
   68SAPC  H15B 5699   5.226   3.111   6.218  0.6059  0.7555  0.5486
   68SAPC  H15C 5700   5.355   3.119   6.100  1.4569  0.0480  0.3752
   68SAPC   C11 5701   5.021   3.314   6.251  0.1833  0.2765  0.2526
   68SAPC  H11A 5702   5.014   3.372   6.346 -1.0055 -1.9744  1.6166
   68SAPC  H11B 5703   5.036   3.206   6.268  0.0003 -0.0825 -1.6271
   68SAPC     P 5704   4.845   3.455   6.133 -0.4163 -0.1849 -0.3349
   68SAPC   O13 5705   4.937   3.539   6.057  0.5805 -0.3371 -0.0740
   68SAPC   O14 5706   4.719   3.421   6.066 -0.5971  0.0068  0.0371
   68SAPC   O12 5707   4.910   3.319   6.164 -0.2579  0.0584 -0.3747
   68SAPC   O11 5708   4.812   3.513   6.280 -0.0915 -0.3187 -0.0509
   68SAPC    C1 5709   4.735   3.630   6.293 -0.4134 -0.3572 -0.3602
   68SAPC    HA 5710   4.805   3.716   6.289  0.5521 -1.1564 -1.8294
   68SAPC    HB 5711   4.670   3.649   6.204 -0.6363 -0.0796 -0.1385
   68SAPC    C2 5712   4.659   3.633   6.424  0.7071  0.8657  0.7595
   68SAPC    HS 5713   4.555   3.671   6.412 -0.4265 -1.7030  1.7146
   68SAPC   O21 5714   4.743   3.704   6.517  0.0595 -0.4307 -0.2211
   68SAPC   C21 5715   4.680   3.765   6.611 -0.4339 -0.7053 -0.0768
   68SAPC   O22 5716   4.557   3.774   6.624  0.6192 -0.0393  0.4195
   68SAPC   C22 5717   4.783   3.822   6.720 -0.0087 -0.4662 -0.5830
   68SAPC   H2R 5718   4.778   3.760   6.813  3.6501  1.3923  1.0631
   68SAPC   H2S 5719   4.884   3.801   6.681  0.4079 -0.1672  0.3135
   68SAPC    C3 5720   4.636   3.485   6.474 -0.1035 -0.1558 -0.2944
   68SAPC    HX 5721   4.739   3.457   6.505  0.7651  0.5680 -2.3567
   68SAPC    HY 5722   4.609   3.416   6.390 -2.1505  1.0687 -0.7088
   68SAPC   O31 5723   4.542   3.480   6.587 -0.0393  0.0300  0.3885
   68SAPC   C31 5724   4.430   3.411   6.575  1.1151  0.1035  0.2476
   68SAPC   O32 5725   4.391   3.347   6.480  0.3808 -0.0416  0.2265
   68SAPC   C32 5726   4.345   3.448   6.697  0.0354  0.0338  0.4679
   68SAPC   H2X 5727   4.235   3.438   6.685  0.3052 -1.1695 -1.5009
   68SAPC   H2Y 5728   4.346   3.559   6.709 -1.7152 -0.0625  2.0087
   68SAPC   C23 5729   4.765   3.972   6.771 -0.0985  0.6563  0.3800
   68SAPC   H3R 5730   4.656   3.983   6.788 -0.0817 -0.9082  1.7809
   68SAPC   H3S 5731   4.784   4.042   6.687  2.4964 -2.1599 -1.6032
   68SAPC   C24 5732   4.832   4.006   6.902  0.1307  0.1615 -0.8141
   68SAPC   H4R 5733   4.800   3.931   6.977  0.7894 -2.3877 -2.9223
   68SAPC   H4S 5734   4.784   4.103   6.925 -1.3471 -0.9919  1.2033
   68SAPC   C25 5735   4.977   4.012   6.880  0.4769  0.3298 -0.0457
   68SAPC   H5R 5736   5.005   4.081   6.798 -0.8766  0.4682 -0.4066
   68SAPC   C26 5737   5.069   3.933   6.938  0.5070 -0.5516 -0.3403
   68SAPC   H6R 5738   5.175   3.941   6.911  0.4964 -0.8059 -0.4679
   68SAPC   C27 5739   5.040   3.851   7.063 -0.1210  0.4279 -0.5386
   68SAPC   H7R 5740   5.019   3.744   7.040  1.6143  0.1016 -0.7257
   68SAPC   H7S 5741   4.950   3.889   7.117 -0.7971 -3.2792  1.3059
   68SAPC   C28 5742   5.145   3.850   7.175 -1.3083  0.2742  0.3670
   68SAPC   H8R 5743   5.241   3.889   7.140 -0.0839 -3.0551 -0.3553
   68SAPC   C29 5744   5.142   3.785   7.293 -0.2828 -0.1400  0.5677
   68SAPC   H9R 5745   5.225   3.793   7.364  0.9851 -2.9125 -0.4845
   68SAPC  C210 5746   5.021   3.714   7.346 -0.5287  0.3331 -0.1680
   68SAPC  H10R 5747   5.035   3.604   7.352 -0.2836  0.3103 -1.0288
   68SAPC  H10S 5748   4.932   3.728   7.281 -1.1419 -0.7494  0.4119
   68SAPC  C211 5749   4.976   3.773   7.481 -0.3123 -0.3121  0.6100
   68SAPC  H11R 5750   4.951   3.880   7.472  1.7339  0.3555  2.1650
   68SAPC  C212 5751   4.976   3.711   7.601 -0.2434  0.2419  0.2764
   68SAPC  H12R 5752   4.926   3.766   7.682  0.6394  0.2762  0.8130
   68SAPC  C213 5753   5.013   3.573   7.641  0.0865  0.0294  0.9940
   68SAPC  H13R 5754   5.113   3.573   7.691  0.3841  1.4619  0.4275
   68SAPC  H13S 5755   5.041   3.512   7.553 -0.4343 -0.0327  0.8721
   68SAPC  C214 5756   4.913   3.494   7.724  0.2635  0.0462 -0.4690
   68SAPC  H14R 5757   4.840   3.440   7.662 -0.3827  0.6546 -0.2578
   68SAPC  C215 5758   4.909   3.491   7.860  0.3493 -0.3681 -0.0940
   68SAPC  H15R 5759   4.840   3.422   7.910 -2.6439  1.4888 -1.3967
   68SAPC  C216 5760   5.015   3.561   7.943 -0.8452 -0.1398 -0.6502
   68SAPC  H16R 5761   4.953   3.633   8.000 -1.0954 -1.2843  0.5726
   68SAPC  H16S 5762   5.079   3.625   7.878 -0.2464 -0.8505 -0.7716
   68SAPC  C217 5763   5.103   3.471   8.040  0.7591  0.6514  0.5140
   68SAPC  H17R 5764   5.162   3.534   8.111  0.6095 -0.7570  1.9554
   68SAPC  H17S 5765   5.165   3.411   7.971  1.2284 -0.7085  2.0661
   68SAPC  C218 5766   5.027   3.377   8.128 -0.0085 -0.1306 -0.0881
   68SAPC  H18R 5767   5.045   3.272   8.096 -0.3988 -0.4211  0.6180
   68SAPC  H18S 5768   4.924   3.400   8.095 -0.2930 -2.7951 -1.3576
   68SAPC  C219 5769   5.022   3.411   8.279 -0.1157 -0.0774 -0.5827
   68SAPC  H19R 5770   5.018   3.519   8.307  1.1846 -0.6690  2.2132
   68SAPC  H19S 5771   5.110   3.363   8.326 -1.3821  0.1301  2.2347
   68SAPC  C220 5772   4.902   3.351   8.350  0.5953 -0.4052  0.0743
   68SAPC  H20R 5773   4.800   3.381   8.317  0.0654  0.4774  2.3080
   68SAPC  H20S 5774   4.904   3.360   8.461 -2.9450 -0.3315  0.2710
   68SAPC  H20T 5775   4.910   3.243   8.327 -0.4979 -0.3636 -0.6236
   68SAPC   C33 5776   4.404   3.392   6.832 -0.2204 -0.9307  0.2497
   68SAPC   H3X 5777   4.357   3.459   6.906 -0.4101  0.2783 -0.9273
   68SAPC   H3Y 5778   4.513   3.416   6.831 -0.4697  0.2753  0.3920
   68SAPC   C34 5779   4.387   3.237   6.854  0.1627 -0.3889  0.1170
   68SAPC   H4X 5780   4.433   3.185   6.767  0.5614 -0.1775  0.1980
   68SAPC   H4Y 5781   4.277   3.228   6.854 -0.1896  1.9573  3.4670
   68SAPC   C35 5782   4.444   3.182   6.985  0.0530 -0.1016 -0.1606
   68SAPC   H5X 5783   4.400   3.084   7.015  1.8813 -1.4732 -1.7037
   68SAPC   H5Y 5784   4.430   3.257   7.065 -0.5752 -0.4147  0.0321
   68SAPC   C36 5785   4.597   3.161   6.985 -0.2267  0.2905 -0.0963
   68SAPC   H6X 5786   4.647   3.260   6.993 -1.7520  0.9371  2.7119
   68SAPC   H6Y 5787   4.629   3.113   6.890 -4.1527  0.4182 -1.6794
   68SAPC   C37 5788   4.647   3.084   7.104 -0.1155 -0.4080  0.1742
   68SAPC   H7X 5789   4.757   3.076   7.089 -0.3383 -1.0480 -1.3292
   68SAPC   H7Y 5790   4.614   2.979   7.098 -0.8534 -0.1257 -1.0698
   68SAPC   C38 5791   4.608   3.129   7.241 -0.5164  0.2761  0.5018
   68SAPC   H8X 5792   4.497   3.130   7.252 -0.4847 -0.7822  1.0388
   68SAPC   H8Y 5793   4.640   3.233   7.262  0.2381  0.3659 -0.9753
   68SAPC   C39 5794   4.647   3.030   7.356 -0.2059 -0.4424 -0.6225
   68SAPC   H9X 5795   4.755   3.052   7.371 -0.4311 -0.0779  0.6434
   68SAPC   H9Y 5796   4.615   2.933   7.312 -0.7160 -0.7247  0.3289
   68SAPC  C310 5797   4.578   3.050   7.493 -0.6507  0.1142  0.2652
   68SAPC  H10X 5798   4.491   2.981   7.497 -0.7764  0.3520  2.6383
   68SAPC  H10Y 5799   4.542   3.153   7.515 -0.5103  0.3295 -0.4589
   68SAPC  C311 5800   4.676   3.008   7.602 -0.0111 -0.9596 -0.3412
   68SAPC  H11X 5801   4.759   3.081   7.589  1.2284 -2.7740 -4.2804
   68SAPC  H11Y 5802   4.709   2.902   7.594 -3.2872 -2.2167  1.0422
   68SAPC  C312 5803   4.623   3.010   7.746 -0.3238 -0.0999  0.4507
   68SAPC  H12X 5804   4.535   2.942   7.743 -0.6113  0.2761 -2.5704
   68SAPC  H12Y 5805   4.596   3.117   7.759  0.1324  0.3959 -2.1482
   68SAPC  C313 5806   4.730   2.963   7.848  0.2695  0.0897  0.0773
   68SAPC  H13X 5807   4.829   3.006   7.820  0.8031  0.6269  2.5457
   68SAPC  H13Y 5808   4.736   2.852   7.844  1.5065  0.1181  0.7187
   68SAPC  C314 5809   4.686   3.017   7.988 -0.3457  0.3088 -0.0153
   68SAPC  H14X 5810   4.582   2.982   8.002 -0.8409  1.5420 -0.4353
   68SAPC  H14Y 5811   4.680   3.128   7.984 -2.5705  0.2069 -1.1335
   68SAPC  C315 5812   4.777   2.978   8.105  0.0159 -0.2821  0.1368
   68SAPC  H15X 5813   4.884   3.009   8.100  0.1681 -0.7522  0.4566
   68SAPC  H15Y 5814   4.792   2.868   8.102  0.4406 -0.2318  0.3157
   68SAPC  C316 5815   4.719   3.024   8.241  0.2066  0.6623  0.3255
   68SAPC  H16X 5816   4.612   2.997   8.252  0.7892 -2.9618 -1.3028
   68SAPC  H16Y 5817   4.745   3.131   8.259 -0.2054  0.5050  2.0666
   68SAPC  C317 5818   4.786   2.936   8.347 -0.5329  0.9997  0.0431
   68SAPC  H17X 5819   4.893   2.959   8.367 -0.5308 -0.1904  1.5990
   68SAPC  H17Y 5820   4.777   2.830   8.317  0.4102  1.4038 -1.7913
   68SAPC  C318 5821   4.716   2.952   8.483  0.6163 -0.1576  0.2160
   68SAPC  H18X 5822   4.626   2.888   8.478  1.0664 -0.8149  0.4238
   68SAPC  H18Y 5823   4.672   3.052   8.499 -0.8994 -0.6965 -0.4055
   68SAPC  H18Z 5824   4.773   2.907   8.567 -0.2984 -0.1628  0.8490
   69SLPC     N 5825   3.418   2.352  11.430  0.0230  0.0491  0.0362
   69SLPC   C13 5826   3.471   2.216  11.401 -0.1230 -0.9566 -0.2274
   69SLPC  H13A 5827   3.565   2.229  11.350  0.1413 -0.7163  0.3113
   69SLPC  H13B 5828   3.491   2.149  11.483  1.3970  1.1322  1.2147
   69SLPC  H13C 5829   3.405   2.161  11.336 -1.7063  1.8088 -1.1191
   69SLPC   C14 5830   3.515   2.428  11.516 -0.0551  0.4579 -0.6726
   69SLPC  H14A 5831   3.472   2.525  11.536 -2.6020 -0.8371  0.6914
   69SLPC  H14B 5832   3.531   2.387  11.615 -0.8585  1.2348 -0.2040
   69SLPC  H14C 5833   3.612   2.444  11.472  0.4715  0.7241  0.5393
   69SLPC   C15 5834   3.288   2.335  11.517  0.0349  0.0595 -0.2425
   69SLPC  H15A 5835   3.209   2.283  11.465  0.0501 -2.6476  2.1858
   69SLPC  H15B 5836   3.307   2.289  11.613 -1.0674  0.8449  0.3690
   69SLPC  H15C 5837   3.254   2.434  11.542  1.7244  0.2545  1.5262
   69SLPC   C12 5838   3.385   2.416  11.295 -0.8649  0.3311 -0.8435
   69SLPC  H12A 5839   3.480   2.430  11.248  0.0176 -0.0611  0.7445
   69SLPC  H12B 5840   3.337   2.512  11.312  0.1854  1.0778 -1.9195
   69SLPC   C11 5841   3.304   2.336  11.191 -0.8579 -0.1698 -0.9391
   69SLPC  H11A 5842   3.344   2.232  11.184 -2.7642 -1.0923  0.7743
   69SLPC  H11B 5843   3.321   2.386  11.094 -0.0880  1.9469  0.2268
   69SLPC     P 5844   3.075   2.462  11.219  0.0285  0.1624  0.4971
   69SLPC   O13 5845   2.941   2.433  11.279  0.2073 -0.2575  0.0465
   69SLPC   O14 5846   3.147   2.577  11.278 -0.1576 -0.0608  0.4496
   69SLPC   O12 5847   3.169   2.335  11.234 -0.0607 -0.4799 -0.5470
   69SLPC   O11 5848   3.050   2.485  11.060  0.0631  0.1399  0.3372
   69SLPC    C1 5849   3.026   2.367  10.978  0.3197  0.0277  0.3082
   69SLPC    HA 5850   3.122   2.340  10.930  1.0110  1.8624  0.5780
   69SLPC    HB 5851   3.010   2.274  11.036 -0.2210 -0.5538 -0.7481
   69SLPC    C2 5852   2.901   2.386  10.881 -1.0187  0.0487  0.2980
   69SLPC    HS 5853   2.892   2.292  10.823  2.1779  0.1783 -0.6042
   69SLPC   O21 5854   2.923   2.492  10.783  0.1899 -0.1122  0.2852
   69SLPC   C21 5855   2.999   2.460  10.672 -0.4336  0.4433 -0.2560
   69SLPC   O22 5856   3.047   2.349  10.650  0.1128 -0.2693  0.0597
   69SLPC   C22 5857   2.997   2.576  10.573  1.1706 -0.0158  0.0335
   69SLPC   H2R 5858   2.891   2.597  10.547  1.8005  3.0617 -0.4481
   69SLPC   H2S 5859   3.033   2.671  10.617 -0.8825  0.5691  0.5173
   69SLPC    C3 5860   2.769   2.406  10.961 -0.0471 -0.3083  0.2103
   69SLPC    HX 5861   2.788   2.500  11.016 -0.1197  0.4385 -0.9919
   69SLPC    HY 5862   2.747   2.323  11.031 -1.0905 -0.1107  0.1257
   69SLPC   O31 5863   2.661   2.421  10.862  0.1207  0.3654  0.1387
   69SLPC   C31 5864   2.554   2.501  10.899 -0.7562 -0.8393 -0.3473
   69SLPC   O32 5865   2.555   2.565  10.999  0.0850  0.0404 -0.1085
   69SLPC   C32 5866   2.450   2.513  10.787  0.5507 -0.1578  0.6920
   69SLPC   H2X 5867   2.360   2.552  10.840 -0.1919  0.1938 -0.7895
   69SLPC   H2Y 5868   2.437   2.407  10.757  0.5459 -0.2950  1.1750
   69SLPC   C23 5869   3.068   2.542  10.437 -0.1289 -0.1837 -0.2517
   69SLPC   H3R 5870   3.013   2.464  10.380  0.5802 -0.4856 -0.5481
   69SLPC   H3S 5871   3.175   2.513  10.449 -0.2626 -0.8784 -0.6506
   69SLPC   C24 5872   3.073   2.672  10.349  0.1239 -0.4033  0.2237
   69SLPC   H4R 5873   3.101   2.759  10.412  1.0380 -0.6110  0.1134
   69SLPC   H4S 5874   2.967   2.693  10.325  0.4134  1.1240  0.1504
   69SLPC   C25 5875   3.169   2.676  10.225 -0.0961 -0.1766 -0.4739
   69SLPC   H5R 5876   3.142   2.591  10.159 -1.6620 -1.8826  2.1917
   69SLPC   H5S 5877   3.273   2.651  10.255 -0.3988 -0.9349 -0.0297
   69SLPC   C26 5878   3.156   2.810  10.150 -0.2884 -0.5665 -0.2767
   69SLPC   H6R 5879   3.150   2.887  10.230  0.2580  0.2011 -0.9617
   69SLPC   H6S 5880   3.059   2.808  10.098 -1.5406 -0.5202  1.9310
   69SLPC   C27 5881   3.270   2.836  10.052 -0.3402  0.1217 -0.2530
   69SLPC   H7R 5882   3.361   2.860  10.110 -0.1262 -2.4284  0.5956
   69SLPC   H7S 5883   3.242   2.919   9.984 -0.7073  1.9601  2.0242
   69SLPC   C28 5884   3.295   2.709   9.971 -0.4171 -0.2848 -0.0471
   69SLPC   H8R 5885   3.339   2.633  10.039 -0.2414  1.0124  1.3339
   69SLPC   H8S 5886   3.384   2.743   9.913 -0.6846 -0.2305 -0.4332
   69SLPC   C29 5887   3.175   2.665   9.894 -0.3258 -0.2522  0.3796
   69SLPC   H9R 5888   3.118   2.598   9.959 -1.7066 -0.4487 -0.9959
   69SLPC  C210 5889   3.142   2.684   9.766  0.3164 -0.0506 -0.2851
   69SLPC  H10R 5890   3.053   2.634   9.726  0.8554 -1.8185  0.6232
   69SLPC  C211 5891   3.223   2.764   9.666 -0.4705  0.5034 -0.6102
   69SLPC  H11R 5892   3.295   2.694   9.618 -0.2946 -0.4714  1.0040
   69SLPC  H11S 5893   3.289   2.834   9.721 -0.6190 -0.8037  1.3142
   69SLPC  C212 5894   3.143   2.827   9.553 -0.6437  0.2532 -0.9161
   69SLPC  H12R 5895   3.120   2.935   9.558 -0.3378  0.4430 -2.8289
   69SLPC  C213 5896   3.106   2.762   9.438 -0.1026  0.1824  0.5941
   69SLPC  H13R 5897   3.052   2.822   9.363 -1.6041 -1.2199  0.5114
   69SLPC  C214 5898   3.144   2.618   9.399 -0.6103  0.3421  0.1568
   69SLPC  H14R 5899   3.074   2.570   9.327 -0.7984  1.5709 -0.4958
   69SLPC  H14S 5900   3.163   2.550   9.485 -2.7282  1.4248  1.5565
   69SLPC  C215 5901   3.277   2.627   9.318 -0.3107 -0.6283  0.2941
   69SLPC  H15R 5902   3.324   2.526   9.311  1.2002 -0.0507  1.5004
   69SLPC  H15S 5903   3.350   2.692   9.371 -1.2103  0.1790  0.5822
   69SLPC  C216 5904   3.244   2.668   9.174 -0.2187  0.3885 -0.1319
   69SLPC  H16R 5905   3.207   2.771   9.162 -1.7946 -0.0626  0.6518
   69SLPC  H16S 5906   3.163   2.603   9.135  0.7987 -2.1076  1.5832
   69SLPC  C217 5907   3.383   2.669   9.098  0.5952 -0.1759 -0.0774
   69SLPC  H17R 5908   3.423   2.565   9.105  0.1948 -0.4732 -1.8133
   69SLPC  H17S 5909   3.455   2.723   9.163  0.9775 -0.0829 -0.5665
   69SLPC  C218 5910   3.374   2.716   8.949  0.5541  0.4446 -0.6469
   69SLPC  H18R 5911   3.468   2.701   8.892 -0.4312  1.2369 -2.5445
   69SLPC  H18S 5912   3.352   2.824   8.937 -1.0207  0.4931  1.9866
   69SLPC  H18T 5913   3.292   2.666   8.894  1.6410  0.2466 -2.1570
   69SLPC   C33 5914   2.488   2.614  10.686 -0.0161 -0.3367 -0.0621
   69SLPC   H3X 5915   2.543   2.702  10.726 -1.5221  0.5739  0.0690
   69SLPC   H3Y 5916   2.393   2.659  10.649  1.2001  1.5012 -1.1051
   69SLPC   C34 5917   2.562   2.566  10.564  0.7013  0.0360 -0.3642
   69SLPC   H4X 5918   2.528   2.462  10.541  0.1908  0.6635 -2.8260
   69SLPC   H4Y 5919   2.666   2.552  10.598  0.4362 -4.3104 -0.8001
   69SLPC   C35 5920   2.558   2.668  10.452  0.8023 -0.4481  0.2128
   69SLPC   H5X 5921   2.580   2.771  10.486  0.5963  0.2584 -1.6871
   69SLPC   H5Y 5922   2.453   2.660  10.419  0.9056 -1.9628  0.1704
   69SLPC   C36 5923   2.648   2.645  10.329  0.1405 -0.2342 -0.0862
   69SLPC   H6X 5924   2.618   2.549  10.283  0.3792 -0.6176  0.5490
   69SLPC   H6Y 5925   2.746   2.623  10.376  0.8163 -0.8886 -1.7482
   69SLPC   C37 5926   2.665   2.762  10.230 -0.1232  1.0113  0.6349
   69SLPC   H7X 5927   2.718   2.847  10.279 -1.2609  2.4989 -0.5864
   69SLPC   H7Y 5928   2.564   2.804  10.209  0.6392  1.6158 -2.2144
   69SLPC   C38 5929   2.736   2.716  10.106  0.3847 -0.3201  0.4640
   69SLPC   H8X 5930   2.671   2.638  10.060 -0.2286  0.8513 -0.6987
   69SLPC   H8Y 5931   2.837   2.679  10.134  0.6473  1.2887  1.7891
   69SLPC   C39 5932   2.748   2.817   9.993  0.6613  0.5743 -0.3660
   69SLPC   H9X 5933   2.821   2.900  10.006  0.5545  0.8692 -1.5278
   69SLPC   H9Y 5934   2.648   2.864   9.983  0.3089 -0.0242  0.2871
   69SLPC  C310 5935   2.778   2.738   9.861  0.5949  0.4561  0.5110
   69SLPC  H10X 5936   2.706   2.653   9.852  0.5416  0.6602 -1.2971
   69SLPC  H10Y 5937   2.881   2.696   9.865  0.2428 -0.5647 -0.5705
   69SLPC  C311 5938   2.759   2.822   9.731  0.5137 -0.3357  0.0166
   69SLPC  H11X 5939   2.825   2.911   9.743 -1.6527  1.1902  1.2921
   69SLPC  H11Y 5940   2.658   2.868   9.737  0.5813 -0.1402 -0.3158
   69SLPC  C312 5941   2.766   2.735   9.599 -0.3529  0.5853  0.0208
   69SLPC  H12X 5942   2.704   2.644   9.608  0.6440 -0.2127 -0.8522
   69SLPC  H12Y 5943   2.872   2.707   9.579 -1.0287 -0.7701 -1.8763
   69SLPC  C313 5944   2.719   2.815   9.481 -0.1324  0.8553  0.8279
   69SLPC  H13X 5945   2.778   2.910   9.480 -1.2237  1.5600  1.5958
   69SLPC  H13Y 5946   2.610   2.836   9.487 -0.1772  0.9226 -0.0919
   69SLPC  C314 5947   2.745   2.738   9.348  0.2200 -0.0712 -0.1837
   69SLPC  H14X 5948   2.722   2.630   9.361  1.0130 -0.1676  0.5542
   69SLPC  H14Y 5949   2.852   2.741   9.317 -0.7130  2.1602 -3.7261
   69SLPC  C315 5950   2.670   2.806   9.232  0.2562 -0.1151  0.5397
   69SLPC  H15X 5951   2.716   2.907   9.224 -0.5731  0.4313  2.1966
   69SLPC  H15Y 5952   2.560   2.814   9.238  0.2817  0.8740 -0.2140
   69SLPC  C316 5953   2.699   2.718   9.099 -0.0677 -0.5446  0.6631
   69SLPC  H16X 5954   2.683   2.613   9.131  1.0101 -1.0337 -0.3702
   69SLPC  H16Y 5955   2.806   2.726   9.070 -0.1279 -0.0093  0.5776
   69SLPC  C317 5956   2.619   2.764   8.983 -0.4027 -0.1303  0.3485
   69SLPC  H17X 5957   2.515   2.766   9.020 -0.0839  0.2478  1.2547
   69SLPC  H17Y 5958   2.627   2.687   8.904  0.3068  0.9039 -0.6310
   69SLPC  C318 5959   2.661   2.904   8.932  0.8680 -0.3460  0.4005
   69SLPC  H18X 5960   2.597   2.926   8.844 -0.4615 -1.0814  1.1458
   69SLPC  H18Y 5961   2.767   2.928   8.907  1.0493 -1.7886 -0.3270
   69SLPC  H18Z 5962   2.618   2.965   9.014 -0.6705 -3.2189  1.8705
   70SLPC     N 5963   2.789   6.510  10.930 -0.4181  0.6243  0.1025
   70SLPC   C13 5964   2.900   6.491  11.028 -0.6029 -0.3166  0.3926
   70SLPC  H13A 5965   2.858   6.455  11.120  2.3728 -0.2837  1.8845
   70SLPC  H13B 5966   2.968   6.412  11.002  2.2628  1.0064  3.1577
   70SLPC  H13C 5967   2.951   6.584  11.050 -0.1829 -0.4107 -0.1525
   70SLPC   C14 5968   2.721   6.376  10.927  0.0248 -1.0278  0.1328
   70SLPC  H14A 5969   2.783   6.287  10.929  0.6785 -0.6378 -1.7109
   70SLPC  H14B 5970   2.641   6.367  10.999 -0.5870 -0.2748 -0.4438
   70SLPC  H14C 5971   2.667   6.378  10.834  0.0439 -0.8365  0.1250
   70SLPC   C15 5972   2.847   6.537  10.796 -0.2669 -0.0114 -0.1647
   70SLPC  H15A 5973   2.920   6.617  10.799 -0.1265 -0.0690 -1.4280
   70SLPC  H15B 5974   2.912   6.456  10.766 -1.0445 -1.0191  0.7902
   70SLPC  H15C 5975   2.767   6.567  10.730 -2.5549  0.4968  2.6149
   70SLPC   C12 5976   2.697   6.625  10.974  0.0021 -0.4499 -0.3501
   70SLPC  H12A 5977   2.619   6.632  10.900 -0.0195 -1.4165 -0.4329
   70SLPC  H12B 5978   2.749   6.719  10.962  0.0345 -0.1719  1.6121
   70SLPC   C11 5979   2.618   6.613  11.106  0.3442  0.0612 -0.3655
   70SLPC  H11A 5980   2.576   6.715  11.121  1.3624  0.1716  2.2673
   70SLPC  H11B 5981   2.679   6.587  11.195 -0.5749 -0.2903  0.1711
   70SLPC     P 5982   2.379   6.555  11.024  0.3096 -0.5247 -0.2521
   70SLPC   O13 5983   2.294   6.440  10.989  0.4745 -0.1737 -0.5585
   70SLPC   O14 5984   2.302   6.649  11.113 -0.1280 -0.1365 -0.1760
   70SLPC   O12 5985   2.516   6.514  11.095 -0.7591  0.3768 -0.0657
   70SLPC   O11 5986   2.434   6.616  10.888  0.0413  0.2442 -0.1978
   70SLPC    C1 5987   2.374   6.744  10.844  0.8978  0.9895  0.1750
   70SLPC    HA 5988   2.356   6.812  10.930 -0.4207 -1.2939  1.8090
   70SLPC    HB 5989   2.448   6.800  10.783  0.8110 -0.4878 -1.3532
   70SLPC    C2 5990   2.248   6.715  10.763 -0.7391  0.0401  0.6739
   70SLPC    HS 5991   2.173   6.669  10.831 -1.8933 -0.7994 -1.0769
   70SLPC   O21 5992   2.283   6.607  10.671  0.1190 -0.7372  0.1634
   70SLPC   C21 5993   2.199   6.569  10.584  0.0901  0.2812 -0.0962
   70SLPC   O22 5994   2.084   6.592  10.564  0.6800 -1.2876 -0.0420
   70SLPC   C22 5995   2.273   6.456  10.511 -0.0801 -0.7971  0.0869
   70SLPC   H2R 5996   2.358   6.501  10.456 -1.9602  0.0785 -2.3087
   70SLPC   H2S 5997   2.309   6.393  10.595 -1.1597  0.1415  1.2915
   70SLPC    C3 5998   2.189   6.840  10.691 -0.2067 -0.3386 -0.0903
   70SLPC    HX 5999   2.191   6.921  10.767 -2.4848  1.5343 -1.8831
   70SLPC    HY 6000   2.085   6.820  10.657  0.4323 -0.2881 -2.2668
   70SLPC   O31 6001   2.276   6.877  10.580 -0.1985 -0.4573  0.3805
   70SLPC   C31 6002   2.308   7.004  10.559 -0.2726  0.3929  0.4072
   70SLPC   O32 6003   2.263   7.100  10.611  0.5759  0.5845 -0.3351
   70SLPC   C32 6004   2.432   7.005  10.460  0.0098 -0.0091  0.6434
   70SLPC   H2X 6005   2.411   6.939  10.373  0.6743  1.3872 -0.6372
   70SLPC   H2Y 6006   2.523   6.969  10.513 -0.4560 -1.2788  0.6114
   70SLPC   C23 6007   2.178   6.371  10.416  0.2838 -0.0536 -0.4861
   70SLPC   H3R 6008   2.122   6.451  10.363  0.3574  0.1531 -0.2524
   70SLPC   H3S 6009   2.106   6.314  10.478  1.2055  0.1271  0.7755
   70SLPC   C24 6010   2.263   6.284  10.318  0.2851 -0.0041 -0.6919
   70SLPC   H4R 6011   2.322   6.210  10.376 -0.5040  1.7592  2.6262
   70SLPC   H4S 6012   2.338   6.355  10.275 -0.3346  0.7688 -0.5141
   70SLPC   C25 6013   2.187   6.220  10.203  0.1391  0.2376 -0.6438
   70SLPC   H5R 6014   2.137   6.294  10.137 -0.8412  0.9838  0.8742
   70SLPC   H5S 6015   2.095   6.172  10.243  0.8505 -0.2398  0.4593
   70SLPC   C26 6016   2.269   6.135  10.111  0.4150 -0.4770 -0.1951
   70SLPC   H6R 6017   2.313   6.062  10.181  2.2620  0.0973 -0.7116
   70SLPC   H6S 6018   2.350   6.205  10.082  0.6090 -1.1677 -1.3894
   70SLPC   C27 6019   2.199   6.080   9.983 -0.1573 -0.0326 -0.2940
   70SLPC   H7R 6020   2.166   6.167   9.923  0.1808  2.0106  2.3041
   70SLPC   H7S 6021   2.113   6.020  10.021 -0.3887  0.7942  0.5388
   70SLPC   C28 6022   2.294   6.001   9.889  0.2306 -0.6470 -0.1659
   70SLPC   H8R 6023   2.331   5.910   9.940  1.6260 -0.4474 -0.7674
   70SLPC   H8S 6024   2.380   6.069   9.869 -0.5292  1.1927  2.3412
   70SLPC   C29 6025   2.224   5.952   9.761 -0.7196  0.2394 -0.1759
   70SLPC   H9R 6026   2.157   5.866   9.776 -0.6497  0.4104  1.1824
   70SLPC  C210 6027   2.246   5.996   9.634  0.1666  0.6981  0.1350
   70SLPC  H10R 6028   2.190   5.953   9.550  0.0375  1.3604 -0.1237
   70SLPC  C211 6029   2.350   6.086   9.588  0.0354 -0.0404 -0.5126
   70SLPC  H11R 6030   2.432   6.029   9.539 -0.2622 -0.7491 -0.1881
   70SLPC  H11S 6031   2.406   6.141   9.667  1.2814 -2.5579  0.4627
   70SLPC  C212 6032   2.297   6.193   9.500 -0.1602  1.5488 -1.1647
   70SLPC  H12R 6033   2.287   6.289   9.553  1.4716  2.3397 -2.2110
   70SLPC  C213 6034   2.256   6.193   9.377  0.5807  0.2069 -0.1970
   70SLPC  H13R 6035   2.240   6.290   9.327 -1.1844  0.2522  0.3975
   70SLPC  C214 6036   2.262   6.078   9.281 -0.1672 -0.2877  0.5188
   70SLPC  H14R 6037   2.166   6.023   9.275  0.4637 -1.4353  0.7614
   70SLPC  H14S 6038   2.331   5.994   9.302  1.0542  0.1140 -1.5925
   70SLPC  C215 6039   2.294   6.119   9.131  0.3760 -0.6745 -0.1671
   70SLPC  H15R 6040   2.243   6.215   9.108  2.4639  0.2487 -1.1459
   70SLPC  H15S 6041   2.241   6.052   9.060  1.0361  0.1464 -1.4760
   70SLPC  C216 6042   2.445   6.118   9.093  0.4466 -0.7608  0.0384
   70SLPC  H16R 6043   2.483   6.040   9.163 -3.6953 -1.4684  1.8141
   70SLPC  H16S 6044   2.493   6.214   9.122 -0.1140  0.1943 -2.0388
   70SLPC  C217 6045   2.467   6.082   8.948 -0.4909 -0.2245 -1.0123
   70SLPC  H17R 6046   2.422   6.164   8.887 -2.0177  0.6832  1.1989
   70SLPC  H17S 6047   2.424   5.981   8.933  0.5749 -0.7296 -0.7664
   70SLPC  C218 6048   2.618   6.074   8.915  0.8951  0.2386  0.5409
   70SLPC  H18R 6049   2.663   6.012   8.996  0.5648 -1.7396 -0.7281
   70SLPC  H18S 6050   2.654   6.179   8.914  1.3825  0.0893 -1.5766
   70SLPC  H18T 6051   2.637   6.027   8.816 -2.0825 -1.2671  0.5843
   70SLPC   C33 6052   2.459   7.141  10.384  0.1456  0.0369  0.1024
   70SLPC   H3X 6053   2.562   7.133  10.343 -0.3930 -0.7500 -1.1524
   70SLPC   H3Y 6054   2.466   7.227  10.453  3.0181 -0.1440  0.1562
   70SLPC   C34 6055   2.354   7.162  10.267 -0.3897 -0.4088 -0.1223
   70SLPC   H4X 6056   2.344   7.272  10.252 -1.1607 -0.4037  0.3580
   70SLPC   H4Y 6057   2.255   7.128  10.303 -0.0853  0.9921  2.2051
   70SLPC   C35 6058   2.387   7.091  10.128 -0.3480  0.9883 -0.5672
   70SLPC   H5X 6059   2.395   6.981  10.140  0.1629  1.0747 -0.0635
   70SLPC   H5Y 6060   2.482   7.129  10.085  0.3590  0.2926  0.3509
   70SLPC   C36 6061   2.283   7.123  10.015  0.5019 -0.3672  0.0838
   70SLPC   H6X 6062   2.267   7.231   9.994  0.0640 -0.5628 -0.6219
   70SLPC   H6Y 6063   2.185   7.091  10.058 -0.0310  1.7766  0.5683
   70SLPC   C37 6064   2.315   7.044   9.886 -0.0501  0.0307 -0.0437
   70SLPC   H7X 6065   2.322   6.934   9.899 -0.2927  0.1067  0.8444
   70SLPC   H7Y 6066   2.411   7.073   9.840  0.2420  1.2037  1.2236
   70SLPC   C38 6067   2.206   7.053   9.778  0.0523 -0.3073 -0.5887
   70SLPC   H8X 6068   2.190   7.161   9.757  0.3874 -0.1019  0.1541
   70SLPC   H8Y 6069   2.117   7.015   9.833  0.3999  1.0781  1.0274
   70SLPC   C39 6070   2.231   6.966   9.652 -0.2953 -0.1342  0.3842
   70SLPC   H9X 6071   2.204   6.863   9.684 -1.3301  0.2961  0.9522
   70SLPC   H9Y 6072   2.340   6.958   9.633 -0.0124 -0.1069  1.8751
   70SLPC  C310 6073   2.143   7.009   9.534 -0.0013  0.7136  0.1051
   70SLPC  H10X 6074   2.140   7.119   9.519  0.7366  0.4647 -2.3417
   70SLPC  H10Y 6075   2.039   6.971   9.549 -0.9445  0.1726 -5.5022
   70SLPC  C311 6076   2.197   6.952   9.400  0.2580  0.0518 -1.0573
   70SLPC  H11X 6077   2.217   6.844   9.418  1.9935  0.5009 -0.0464
   70SLPC  H11Y 6078   2.290   7.008   9.377  1.2075 -1.4323 -1.0071
   70SLPC  C312 6079   2.105   6.971   9.284  0.7819 -0.5163  0.1410
   70SLPC  H12X 6080   2.054   7.070   9.284 -0.2720 -1.0356  0.6687
   70SLPC  H12Y 6081   2.022   6.898   9.293 -0.9958  1.5035  1.0038
   70SLPC  C313 6082   2.175   6.966   9.154 -0.1657  0.6461 -0.0577
   70SLPC  H13X 6083   2.250   7.048   9.149 -0.3702  1.1054  2.7524
   70SLPC  H13Y 6084   2.102   6.989   9.073  1.2455  3.0288 -0.7851
   70SLPC  C314 6085   2.235   6.825   9.120 -0.1713  0.3664  0.9125
   70SLPC  H14X 6086   2.247   6.754   9.205  4.4746 -1.0103 -0.5775
   70SLPC  H14Y 6087   2.335   6.847   9.075 -0.7608 -0.5172 -0.9521
   70SLPC  C315 6088   2.161   6.754   9.000 -0.1442  0.1562 -0.4923
   70SLPC  H15X 6089   2.161   6.821   8.911  0.5013  2.9196  1.4440
   70SLPC  H15Y 6090   2.054   6.758   9.030 -0.3430 -2.6086 -0.6184
   70SLPC  C316 6091   2.219   6.615   8.960  0.2450 -0.0816  0.1801
   70SLPC  H16X 6092   2.185   6.535   9.029  1.7490 -1.3053 -0.4300
   70SLPC  H16Y 6093   2.327   6.601   8.938  0.0253 -1.5446 -0.1123
   70SLPC  C317 6094   2.150   6.555   8.829  0.4117 -0.0788 -0.6447
   70SLPC  H17X 6095   2.171   6.627   8.747 -2.4843 -2.2220 -3.5249
   70SLPC  H17Y 6096   2.042   6.538   8.850  0.7548 -2.2358 -0.3992
   70SLPC  C318 6097   2.198   6.414   8.792  0.0859 -0.3231  0.1257
   70SLPC  H18X 6098   2.119   6.369   8.729  2.6518 -2.3726 -1.8611
   70SLPC  H18Y 6099   2.198   6.357   8.888 -1.1835 -0.2268  0.1985
   70SLPC  H18Z 6100   2.296   6.412   8.741 -0.6038 -0.1237 -1.2277
   71SLPC     N 6101   0.554   5.371  10.826  0.1879 -0.4027  0.0687
   71SLPC   C13 6102   0.691   5.362  10.880 -0.1112 -0.1535  0.0488
   71SLPC  H13A 6103   0.748   5.287  10.828 -3.1868 -2.4325 -0.2577
   71SLPC  H13B 6104   0.747   5.455  10.875 -0.1420  0.0457  2.1631
   71SLPC  H13C 6105   0.693   5.322  10.980  0.3830 -0.6568 -0.1621
   71SLPC   C14 6106   0.474   5.437  10.933  0.2163  0.5376  0.2283
   71SLPC  H14A 6107   0.466   5.367  11.014 -1.6813 -0.1499 -0.5125
   71SLPC  H14B 6108   0.525   5.530  10.954 -0.1915  0.5490  1.1994
   71SLPC  H14C 6109   0.382   5.452  10.878  0.3408 -1.1994 -0.5229
   71SLPC   C15 6110   0.503   5.234  10.798  0.1667 -0.0857  0.6654
   71SLPC  H15A 6111   0.400   5.243  10.766  0.4971  0.2782 -0.3389
   71SLPC  H15B 6112   0.561   5.197  10.715 -0.3520 -3.2835  1.5777
   71SLPC  H15C 6113   0.515   5.162  10.878 -3.1168 -1.4123  0.1375
   71SLPC   C12 6114   0.565   5.454  10.697  0.0156 -0.7035  0.1687
   71SLPC  H12A 6115   0.631   5.415  10.621  0.4321  2.6220 -1.3571
   71SLPC  H12B 6116   0.605   5.551  10.723 -2.3820  0.2437  0.5755
   71SLPC   C11 6117   0.438   5.502  10.625  1.0123  0.1181 -0.2487
   71SLPC  H11A 6118   0.376   5.416  10.591  3.2146 -1.7451  0.1940
   71SLPC  H11B 6119   0.469   5.547  10.528 -0.8588  0.6740 -0.6286
   71SLPC     P 6120   0.426   5.739  10.735  0.1805 -0.1644  0.2696
   71SLPC   O13 6121   0.368   5.798  10.857  0.4392  0.4438  0.0961
   71SLPC   O14 6122   0.572   5.739  10.726  0.4765  0.2161 -0.3041
   71SLPC   O12 6123   0.373   5.593  10.711  0.5930 -0.3873  0.1749
   71SLPC   O11 6124   0.385   5.820  10.608  0.0394  0.3273  0.0461
   71SLPC    C1 6125   0.270   5.793  10.526 -0.2568 -0.1106 -0.3662
   71SLPC    HA 6126   0.216   5.698  10.546 -0.6975 -0.1257 -1.5353
   71SLPC    HB 6127   0.192   5.871  10.536  0.9708  0.9280  1.4258
   71SLPC    C2 6128   0.306   5.784  10.374 -0.7771 -0.0693  0.5424
   71SLPC    HS 6129   0.410   5.746  10.363 -0.0414  1.6351  1.3776
   71SLPC   O21 6130   0.297   5.917  10.310 -0.1329 -0.0004  0.2209
   71SLPC   C21 6131   0.408   5.994  10.319  0.2934 -0.2878 -0.5400
   71SLPC   O22 6132   0.513   5.953  10.372  0.2688 -0.5402  0.5112
   71SLPC   C22 6133   0.387   6.114  10.225  0.5301  0.2594  0.2666
   71SLPC   H2R 6134   0.283   6.115  10.186  0.4396  1.1707  0.5107
   71SLPC   H2S 6135   0.409   6.213  10.268  1.1382  1.5959 -2.8263
   71SLPC    C3 6136   0.215   5.687  10.290 -0.1573 -0.8083 -0.7589
   71SLPC    HX 6137   0.111   5.722  10.309  0.7261  1.6316 -0.1580
   71SLPC    HY 6138   0.220   5.579  10.315  0.1786 -0.3278  1.4524
   71SLPC   O31 6139   0.222   5.717  10.152  0.0569 -0.0777 -0.2484
   71SLPC   C31 6140   0.313   5.636  10.090  0.3468  1.0281  0.0636
   71SLPC   O32 6141   0.385   5.549  10.138  0.0686 -0.0014  0.5533
   71SLPC   C32 6142   0.310   5.660   9.943  1.2633  0.5212 -0.3700
   71SLPC   H2X 6143   0.321   5.769   9.924  3.8476  0.6624  1.4986
   71SLPC   H2Y 6144   0.209   5.634   9.905  0.1722  3.3077  0.3303
   71SLPC   C23 6145   0.494   6.114  10.114  0.0589 -0.9070  0.2950
   71SLPC   H3R 6146   0.525   6.010  10.095 -0.1856 -0.4839 -3.0061
   71SLPC   H3S 6147   0.584   6.174  10.138  1.5526 -2.1029 -1.9690
   71SLPC   C24 6148   0.456   6.182   9.980  0.5914  0.1875  0.0283
   71SLPC   H4R 6149   0.439   6.290   9.996 -1.6212 -0.2416  0.9202
   71SLPC   H4S 6150   0.357   6.138   9.953  0.3484  0.4270  0.5215
   71SLPC   C25 6151   0.550   6.151   9.867 -0.0320 -0.0801  0.4383
   71SLPC   H5R 6152   0.571   6.042   9.864 -0.9370 -0.2863  1.1947
   71SLPC   H5S 6153   0.651   6.194   9.889 -0.9193  1.3255  2.0437
   71SLPC   C26 6154   0.505   6.192   9.722  0.1446  0.4720  0.2434
   71SLPC   H6R 6155   0.514   6.303   9.722 -0.0073  0.4851  0.2316
   71SLPC   H6S 6156   0.400   6.162   9.703 -0.1556  0.6146  1.5439
   71SLPC   C27 6157   0.596   6.130   9.615  0.3670 -0.5091 -0.1409
   71SLPC   H7R 6158   0.574   6.022   9.609 -2.2855 -0.3170  3.3997
   71SLPC   H7S 6159   0.702   6.143   9.646  0.6774 -0.5010 -1.1693
   71SLPC   C28 6160   0.567   6.169   9.467 -0.8846 -0.4562 -0.5003
   71SLPC   H8R 6161   0.459   6.170   9.445 -0.4658 -0.7642 -2.8386
   71SLPC   H8S 6162   0.607   6.087   9.403  0.1051 -1.3351  1.1561
   71SLPC   C29 6163   0.631   6.304   9.434 -0.0524  0.0293  0.3045
   71SLPC   H9R 6164   0.596   6.389   9.495  1.2986 -0.7311  2.2574
   71SLPC  C210 6165   0.723   6.331   9.338 -0.1331  0.3456 -0.1291
   71SLPC  H10R 6166   0.754   6.436   9.334 -0.7226  0.6697  2.4085
   71SLPC  C211 6167   0.796   6.226   9.263 -0.1881  0.1356 -0.1057
   71SLPC  H11R 6168   0.734   6.139   9.233 -0.9580  0.4016  0.6693
   71SLPC  H11S 6169   0.874   6.181   9.329 -0.7076  1.3052  1.3681
   71SLPC  C212 6170   0.856   6.288   9.141 -0.9332  0.0996  0.2529
   71SLPC  H12R 6171   0.954   6.338   9.151  0.2331 -1.6247 -1.6077
   71SLPC  C213 6172   0.797   6.299   9.017 -0.7501 -0.4141 -0.4267
   71SLPC  H13R 6173   0.848   6.350   8.933 -1.5762 -0.1259 -0.7687
   71SLPC  C214 6174   0.660   6.271   8.974 -0.0098  0.5398  0.1464
   71SLPC  H14R 6175   0.586   6.262   9.057 -1.8639  0.1088 -1.4986
   71SLPC  H14S 6176   0.652   6.168   8.932  0.4007 -0.2554  1.9110
   71SLPC  C215 6177   0.596   6.384   8.885 -0.5035 -0.0056  0.0934
   71SLPC  H15R 6178   0.616   6.476   8.944  1.4468 -1.3700  1.7121
   71SLPC  H15S 6179   0.485   6.379   8.879 -0.5118  0.5349 -0.2285
   71SLPC  C216 6180   0.643   6.393   8.738 -0.5048 -0.0400 -0.3039
   71SLPC  H16R 6181   0.624   6.301   8.680 -1.7026  0.4270 -0.6809
   71SLPC  H16S 6182   0.750   6.408   8.714 -0.5334 -1.3608 -1.3640
   71SLPC  C217 6183   0.567   6.493   8.659 -0.6151 -1.2567 -0.1656
   71SLPC  H17R 6184   0.561   6.587   8.717  0.0473 -1.5596  0.4074
   71SLPC  H17S 6185   0.464   6.451   8.651 -0.8965 -0.5822 -0.0805
   71SLPC  C218 6186   0.625   6.515   8.518  0.2829  0.4808  0.0970
   71SLPC  H18R 6187   0.730   6.550   8.534  0.9330 -0.9413 -0.8564
   71SLPC  H18S 6188   0.568   6.584   8.452  1.9017  2.2396  0.4454
   71SLPC  H18T 6189   0.638   6.418   8.466  0.2178 -1.0642  2.8147
   71SLPC   C33 6190   0.418   5.590   9.862  0.3350 -0.1766  0.6424
   71SLPC   H3X 6191   0.379   5.487   9.843 -0.6305  0.0873  1.0998
   71SLPC   H3Y 6192   0.517   5.589   9.911  0.2688 -0.4870  0.7726
   71SLPC   C34 6193   0.444   5.658   9.725  0.1719 -0.2328  0.0286
   71SLPC   H4X 6194   0.527   5.599   9.682  0.3614  0.3736 -0.4452
   71SLPC   H4Y 6195   0.497   5.753   9.749  0.2160 -0.5893  1.4577
   71SLPC   C35 6196   0.329   5.671   9.633  0.4270  0.4417  0.6917
   71SLPC   H5X 6197   0.233   5.698   9.682  1.3822  3.4664  1.1134
   71SLPC   H5Y 6198   0.310   5.573   9.584  1.6482  0.8115 -0.5990
   71SLPC   C36 6199   0.352   5.778   9.523 -0.0508 -1.2832  0.7440
   71SLPC   H6X 6200   0.378   5.873   9.575 -0.3489 -0.5609 -0.3844
   71SLPC   H6Y 6201   0.254   5.792   9.472  0.7169  1.2950 -0.1931
   71SLPC   C37 6202   0.449   5.734   9.410  0.6977  0.4657  0.0008
   71SLPC   H7X 6203   0.437   5.624   9.408  2.4877  0.2331 -0.0611
   71SLPC   H7Y 6204   0.551   5.762   9.443  0.8008  0.8996 -0.6534
   71SLPC   C38 6205   0.426   5.787   9.265 -0.5094 -0.2819 -0.4585
   71SLPC   H8X 6206   0.358   5.721   9.206  0.1237 -2.2872  0.9422
   71SLPC   H8Y 6207   0.524   5.771   9.217 -0.6058 -0.0494 -0.7370
   71SLPC   C39 6208   0.376   5.929   9.263  0.6405 -0.1604 -0.5239
   71SLPC   H9X 6209   0.383   5.990   9.356  0.4936 -2.1201  0.8118
   71SLPC   H9Y 6210   0.265   5.922   9.263  0.6069  0.2865 -0.7303
   71SLPC  C310 6211   0.430   6.010   9.146  0.2153  0.3995  0.4222
   71SLPC  H10X 6212   0.538   6.037   9.149  0.0210  1.3647 -0.4415
   71SLPC  H10Y 6213   0.376   6.106   9.166 -2.5749 -0.9061 -0.3440
   71SLPC  C311 6214   0.395   5.959   9.008  0.0174  0.9152 -0.3075
   71SLPC  H11X 6215   0.427   6.043   8.942 -0.0292  1.3228  0.1841
   71SLPC  H11Y 6216   0.285   5.941   9.007 -0.0278  1.1999 -0.4419
   71SLPC  C312 6217   0.471   5.834   8.958  0.1909 -0.2760 -0.0195
   71SLPC  H12X 6218   0.410   5.744   8.979 -0.2358 -0.0084 -0.0912
   71SLPC  H12Y 6219   0.573   5.841   9.001 -0.0130  1.3037  0.2594
   71SLPC  C313 6220   0.502   5.849   8.812  0.1293 -1.0456  0.7175
   71SLPC  H13X 6221   0.552   5.945   8.790 -0.9268 -0.2708  1.6111
   71SLPC  H13Y 6222   0.406   5.847   8.757  0.1883  0.5589  0.5202
   71SLPC  C314 6223   0.594   5.739   8.775  0.1128  0.1819  0.2176
   71SLPC  H14X 6224   0.541   5.642   8.777  1.4193 -0.5837 -0.7378
   71SLPC  H14Y 6225   0.673   5.732   8.853  0.6592 -4.2164 -0.5074
   71SLPC  C315 6226   0.667   5.761   8.641 -0.7812 -0.1837  0.0903
   71SLPC  H15X 6227   0.684   5.871   8.629 -2.3800  0.0026 -0.8171
   71SLPC  H15Y 6228   0.587   5.747   8.565 -2.4248  1.9142  1.3089
   71SLPC  C316 6229   0.793   5.669   8.638  0.2107  0.0340  0.4042
   71SLPC  H16X 6230   0.757   5.573   8.680 -2.2338 -0.1952 -1.9512
   71SLPC  H16Y 6231   0.866   5.708   8.712 -2.1644  2.5488  1.6372
   71SLPC  C317 6232   0.854   5.649   8.502 -0.0675 -0.0305 -0.5005
   71SLPC  H17X 6233   0.910   5.743   8.482 -0.1420 -0.0360 -0.7448
   71SLPC  H17Y 6234   0.768   5.629   8.433 -1.4424  1.5129  0.6903
   71SLPC  C318 6235   0.940   5.523   8.487  0.2975 -0.0820  0.8376
   71SLPC  H18X 6236   0.877   5.435   8.511 -0.6887  0.4729  0.3754
   71SLPC  H18Y 6237   1.029   5.533   8.552 -0.7261 -0.0465  2.2897
   71SLPC  H18Z 6238   0.967   5.501   8.382 -0.4359  2.0300  0.1355
   72SLPC     N 6239   3.215   4.939  11.372 -0.2196  0.3238 -0.3369
   72SLPC   C13 6240   3.163   5.081  11.379 -0.3960 -0.3724  0.6129
   72SLPC  H13A 6241   3.209   5.155  11.316 -1.0745 -0.8908 -0.5186
   72SLPC  H13B 6242   3.065   5.081  11.333 -1.1428 -0.4035  2.1487
   72SLPC  H13C 6243   3.171   5.120  11.479  0.6755 -0.8992  0.7469
   72SLPC   C14 6244   3.132   4.859  11.466  0.0960  0.3583 -0.1599
   72SLPC  H14A 6245   3.167   4.858  11.568  0.0709  0.2591 -0.1515
   72SLPC  H14B 6246   3.029   4.891  11.464 -0.1780 -0.1334  2.2714
   72SLPC  H14C 6247   3.137   4.754  11.441 -0.7986  0.6601 -1.7102
   72SLPC   C15 6248   3.361   4.936  11.402 -0.4199  0.5253 -0.1658
   72SLPC  H15A 6249   3.416   4.982  11.322 -0.0720  1.5166  0.6185
   72SLPC  H15B 6250   3.379   4.991  11.494 -3.0412 -3.1312  2.8587
   72SLPC  H15C 6251   3.400   4.836  11.406 -0.0003  0.6730 -0.4771
   72SLPC   C12 6252   3.199   4.868  11.233 -0.4761 -0.0175  0.0307
   72SLPC  H12A 6253   3.109   4.895  11.180  0.7748  1.1335 -1.6392
   72SLPC  H12B 6254   3.188   4.763  11.252 -1.3465 -0.2676 -1.6253
   72SLPC   C11 6255   3.295   4.912  11.120 -0.8350  0.4861  0.4481
   72SLPC  H11A 6256   3.290   4.829  11.046  1.7936  0.0188  0.7093
   72SLPC  H11B 6257   3.399   4.912  11.158 -0.4922  3.4467 -0.2975
   72SLPC     P 6258   3.155   5.056  10.957  0.1875 -0.1995  0.0568
   72SLPC   O13 6259   3.027   5.013  11.013 -0.3551  0.1794 -0.0008
   72SLPC   O14 6260   3.151   5.194  10.912  0.3828  0.2143 -0.4471
   72SLPC   O12 6261   3.264   5.034  11.062 -0.5780  0.5970  0.2075
   72SLPC   O11 6262   3.201   4.956  10.843 -0.6178  0.0692 -0.4209
   72SLPC    C1 6263   3.324   4.974  10.766  0.4895 -0.9687  0.1340
   72SLPC    HA 6264   3.376   5.068  10.795 -0.4244 -0.6346  0.7255
   72SLPC    HB 6265   3.400   4.899  10.797 -0.2866 -1.2850  1.3249
   72SLPC    C2 6266   3.300   4.974  10.614  0.4141  0.3789 -0.3340
   72SLPC    HS 6267   3.248   5.069  10.589 -0.7760  0.8494  3.4301
   72SLPC   O21 6268   3.214   4.860  10.586  0.1059  0.1371  0.2108
   72SLPC   C21 6269   3.083   4.878  10.550 -0.5265 -0.7064  0.7538
   72SLPC   O22 6270   3.035   4.990  10.534 -0.5768 -0.1353  0.3129
   72SLPC   C22 6271   3.004   4.751  10.503  0.4345 -0.5576 -0.1350
   72SLPC   H2R 6272   3.052   4.653  10.526  1.4070 -0.3445 -1.1721
   72SLPC   H2S 6273   2.907   4.755  10.557  0.9749 -0.2638  0.8368
   72SLPC    C3 6274   3.434   4.966  10.526 -0.8238  0.3884  0.4283
   72SLPC    HX 6275   3.491   4.873  10.547 -0.4189  0.1195 -1.6534
   72SLPC    HY 6276   3.500   5.043  10.570  0.7909 -1.9295  2.3831
   72SLPC   O31 6277   3.405   4.985  10.391  0.1369  0.2685 -0.0980
   72SLPC   C31 6278   3.371   4.876  10.317 -0.1742 -0.1803  0.1845
   72SLPC   O32 6279   3.352   4.763  10.360  0.0647  0.0374  0.0400
   72SLPC   C32 6280   3.355   4.914  10.170 -0.0676 -0.3895  0.7582
   72SLPC   H2X 6281   3.368   5.021  10.144  0.1345 -0.9862 -1.8542
   72SLPC   H2Y 6282   3.250   4.891  10.142  0.1445 -1.2338  0.6332
   72SLPC   C23 6283   2.980   4.750  10.348  0.9338  0.4903  0.3476
   72SLPC   H3R 6284   3.072   4.738  10.286  0.4496 -1.9909 -0.0201
   72SLPC   H3S 6285   2.917   4.839  10.327 -2.2272 -1.0427  2.6205
   72SLPC   C24 6286   2.891   4.629  10.310  0.5689 -0.3939 -0.2673
   72SLPC   H4R 6287   2.807   4.635  10.382 -0.1068 -0.1188 -1.0649
   72SLPC   H4S 6288   2.941   4.530  10.323 -0.7885 -0.9829  0.8214
   72SLPC   C25 6289   2.818   4.658  10.179  0.1664 -0.1603  0.0483
   72SLPC   H5R 6290   2.789   4.765  10.186  0.6032 -0.0563  0.2996
   72SLPC   H5S 6291   2.733   4.587  10.175 -0.1146 -0.0716  2.8500
   72SLPC   C26 6292   2.896   4.649  10.046 -0.2580 -0.2964 -0.2456
   72SLPC   H6R 6293   2.917   4.541  10.030  1.4155 -0.0222 -0.0881
   72SLPC   H6S 6294   2.991   4.706  10.050 -1.5337  1.9734 -0.7699
   72SLPC   C27 6295   2.820   4.698   9.928  0.5035  0.1010 -0.5064
   72SLPC   H7R 6296   2.786   4.799   9.959  3.8722  2.4142 -3.5515
   72SLPC   H7S 6297   2.728   4.636   9.924  0.5572  0.0768 -1.6276
   72SLPC   C28 6298   2.893   4.727   9.795  0.5138  0.0609 -0.3694
   72SLPC   H8R 6299   2.996   4.768   9.805  0.2792  0.4044  0.9143
   72SLPC   H8S 6300   2.829   4.797   9.737 -1.3108  1.1040  2.6687
   72SLPC   C29 6301   2.905   4.593   9.726 -0.4143 -0.2656  0.3056
   72SLPC   H9R 6302   2.885   4.506   9.791 -1.0031  1.3551  2.4085
   72SLPC  C210 6303   2.936   4.571   9.599  0.8010 -0.2527 -0.0482
   72SLPC  H10R 6304   2.919   4.470   9.559  1.3955 -0.5382  0.4075
   72SLPC  C211 6305   2.968   4.672   9.488  0.3992 -0.3420  0.4125
   72SLPC  H11R 6306   3.071   4.655   9.449  0.9794  4.9783 -1.2020
   72SLPC  H11S 6307   2.980   4.765   9.547 -0.2376 -1.4132  2.2955
   72SLPC  C212 6308   2.876   4.684   9.367  0.3113  1.3231 -0.1498
   72SLPC  H12R 6309   2.775   4.721   9.392 -0.7341 -2.0996  1.3158
   72SLPC  C213 6310   2.913   4.661   9.243  0.1743 -0.4311  0.2250
   72SLPC  H13R 6311   2.853   4.702   9.161  2.1131  0.7298 -0.7062
   72SLPC  C214 6312   3.049   4.631   9.189 -0.8280  0.3394  0.1045
   72SLPC  H14R 6313   3.042   4.529   9.145 -0.5721  0.6504 -0.6521
   72SLPC  H14S 6314   3.132   4.633   9.263 -1.2066  0.9522  0.5239
   72SLPC  C215 6315   3.089   4.732   9.081 -0.2230  0.3184 -0.9915
   72SLPC  H15R 6316   3.199   4.726   9.069 -0.3754 -0.7475 -2.0714
   72SLPC  H15S 6317   3.074   4.835   9.119 -0.4251 -0.3909  0.9552
   72SLPC  C216 6318   3.010   4.723   8.951  0.3642  0.1484 -0.5437
   72SLPC  H16R 6319   2.907   4.753   8.980  0.8611  0.3756  1.0690
   72SLPC  H16S 6320   3.009   4.618   8.915  2.1957 -0.7460  1.7601
   72SLPC  C217 6321   3.068   4.804   8.832  0.1725 -0.6000  0.0709
   72SLPC  H17R 6322   3.170   4.774   8.798  0.0109  1.0817 -2.1083
   72SLPC  H17S 6323   3.080   4.909   8.865  0.2056 -0.8792  0.9701
   72SLPC  C218 6324   2.980   4.800   8.708 -0.0331 -0.2058 -0.2101
   72SLPC  H18R 6325   2.874   4.814   8.740  0.2050 -1.0207  0.9789
   72SLPC  H18S 6326   2.993   4.697   8.670  1.8660  0.1963 -0.7326
   72SLPC  H18T 6327   3.014   4.869   8.628  1.0061  1.6301  1.7230
   72SLPC   C33 6328   3.447   4.829  10.078  0.1811 -0.2615  0.1230
   72SLPC   H3X 6329   3.407   4.725  10.078 -0.7739  0.0850 -1.2199
   72SLPC   H3Y 6330   3.549   4.824  10.123  0.1887 -1.1213  0.0331
   72SLPC   C34 6331   3.436   4.878   9.935  0.8813 -0.2648 -0.1928
   72SLPC   H4X 6332   3.502   4.807   9.881 -0.7338 -1.3631 -0.7899
   72SLPC   H4Y 6333   3.479   4.981   9.931 -0.8670  0.4783 -3.2345
   72SLPC   C35 6334   3.288   4.879   9.880 -0.2472 -0.2115  1.0077
   72SLPC   H5X 6335   3.232   4.958   9.933 -0.5731  1.9799 -2.3348
   72SLPC   H5Y 6336   3.248   4.776   9.882 -1.0019  0.0186 -0.6333
   72SLPC   C36 6337   3.303   4.910   9.725 -0.2736 -0.2128 -0.3266
   72SLPC   H6X 6338   3.386   4.980   9.704 -0.3450 -0.1026 -0.2379
   72SLPC   H6Y 6339   3.204   4.945   9.689 -0.3210 -1.9253 -2.0423
   72SLPC   C37 6340   3.326   4.777   9.640 -0.5774  0.5520  0.1108
   72SLPC   H7X 6341   3.252   4.695   9.644  0.0092 -0.0226 -0.5211
   72SLPC   H7Y 6342   3.422   4.740   9.683 -1.2903 -0.0390  1.2295
   72SLPC   C38 6343   3.360   4.810   9.492  0.3359  0.6918  0.3544
   72SLPC   H8X 6344   3.450   4.875   9.497  1.7366 -1.2716  2.3201
   72SLPC   H8Y 6345   3.278   4.868   9.446  1.8089  1.5984 -1.2947
   72SLPC   C39 6346   3.395   4.672   9.420 -0.3378  0.2615 -0.7636
   72SLPC   H9X 6347   3.310   4.602   9.433 -1.0891  0.9949 -1.6327
   72SLPC   H9Y 6348   3.479   4.631   9.481  0.4497  2.3560 -0.3499
   72SLPC  C310 6349   3.431   4.690   9.271 -0.6259 -0.3309  0.8150
   72SLPC  H10X 6350   3.536   4.725   9.274 -0.2339 -1.4869  1.9343
   72SLPC  H10Y 6351   3.361   4.763   9.225 -0.3766  0.3903  1.5534
   72SLPC  C311 6352   3.429   4.563   9.189 -0.6255  0.1190  0.6197
   72SLPC  H11X 6353   3.331   4.510   9.193 -1.4067  1.5730  1.2416
   72SLPC  H11Y 6354   3.506   4.494   9.231 -0.4089 -1.8705 -2.7217
   72SLPC  C312 6355   3.459   4.592   9.044 -0.4923 -0.3538 -0.5317
   72SLPC  H12X 6356   3.532   4.676   9.041  0.1033 -0.7672  1.2630
   72SLPC  H12Y 6357   3.369   4.644   9.003 -0.8905 -2.0458 -1.9229
   72SLPC  C313 6358   3.497   4.469   8.960 -0.4486  0.3262 -0.8461
   72SLPC  H13X 6359   3.418   4.392   8.957  0.2146 -0.3966 -0.3517
   72SLPC  H13Y 6360   3.582   4.414   9.007 -0.1997  1.2570 -0.1882
   72SLPC  C314 6361   3.521   4.500   8.804  0.4363 -0.6394 -0.3945
   72SLPC  H14X 6362   3.549   4.409   8.745 -0.9413 -1.3860  0.0724
   72SLPC  H14Y 6363   3.604   4.569   8.778 -0.6245  0.5236 -0.7983
   72SLPC  C315 6364   3.393   4.546   8.750 -0.0320 -0.0928 -0.1828
   72SLPC  H15X 6365   3.361   4.640   8.800 -2.1234 -1.4127  1.0789
   72SLPC  H15Y 6366   3.319   4.468   8.779 -2.0601  2.7098  2.9462
   72SLPC  C316 6367   3.382   4.563   8.602  0.1921 -0.6446  0.5461
   72SLPC  H16X 6368   3.392   4.462   8.556 -1.1837 -0.7239  0.3817
   72SLPC  H16Y 6369   3.459   4.631   8.559 -0.7826  0.7773  0.9850
   72SLPC  C317 6370   3.241   4.616   8.560 -0.2974  1.0440  0.1442
   72SLPC  H17X 6371   3.229   4.707   8.623  0.1821  3.5228 -3.0874
   72SLPC  H17Y 6372   3.165   4.541   8.589  0.1790  0.6590  0.4068
   72SLPC  C318 6373   3.205   4.657   8.423  0.1628 -0.0638  0.5059
   72SLPC  H18X 6374   3.108   4.711   8.423  0.8889  1.3377 -1.1059
   72SLPC  H18Y 6375   3.197   4.574   8.350 -2.1551 -1.2455  1.9908
   72SLPC  H18Z 6376   3.270   4.736   8.380  1.2628 -0.7535  0.8462
   73SLPC     N 6377   5.183   2.733  11.259  0.2978 -0.1146  0.2115
   73SLPC   C13 6378   5.247   2.823  11.358  0.0449 -0.0816 -0.9667
   73SLPC  H13A 6379   5.314   2.769  11.424  0.1658  0.3644 -0.7193
   73SLPC  H13B 6380   5.299   2.904  11.309 -1.5669  1.8321  0.3504
   73SLPC  H13C 6381   5.162   2.866  11.408 -0.9693 -0.2006 -2.5144
   73SLPC   C14 6382   5.093   2.817  11.173  0.7098 -0.1653  0.0283
   73SLPC  H14A 6383   5.157   2.885  11.120  0.4006  0.9314  1.0123
   73SLPC  H14B 6384   5.027   2.762  11.108  0.9666  1.4182 -1.6278
   73SLPC  H14C 6385   5.030   2.871  11.242  0.2851 -2.2005  1.3259
   73SLPC   C15 6386   5.101   2.638  11.329 -0.1370  0.7072  0.7334
   73SLPC  H15A 6387   5.173   2.590  11.394  1.6249  1.1833 -0.7731
   73SLPC  H15B 6388   5.020   2.690  11.376 -0.0690  1.4307  0.0728
   73SLPC  H15C 6389   5.055   2.567  11.261  0.9558  1.0330 -0.3934
   73SLPC   C12 6390   5.290   2.670  11.173 -0.2714  0.7040 -0.7273
   73SLPC  H12A 6391   5.238   2.623  11.091 -1.1178 -1.7988  1.1211
   73SLPC  H12B 6392   5.339   2.590  11.227 -0.3799  0.9483 -0.2617
   73SLPC   C11 6393   5.405   2.760  11.116  0.1238  0.4823 -0.1338
   73SLPC  H11A 6394   5.473   2.683  11.073 -0.1379 -0.5822  1.2600
   73SLPC  H11B 6395   5.459   2.805  11.202 -0.6073 -0.4535  0.8419
   73SLPC     P 6396   5.452   2.957  10.959 -0.0232 -0.3233  0.0739
   73SLPC   O13 6397   5.466   3.075  11.039 -0.0539  0.1298 -0.2696
   73SLPC   O14 6398   5.576   2.879  10.935 -0.5939 -0.2401 -0.5657
   73SLPC   O12 6399   5.354   2.857  11.020  0.4705 -0.0495 -0.0450
   73SLPC   O11 6400   5.387   2.997  10.822 -0.1563 -0.0428  0.6379
   73SLPC    C1 6401   5.287   2.910  10.757  0.3866  0.1623  0.1536
   73SLPC    HA 6402   5.202   2.896  10.827  0.4353  1.3036  0.4565
   73SLPC    HB 6403   5.241   2.962  10.671 -3.0128 -0.0692  1.6725
   73SLPC    C2 6404   5.340   2.778  10.696  0.0607 -0.0269  0.3754
   73SLPC    HS 6405   5.447   2.767  10.727  0.4027  2.6053  0.3264
   73SLPC   O21 6406   5.327   2.769  10.550  0.3569 -0.2399 -0.3401
   73SLPC   C21 6407   5.425   2.835  10.484 -0.2409  1.0325  0.3689
   73SLPC   O22 6408   5.521   2.892  10.528 -0.2502  0.1497 -0.1713
   73SLPC   C22 6409   5.380   2.835  10.341  0.5398  0.2550  0.5372
   73SLPC   H2R 6410   5.432   2.754  10.285 -0.9501 -1.1819  1.1717
   73SLPC   H2S 6411   5.270   2.824  10.335  0.2901  2.4337  0.2542
   73SLPC    C3 6412   5.271   2.653  10.763 -0.4721  0.5343  0.0231
   73SLPC    HX 6413   5.275   2.679  10.871  0.0547 -0.4239  0.2455
   73SLPC    HY 6414   5.336   2.566  10.742 -0.8423  0.5664 -1.3460
   73SLPC   O31 6415   5.133   2.634  10.735  0.0163 -0.4435  0.2393
   73SLPC   C31 6416   5.112   2.564  10.623  0.0768  0.1453 -0.1853
   73SLPC   O32 6417   5.199   2.526  10.547  0.0608  0.1663 -0.0970
   73SLPC   C32 6418   4.959   2.531  10.604 -0.3730 -0.0327 -1.0889
   73SLPC   H2X 6419   4.908   2.629  10.617  0.4954  0.6084 -2.2800
   73SLPC   H2Y 6420   4.935   2.461  10.687  4.5980  0.9973  1.6126
   73SLPC   C23 6421   5.422   2.962  10.273  0.2564  0.5622  0.8177
   73SLPC   H3R 6422   5.532   2.961  10.257 -0.1922  1.7016 -3.6770
   73SLPC   H3S 6423   5.389   3.051  10.330 -1.5887 -1.0035  2.3268
   73SLPC   C24 6424   5.366   2.964  10.129 -0.6938 -0.1842 -0.0952
   73SLPC   H4R 6425   5.256   2.977  10.123 -0.8794 -1.5134 -0.0081
   73SLPC   H4S 6426   5.370   2.863  10.082 -1.8094  0.1399 -0.9131
   73SLPC   C25 6427   5.434   3.068  10.045 -0.1196  0.4037  0.2870
   73SLPC   H5R 6428   5.541   3.041  10.040 -0.4484 -0.8019 -0.9955
   73SLPC   H5S 6429   5.424   3.171  10.086  2.2701  0.7769  0.0222
   73SLPC   C26 6430   5.372   3.061   9.899 -0.3073 -0.5384 -0.0224
   73SLPC   H6R 6431   5.269   3.102   9.907 -0.3536 -0.9135  1.9533
   73SLPC   H6S 6432   5.370   2.955   9.866 -0.4887 -0.6246  0.2600
   73SLPC   C27 6433   5.454   3.142   9.799 -0.6064  0.6618 -0.0275
   73SLPC   H7R 6434   5.530   3.084   9.742 -0.6981  0.9610 -0.4553
   73SLPC   H7S 6435   5.520   3.212   9.855 -2.0633  1.1633  1.1177
   73SLPC   C28 6436   5.376   3.219   9.691  0.6915  0.0279  0.4613
   73SLPC   H8R 6437   5.456   3.271   9.634  2.6786 -1.4249  1.7650
   73SLPC   H8S 6438   5.319   3.289   9.755 -1.3537 -0.4321 -0.7816
   73SLPC   C29 6439   5.273   3.135   9.612 -1.0099  0.8678  0.4679
   73SLPC   H9R 6440   5.188   3.111   9.678 -1.7264 -0.7439 -0.9572
   73SLPC  C210 6441   5.273   3.121   9.477 -0.4493 -0.3846  0.0755
   73SLPC  H10R 6442   5.198   3.065   9.420  1.2821 -1.1235 -1.6069
   73SLPC  C211 6443   5.387   3.170   9.384  0.5382  0.5838  0.3324
   73SLPC  H11R 6444   5.484   3.150   9.435  0.0653 -2.5991  0.2010
   73SLPC  H11S 6445   5.381   3.280   9.376  1.1476  0.5624 -0.5519
   73SLPC  C212 6446   5.379   3.104   9.248 -0.4774  0.8009 -0.4314
   73SLPC  H12R 6447   5.433   3.008   9.246  2.2649  2.2662 -0.5937
   73SLPC  C213 6448   5.311   3.160   9.140 -0.2148  0.1727  0.5970
   73SLPC  H13R 6449   5.288   3.108   9.046  0.0487  2.5496 -0.8593
   73SLPC  C214 6450   5.243   3.293   9.142  0.1234  0.2204 -0.0336
   73SLPC  H14R 6451   5.233   3.322   9.249  0.4464 -1.9288  0.6171
   73SLPC  H14S 6452   5.142   3.277   9.100 -0.8558  2.6966  1.1579
   73SLPC  C215 6453   5.316   3.398   9.061  0.2943  0.0396  0.0972
   73SLPC  H15R 6454   5.417   3.415   9.104 -0.0314  2.1026  0.1512
   73SLPC  H15S 6455   5.262   3.494   9.077  0.3733  0.3812 -1.5185
   73SLPC  C216 6456   5.320   3.357   8.912 -0.7060 -1.0758 -0.0255
   73SLPC  H16R 6457   5.217   3.323   8.887 -1.1134  0.8587 -1.0967
   73SLPC  H16S 6458   5.383   3.267   8.896  0.5757 -0.1425 -0.3496
   73SLPC  C217 6459   5.330   3.470   8.811 -0.2395  0.0166  0.5535
   73SLPC  H17R 6460   5.415   3.538   8.832 -0.3298  1.4189 -2.9702
   73SLPC  H17S 6461   5.244   3.540   8.817  0.2034  0.4770  1.6822
   73SLPC  C218 6462   5.341   3.427   8.662  0.2816 -0.0821  0.0028
   73SLPC  H18R 6463   5.441   3.386   8.636  0.3432 -0.8244  1.3577
   73SLPC  H18S 6464   5.308   3.505   8.590 -0.3932 -0.0130  0.3888
   73SLPC  H18T 6465   5.271   3.343   8.642  0.8210 -0.5563  0.0843
   73SLPC   C33 6466   4.934   2.463  10.468 -0.4262 -0.4125  0.3026
   73SLPC   H3X 6467   4.825   2.443  10.464 -0.4202 -0.6587  1.1195
   73SLPC   H3Y 6468   4.991   2.367  10.466 -0.0878 -0.2617  1.7184
   73SLPC   C34 6469   4.955   2.562  10.342 -0.4248 -0.3943 -0.2479
   73SLPC   H4X 6470   5.052   2.615  10.356 -1.0130  1.0345 -1.3064
   73SLPC   H4Y 6471   4.887   2.649  10.349  1.5775  1.1027  1.8447
   73SLPC   C35 6472   4.945   2.491  10.211  0.0254 -0.4044 -0.2927
   73SLPC   H5X 6473   4.856   2.424  10.209  1.1422 -1.9442 -0.4070
   73SLPC   H5Y 6474   5.033   2.424  10.196  0.4592  0.1952 -0.4655
   73SLPC   C36 6475   4.936   2.582  10.085  0.5262 -0.4009  0.6351
   73SLPC   H6X 6476   5.023   2.647  10.062 -0.7163  1.2230  0.3994
   73SLPC   H6Y 6477   4.848   2.646  10.107 -0.1823 -1.2367  0.2745
   73SLPC   C37 6478   4.889   2.494   9.965  0.0453 -0.1489  1.3403
   73SLPC   H7X 6479   4.792   2.441   9.975 -0.4947  0.5222 -0.0082
   73SLPC   H7Y 6480   4.972   2.423   9.946 -2.0517 -2.2141 -0.8986
   73SLPC   C38 6481   4.881   2.564   9.829 -0.0280 -0.3094 -0.5159
   73SLPC   H8X 6482   4.980   2.611   9.809 -0.7400  1.2574 -0.5342
   73SLPC   H8Y 6483   4.811   2.647   9.852 -0.0111 -0.2698 -0.6071
   73SLPC   C39 6484   4.840   2.482   9.709  0.2059  0.2661  0.8183
   73SLPC   H9X 6485   4.736   2.449   9.733 -0.2323 -0.4887 -1.7759
   73SLPC   H9Y 6486   4.903   2.390   9.705 -0.4426 -0.1323 -1.5475
   73SLPC  C310 6487   4.832   2.557   9.575 -0.3873 -0.5808 -0.1825
   73SLPC  H10X 6488   4.934   2.596   9.558 -1.8434  3.9737  0.1039
   73SLPC  H10Y 6489   4.768   2.644   9.603 -0.5988 -0.9364  0.4811
   73SLPC  C311 6490   4.791   2.481   9.458  0.2009 -0.0755 -0.4782
   73SLPC  H11X 6491   4.689   2.444   9.478  0.3972  0.0980  0.9646
   73SLPC  H11Y 6492   4.845   2.385   9.442 -1.3087 -1.1202  0.4391
   73SLPC  C312 6493   4.788   2.555   9.330  0.8195 -0.2801 -0.1635
   73SLPC  H12X 6494   4.873   2.626   9.323  0.4743  0.1761  0.1528
   73SLPC  H12Y 6495   4.696   2.617   9.324 -0.9249 -2.7727 -1.0027
   73SLPC  C313 6496   4.781   2.462   9.207  0.2462 -0.1257  0.9001
   73SLPC  H13X 6497   4.686   2.408   9.223 -0.4573  0.8392  0.1447
   73SLPC  H13Y 6498   4.867   2.392   9.214  1.2199  0.8974 -0.3310
   73SLPC  C314 6499   4.794   2.537   9.071 -0.1997 -0.0889  0.2879
   73SLPC  H14X 6500   4.904   2.552   9.058  0.3926  0.0810  4.1290
   73SLPC  H14Y 6501   4.750   2.639   9.077  2.0861  1.1779 -2.3011
   73SLPC  C315 6502   4.717   2.472   8.950 -0.2912 -0.1798  0.0664
   73SLPC  H15X 6503   4.614   2.442   8.978  0.0309 -0.9261  0.4835
   73SLPC  H15Y 6504   4.776   2.384   8.917  0.6151  0.4362  0.0151
   73SLPC  C316 6505   4.715   2.566   8.818  0.4635  0.0729 -0.5510
   73SLPC  H16X 6506   4.821   2.598   8.810  0.3661  0.4535 -0.3616
   73SLPC  H16Y 6507   4.657   2.656   8.846  0.7952  0.3063 -0.6062
   73SLPC  C317 6508   4.663   2.496   8.682 -0.1409  0.0316 -0.5611
   73SLPC  H17X 6509   4.740   2.420   8.658 -0.0151 -0.0318  0.0278
   73SLPC  H17Y 6510   4.680   2.579   8.610  1.3880  1.2251  1.0768
   73SLPC  C318 6511   4.524   2.435   8.683  0.2209 -0.3629  0.4669
   73SLPC  H18X 6512   4.523   2.370   8.593  3.7023 -0.4815  0.3784
   73SLPC  H18Y 6513   4.447   2.515   8.677  0.3928 -0.1449  1.0919
   73SLPC  H18Z 6514   4.517   2.370   8.773 -1.8690 -0.5570  0.2113
   74SLPC     N 6515   3.981   4.810  10.846  0.6660 -0.2171  0.2352
   74SLPC   C13 6516   4.106   4.779  10.764 -0.2147  0.6842 -0.0737
   74SLPC  H13A 6517   4.088   4.706  10.686  0.4195  0.4608 -0.0162
   74SLPC  H13B 6518   4.131   4.867  10.707 -1.8418  1.6001  0.5412
   74SLPC  H13C 6519   4.175   4.746  10.839 -1.0506 -1.4586 -0.1495
   74SLPC   C14 6520   4.010   4.936  10.927 -1.0038  0.5677 -0.4107
   74SLPC  H14A 6521   4.033   5.001  10.844  0.5424 -1.8075 -1.9739
   74SLPC  H14B 6522   3.929   4.972  10.989  0.0317 -0.8286  1.8799
   74SLPC  H14C 6523   4.096   4.928  10.991 -1.2136 -2.0254 -0.3372
   74SLPC   C15 6524   3.941   4.699  10.935 -0.3203  0.5482 -0.0509
   74SLPC  H15A 6525   3.907   4.610  10.884 -0.2190  0.4523  0.0494
   74SLPC  H15B 6526   4.025   4.661  10.991 -0.5183 -0.3658 -0.3443
   74SLPC  H15C 6527   3.871   4.724  11.013 -0.9856  0.3149 -0.5572
   74SLPC   C12 6528   3.861   4.839  10.751  0.0642  0.6099  0.0601
   74SLPC  H12A 6529   3.784   4.859  10.825 -0.2776  1.0239 -0.4009
   74SLPC  H12B 6530   3.848   4.751  10.690  1.6797 -0.7104  1.5236
   74SLPC   C11 6531   3.884   4.955  10.655  0.4081 -0.6510 -0.4878
   74SLPC  H11A 6532   3.804   4.961  10.579 -1.9177  0.1500  1.8460
   74SLPC  H11B 6533   3.975   4.920  10.602  0.9547  0.4957 -0.3509
   74SLPC     P 6534   3.999   5.187  10.647  0.2408  0.0399  0.0710
   74SLPC   O13 6535   4.002   5.305  10.722 -0.2644 -0.5823 -0.8841
   74SLPC   O14 6536   4.124   5.113  10.627  0.3843 -0.1457 -0.2266
   74SLPC   O12 6537   3.902   5.084  10.716 -0.1851  0.3363  0.0640
   74SLPC   O11 6538   3.923   5.201  10.512  0.0520 -0.0551 -0.5513
   74SLPC    C1 6539   3.802   5.268  10.486 -0.6513  0.1095 -0.8133
   74SLPC    HA 6540   3.741   5.271  10.579 -0.2890  0.1080 -0.5756
   74SLPC    HB 6541   3.830   5.369  10.451  0.8395 -0.5436 -1.5862
   74SLPC    C2 6542   3.728   5.208  10.360  0.0039 -0.5933 -0.1888
   74SLPC    HS 6543   3.658   5.127  10.391 -0.5519  0.9759  3.0757
   74SLPC   O21 6544   3.822   5.161  10.264 -0.1028 -0.9015  0.5350
   74SLPC   C21 6545   3.853   5.031  10.262 -0.3715  0.2194  0.3231
   74SLPC   O22 6546   3.808   4.944  10.334  0.3592 -0.7303 -0.6422
   74SLPC   C22 6547   3.953   5.005  10.149  0.1007 -0.1095 -0.0756
   74SLPC   H2R 6548   3.994   5.106  10.128 -2.9230  0.9536 -1.3502
   74SLPC   H2S 6549   4.033   4.937  10.186 -1.2037 -1.0757  1.0527
   74SLPC    C3 6550   3.631   5.313  10.298 -0.5662  0.1532 -0.7965
   74SLPC    HX 6551   3.704   5.386  10.257  1.9407 -1.4420  0.5732
   74SLPC    HY 6552   3.561   5.351  10.375  2.0045  1.6336  0.9792
   74SLPC   O31 6553   3.560   5.258  10.186 -0.2547  0.6771 -0.0351
   74SLPC   C31 6554   3.493   5.337  10.114 -0.3794 -0.3097  0.4915
   74SLPC   O32 6555   3.484   5.459  10.138  0.5349 -0.0581  0.0330
   74SLPC   C32 6556   3.441   5.259   9.989  0.5855 -0.7476  0.3837
   74SLPC   H2X 6557   3.410   5.157  10.018  0.5007 -0.7165  0.4028
   74SLPC   H2Y 6558   3.532   5.249   9.926  1.7067  0.7472  1.6802
   74SLPC   C23 6559   3.894   4.936  10.021  1.0108 -0.6926  0.3463
   74SLPC   H3R 6560   3.853   4.834  10.040 -0.5403  0.0606  1.2757
   74SLPC   H3S 6561   3.982   4.918   9.956  1.5072  0.5708  0.6432
   74SLPC   C24 6562   3.798   5.034   9.951  0.5377 -1.0550  0.2863
   74SLPC   H4R 6563   3.848   5.131   9.930 -2.0219  0.3569  0.2693
   74SLPC   H4S 6564   3.712   5.044  10.020  0.3747 -1.1549  0.1005
   74SLPC   C25 6565   3.742   4.982   9.820  0.8059 -0.3355 -1.2143
   74SLPC   H5R 6566   3.651   5.039   9.789  0.2478  0.1457  1.0713
   74SLPC   H5S 6567   3.710   4.877   9.834 -1.1601  0.4490  0.9782
   74SLPC   C26 6568   3.838   4.998   9.700 -0.3841  0.3097 -0.7777
   74SLPC   H6R 6569   3.926   4.932   9.717 -0.1289  0.7400 -0.4239
   74SLPC   H6S 6570   3.874   5.103   9.696  0.6116  0.0516  0.6654
   74SLPC   C27 6571   3.756   4.964   9.576 -0.1910  0.2339  0.0941
   74SLPC   H7R 6572   3.662   5.024   9.573  0.7567  1.7603 -0.5134
   74SLPC   H7S 6573   3.734   4.856   9.586 -0.3422  0.4151  1.9766
   74SLPC   C28 6574   3.832   4.997   9.441  0.4803 -0.3027  0.4029
   74SLPC   H8R 6575   3.878   5.098   9.446  2.0448 -0.9592 -0.0820
   74SLPC   H8S 6576   3.749   4.996   9.367 -0.1926  0.9459  1.1111
   74SLPC   C29 6577   3.947   4.897   9.404  0.0530  0.3095 -0.4275
   74SLPC   H9R 6578   4.046   4.912   9.451  0.0613 -2.5058  0.6953
   74SLPC  C210 6579   3.941   4.792   9.332 -0.3327 -0.1510  0.4000
   74SLPC  H10R 6580   4.031   4.732   9.309 -0.3842 -0.2217  0.3804
   74SLPC  C211 6581   3.818   4.745   9.258  0.0222  0.0833 -0.8604
   74SLPC  H11R 6582   3.777   4.829   9.199 -1.2074 -0.1333 -0.3478
   74SLPC  H11S 6583   3.743   4.723   9.337  1.1146  0.2703  0.2676
   74SLPC  C212 6584   3.833   4.616   9.173 -0.2544 -0.5491  0.0383
   74SLPC  H12R 6585   3.782   4.526   9.210 -1.6891  0.8685  1.7294
   74SLPC  C213 6586   3.882   4.607   9.050 -0.2033  0.7855 -0.3875
   74SLPC  H13R 6587   3.879   4.509   9.000 -1.4009  0.0123  1.1409
   74SLPC  C214 6588   3.945   4.723   8.978  0.0553 -0.2701 -0.4895
   74SLPC  H14R 6589   3.975   4.795   9.057 -0.0117  0.1446 -0.8351
   74SLPC  H14S 6590   3.865   4.768   8.915  0.5510  0.5505 -0.5497
   74SLPC  C215 6591   4.064   4.685   8.886  0.0343  0.0625  0.0196
   74SLPC  H15R 6592   4.138   4.620   8.937  1.0438 -0.6091 -2.1640
   74SLPC  H15S 6593   4.100   4.790   8.886 -0.3601  0.1978 -0.0940
   74SLPC  C216 6594   4.022   4.632   8.751  0.2255  0.3901 -0.4601
   74SLPC  H16R 6595   3.954   4.704   8.701 -0.7036  1.0272  1.6389
   74SLPC  H16S 6596   3.954   4.545   8.768 -0.8498  1.3764  0.4060
   74SLPC  C217 6597   4.139   4.580   8.666  0.5831 -0.3674 -0.3848
   74SLPC  H17R 6598   4.180   4.488   8.714  0.7712 -0.3935 -0.5943
   74SLPC  H17S 6599   4.218   4.659   8.672 -0.5953  0.8026  0.2924
   74SLPC  C218 6600   4.119   4.557   8.521 -0.3381  0.0697  0.7930
   74SLPC  H18R 6601   4.211   4.509   8.481 -0.1753  0.7089  0.3778
   74SLPC  H18S 6602   4.122   4.657   8.472 -0.1459  0.3420  1.3487
   74SLPC  H18T 6603   4.031   4.492   8.500  2.0543 -2.1500 -3.8572
   74SLPC   C33 6604   3.318   5.328   9.914 -0.1146  0.5363 -0.0743
   74SLPC   H3X 6605   3.335   5.434   9.886 -2.3219  0.4784 -1.8561
   74SLPC   H3Y 6606   3.236   5.337   9.988  1.6307  1.8724  1.8408
   74SLPC   C34 6607   3.275   5.261   9.785 -1.0784  0.4962 -0.0754
   74SLPC   H4X 6608   3.176   5.307   9.767 -0.3545  2.3573  0.4413
   74SLPC   H4Y 6609   3.265   5.153   9.809  1.4982  0.0961 -0.4439
   74SLPC   C35 6610   3.380   5.275   9.672  0.4809  0.0115 -0.3416
   74SLPC   H5X 6611   3.473   5.224   9.703 -1.0617 -1.4927  2.0957
   74SLPC   H5Y 6612   3.413   5.381   9.659  3.2807 -1.0428 -3.2453
   74SLPC   C36 6613   3.332   5.223   9.538  1.0620 -0.1737  1.1536
   74SLPC   H6X 6614   3.241   5.281   9.514  0.9491  0.6962  3.4069
   74SLPC   H6Y 6615   3.316   5.115   9.556  1.9063 -0.5615 -0.2516
   74SLPC   C37 6616   3.441   5.231   9.430 -0.4265  0.4848 -0.3416
   74SLPC   H7X 6617   3.515   5.150   9.445 -0.4872  0.2874 -1.0403
   74SLPC   H7Y 6618   3.485   5.332   9.446 -1.6712  1.0588 -0.3579
   74SLPC   C38 6619   3.389   5.241   9.283 -0.1734 -0.2359 -0.2520
   74SLPC   H8X 6620   3.322   5.330   9.275 -0.5407 -0.2070  2.2587
   74SLPC   H8Y 6621   3.327   5.152   9.259 -0.2545  0.2131 -1.7813
   74SLPC   C39 6622   3.516   5.261   9.192  0.4367  0.7839  0.2936
   74SLPC   H9X 6623   3.586   5.340   9.228  0.4943  0.7530  0.2492
   74SLPC   H9Y 6624   3.473   5.294   9.095  0.1037 -1.3882 -0.3532
   74SLPC  C310 6625   3.598   5.138   9.170  0.0507 -0.2136 -0.9344
   74SLPC  H10X 6626   3.562   5.059   9.239 -1.8672  1.4844  0.1116
   74SLPC  H10Y 6627   3.702   5.154   9.206 -0.2477  0.9596 -0.5523
   74SLPC  C311 6628   3.606   5.082   9.025 -0.2370 -0.8183  0.3654
   74SLPC  H11X 6629   3.683   5.004   9.007  0.2929 -0.4310  0.9222
   74SLPC  H11Y 6630   3.619   5.168   8.956 -1.9702 -2.0683 -1.6312
   74SLPC  C312 6631   3.480   4.997   8.994  0.1875 -0.0272  0.4474
   74SLPC  H12X 6632   3.392   5.064   9.005 -0.2560 -0.6242  0.5949
   74SLPC  H12Y 6633   3.468   4.910   9.062 -1.7394 -0.8443 -0.8567
   74SLPC  C313 6634   3.460   4.933   8.854  0.3343 -0.3074 -0.4830
   74SLPC  H13X 6635   3.372   4.867   8.864  0.4970 -0.3482  0.8189
   74SLPC  H13Y 6636   3.548   4.873   8.824 -0.2872 -1.4138 -0.1220
   74SLPC  C314 6637   3.437   5.042   8.744 -0.2255  0.2001 -0.8009
   74SLPC  H14X 6638   3.522   5.113   8.752  1.7577 -1.9701 -1.3762
   74SLPC  H14Y 6639   3.352   5.108   8.772  0.5340  0.7702  0.2405
   74SLPC  C315 6640   3.420   4.993   8.603 -0.4093  0.0889 -0.5104
   74SLPC  H15X 6641   3.398   5.089   8.552  0.4071  0.3335 -0.4112
   74SLPC  H15Y 6642   3.327   4.932   8.603 -1.2148  1.1998  1.7217
   74SLPC  C316 6643   3.550   4.939   8.533  0.1283 -0.2256 -0.1683
   74SLPC  H16X 6644   3.516   4.893   8.438  1.6317 -0.8555 -0.4237
   74SLPC  H16Y 6645   3.602   4.861   8.593 -0.0123 -1.3670 -1.4892
   74SLPC  C317 6646   3.644   5.049   8.492 -1.0749 -0.3966 -0.4301
   74SLPC  H17X 6647   3.669   5.115   8.578  1.1282 -0.6727 -0.7918
   74SLPC  H17Y 6648   3.585   5.112   8.423 -0.5958 -1.9752 -2.3504
   74SLPC  C318 6649   3.770   5.007   8.415 -0.3749 -0.5610 -0.1540
   74SLPC  H18X 6650   3.833   5.081   8.363  0.3684 -0.9479  0.1803
   74SLPC  H18Y 6651   3.750   4.920   8.350  1.5907 -1.4607  0.3736
   74SLPC  H18Z 6652   3.830   4.951   8.490  1.4825  1.0782 -0.3469
   75SLPC     N 6653   0.706   5.982   6.355  0.8785  0.1883  0.6684
   75SLPC   C13 6654   0.593   5.993   6.453 -0.1342 -0.0924  0.3861
   75SLPC  H13A 6655   0.571   5.896   6.494  0.7997 -0.1850  0.6945
   75SLPC  H13B 6656   0.634   6.048   6.537  2.0225  0.3841 -0.8873
   75SLPC  H13C 6657   0.510   6.048   6.412  0.6085 -0.8146 -2.3185
   75SLPC   C14 6658   0.792   6.110   6.351  0.0155  0.8017 -0.4796
   75SLPC  H14A 6659   0.802   6.146   6.452  3.1507  1.3710 -0.9122
   75SLPC  H14B 6660   0.878   6.089   6.290 -0.9006 -2.1007 -0.9136
   75SLPC  H14C 6661   0.733   6.179   6.292 -0.5505 -0.3694 -1.3159
   75SLPC   C15 6662   0.648   5.965   6.216  0.6999 -0.1927 -0.0567
   75SLPC  H15A 6663   0.730   5.965   6.146  1.9310 -0.5194  1.3332
   75SLPC  H15B 6664   0.589   5.875   6.212  0.0021  0.2992 -2.4352
   75SLPC  H15C 6665   0.580   6.046   6.195  2.4984  1.7107  1.0402
   75SLPC   C12 6666   0.795   5.865   6.381  0.4950  0.0863  0.4006
   75SLPC  H12A 6667   0.883   5.888   6.321  0.0612  0.4272 -0.1214
   75SLPC  H12B 6668   0.737   5.779   6.351 -1.5707  2.0872 -1.7827
   75SLPC   C11 6669   0.849   5.859   6.529  0.1769 -0.4083  0.4387
   75SLPC  H11A 6670   0.841   5.753   6.560 -0.9038 -0.6493 -0.6001
   75SLPC  H11B 6671   0.771   5.904   6.595 -0.9747  0.0214 -1.1755
   75SLPC     P 6672   1.105   5.841   6.555  0.2384  0.1579  0.1953
   75SLPC   O13 6673   1.080   5.712   6.484 -0.4020 -0.5119 -0.2657
   75SLPC   O14 6674   1.215   5.922   6.503  0.6309  1.0536 -0.1167
   75SLPC   O12 6675   0.973   5.928   6.544  0.0354  0.3398 -0.8404
   75SLPC   O11 6676   1.119   5.816   6.708  0.7104  0.1895  0.0630
   75SLPC    C1 6677   1.221   5.728   6.756  0.8432 -0.5057  0.2136
   75SLPC    HA 6678   1.193   5.621   6.750  1.4979 -0.9097  3.0734
   75SLPC    HB 6679   1.312   5.740   6.692 -0.3313  0.7729 -1.3003
   75SLPC    C2 6680   1.287   5.766   6.892 -0.3553  0.3268 -0.7202
   75SLPC    HS 6681   1.364   5.691   6.920  0.7422  1.3529 -0.9090
   75SLPC   O21 6682   1.169   5.778   6.986 -0.0474 -0.5130  0.0516
   75SLPC   C21 6683   1.209   5.743   7.108 -0.0535  0.1762  0.1428
   75SLPC   O22 6684   1.322   5.722   7.137 -0.4417  0.0547  1.0050
   75SLPC   C22 6685   1.082   5.693   7.192  0.3854 -0.0747  0.1817
   75SLPC   H2R 6686   1.061   5.765   7.274  0.1390 -1.3321  1.2573
   75SLPC   H2S 6687   0.998   5.693   7.119 -1.0128 -0.2524  1.7423
   75SLPC    C3 6688   1.369   5.900   6.881  0.3050 -0.4444  0.7411
   75SLPC    HX 6689   1.296   5.970   6.833  0.2278  0.4437  2.0887
   75SLPC    HY 6690   1.445   5.897   6.800  0.3503  1.9379  0.6030
   75SLPC   O31 6691   1.418   5.955   7.006  0.0719 -0.4877  0.2129
   75SLPC   C31 6692   1.537   5.914   7.054  0.6343  0.4765  0.7952
   75SLPC   O32 6693   1.615   5.847   6.991  0.2812  0.0300  0.1309
   75SLPC   C32 6694   1.552   5.968   7.196 -0.4263 -1.5419 -0.1787
   75SLPC   H2X 6695   1.454   5.974   7.249 -1.1334 -2.4009 -1.3390
   75SLPC   H2Y 6696   1.593   6.071   7.190 -1.4171 -1.1831 -1.1502
   75SLPC   C23 6697   1.111   5.556   7.253 -0.2970 -0.0758 -0.0564
   75SLPC   H3R 6698   1.207   5.548   7.308  0.3971  0.7377 -1.1128
   75SLPC   H3S 6699   1.131   5.488   7.167  0.4070  0.9938 -0.7463
   75SLPC   C24 6700   0.998   5.500   7.344 -0.5454  0.4083 -0.6216
   75SLPC   H4R 6701   0.913   5.462   7.284  0.3874 -1.5460 -0.7876
   75SLPC   H4S 6702   0.983   5.574   7.425  1.4393 -0.7949  0.9339
   75SLPC   C25 6703   1.056   5.377   7.423 -0.1805 -1.2242  0.3802
   75SLPC   H5R 6704   1.149   5.400   7.479  1.1165 -4.7402 -0.0905
   75SLPC   H5S 6705   1.097   5.309   7.346 -0.9786 -1.1005 -0.1727
   75SLPC   C26 6706   0.952   5.296   7.495 -0.1801 -0.6583  0.0456
   75SLPC   H6R 6707   0.875   5.264   7.421 -1.4047  1.7311  0.1752
   75SLPC   H6S 6708   0.888   5.347   7.571 -1.1552  0.3553 -1.3947
   75SLPC   C27 6709   1.012   5.168   7.552 -0.1552 -0.0023 -0.1833
   75SLPC   H7R 6710   1.078   5.120   7.476 -2.5894 -0.5689 -2.0612
   75SLPC   H7S 6711   0.939   5.092   7.587  0.3661 -0.6652 -0.5115
   75SLPC   C28 6712   1.095   5.195   7.681  0.9794  0.5994 -0.5985
   75SLPC   H8R 6713   1.014   5.193   7.758  1.0709 -0.9118 -0.5119
   75SLPC   H8S 6714   1.138   5.297   7.674  0.2060  0.8781 -1.3782
   75SLPC   C29 6715   1.200   5.088   7.711  0.6028  0.5384 -0.0174
   75SLPC   H9R 6716   1.231   5.035   7.620 -1.2130 -0.6710  0.0029
   75SLPC  C210 6717   1.246   5.044   7.834 -0.1184  0.2864 -0.2097
   75SLPC  H10R 6718   1.325   4.968   7.835  1.0174  1.4276 -0.3421
   75SLPC  C211 6719   1.202   5.107   7.968 -0.4437 -0.2685  0.1370
   75SLPC  H11R 6720   1.196   5.216   7.951  2.0597 -0.2646 -1.2006
   75SLPC  H11S 6721   1.279   5.076   8.042  0.6375 -0.0631 -0.8624
   75SLPC  C212 6722   1.067   5.052   8.011 -0.3425 -0.0082  0.2701
   75SLPC  H12R 6723   1.019   4.986   7.936 -0.5448 -0.8912  1.1559
   75SLPC  C213 6724   1.017   5.076   8.131 -0.7099 -0.5243  0.3986
   75SLPC  H13R 6725   0.916   5.043   8.159 -1.1170  0.6322  0.3543
   75SLPC  C214 6726   1.086   5.162   8.233 -0.1078  0.2318  0.3387
   75SLPC  H14R 6727   1.006   5.222   8.282 -1.4499 -1.3800  0.1896
   75SLPC  H14S 6728   1.158   5.241   8.201  2.1784 -0.9963  2.1020
   75SLPC  C215 6729   1.167   5.088   8.340 -0.4091 -0.2106  0.5812
   75SLPC  H15R 6730   1.263   5.052   8.296 -0.3640  0.5459  0.0332
   75SLPC  H15S 6731   1.120   4.991   8.366  0.3549 -0.9824 -0.7703
   75SLPC  C216 6732   1.200   5.184   8.458  0.2306  0.2810  0.1002
   75SLPC  H16R 6733   1.112   5.187   8.526  0.2935  0.4604  0.1724
   75SLPC  H16S 6734   1.214   5.289   8.427 -0.1122  0.4293  0.4438
   75SLPC  C217 6735   1.319   5.136   8.550 -0.0892  0.5881 -0.8402
   75SLPC  H17R 6736   1.400   5.100   8.483  0.8522 -0.7984  0.9528
   75SLPC  H17S 6737   1.274   5.051   8.606  2.8397  0.5914  1.7426
   75SLPC  C218 6738   1.383   5.245   8.638  0.3283  0.6652  0.1200
   75SLPC  H18R 6739   1.305   5.294   8.701 -0.5070  0.0606 -0.4328
   75SLPC  H18S 6740   1.428   5.314   8.563  0.8792 -0.1676 -0.3283
   75SLPC  H18T 6741   1.456   5.204   8.711 -0.5410 -1.4320 -0.1181
   75SLPC   C33 6742   1.639   5.872   7.283 -0.1060 -0.4970 -0.2928
   75SLPC   H3X 6743   1.605   5.768   7.263  0.9436 -0.9759  0.3307
   75SLPC   H3Y 6744   1.743   5.873   7.243 -0.2909 -0.3902 -0.7797
   75SLPC   C34 6745   1.650   5.909   7.430  0.0145  0.4333  0.3638
   75SLPC   H4X 6746   1.704   6.004   7.448 -0.8870  1.3203 -1.3204
   75SLPC   H4Y 6747   1.709   5.825   7.471  0.4810 -1.5390 -3.7618
   75SLPC   C35 6748   1.520   5.914   7.517 -0.2471  1.0294 -0.7233
   75SLPC   H5X 6749   1.455   5.999   7.486 -3.4573  0.0373  2.5338
   75SLPC   H5Y 6750   1.545   5.937   7.622  0.2644 -1.0810 -0.3302
   75SLPC   C36 6751   1.434   5.788   7.521  0.4569  0.6220  0.2596
   75SLPC   H6X 6752   1.490   5.693   7.532 -1.1221 -0.1347  2.7692
   75SLPC   H6Y 6753   1.377   5.784   7.426 -1.7970  2.7999  1.3938
   75SLPC   C37 6754   1.323   5.779   7.622 -0.3080 -0.0161  0.2114
   75SLPC   H7X 6755   1.247   5.856   7.597  0.9964  0.8176 -1.3928
   75SLPC   H7Y 6756   1.362   5.806   7.723 -0.3197  0.2899  0.1364
   75SLPC   C38 6757   1.268   5.640   7.645  0.1706 -0.2417 -0.9600
   75SLPC   H8X 6758   1.361   5.580   7.657 -1.0197 -1.5439  4.3337
   75SLPC   H8Y 6759   1.203   5.608   7.561  1.1142  0.4195 -1.9717
   75SLPC   C39 6760   1.213   5.626   7.783  0.8195 -0.0890  0.0155
   75SLPC   H9X 6761   1.263   5.694   7.855 -2.2463  0.3849  1.9068
   75SLPC   H9Y 6762   1.221   5.520   7.817 -1.0377 -0.1338  0.4465
   75SLPC  C310 6763   1.062   5.660   7.793 -0.2366  0.4272  0.3881
   75SLPC  H10X 6764   0.998   5.600   7.726  0.2830  1.1892 -0.8276
   75SLPC  H10Y 6765   1.068   5.762   7.749 -0.2567  0.5401  0.6464
   75SLPC  C311 6766   1.003   5.641   7.937  0.0103 -0.1305  0.2402
   75SLPC  H11X 6767   0.905   5.692   7.938 -1.1903 -2.2709 -0.6059
   75SLPC  H11Y 6768   1.059   5.677   8.026 -1.9140  1.3274  0.9382
   75SLPC  C312 6769   0.975   5.494   7.946  0.2568  0.2375 -0.4698
   75SLPC  H12X 6770   1.067   5.436   7.970 -0.7113 -1.4503 -0.6319
   75SLPC  H12Y 6771   0.927   5.449   7.856 -3.0883 -0.3369  1.4121
   75SLPC  C313 6772   0.880   5.449   8.060 -0.1359 -0.4074  0.4173
   75SLPC  H13X 6773   0.930   5.473   8.156  0.1437 -2.9488  0.9933
   75SLPC  H13Y 6774   0.871   5.338   8.056  0.5703 -0.4718  0.3862
   75SLPC  C314 6775   0.738   5.509   8.047  0.5817  0.3021  0.1091
   75SLPC  H14X 6776   0.698   5.485   7.946  2.3091  0.2666 -0.6078
   75SLPC  H14Y 6777   0.739   5.620   8.051  0.9882  0.3154 -0.1794
   75SLPC  C315 6778   0.646   5.466   8.158  0.3908 -0.7390  0.1654
   75SLPC  H15X 6779   0.681   5.526   8.245  0.3325  1.0980 -1.0175
   75SLPC  H15Y 6780   0.659   5.357   8.171  0.1959 -0.8173 -0.2707
   75SLPC  C316 6781   0.500   5.511   8.122 -0.8008 -0.1528 -0.2967
   75SLPC  H16X 6782   0.464   5.430   8.056  0.7308 -1.1653  0.0274
   75SLPC  H16Y 6783   0.508   5.611   8.075  0.4675  0.2530  0.6985
   75SLPC  C317 6784   0.409   5.515   8.240  0.2980  0.4327 -0.0225
   75SLPC  H17X 6785   0.312   5.540   8.193  1.4597  0.6267 -2.5098
   75SLPC  H17Y 6786   0.446   5.594   8.309  0.6660 -2.5385  3.5378
   75SLPC  C318 6787   0.381   5.384   8.323 -0.1488  0.2617  0.0186
   75SLPC  H18X 6788   0.347   5.301   8.257  1.2057 -0.7619  0.5609
   75SLPC  H18Y 6789   0.314   5.400   8.410 -0.1236  0.1215  0.0638
   75SLPC  H18Z 6790   0.476   5.339   8.360 -1.6068 -1.6814  1.6097
   76SLPC     N 6791   3.881   4.639   6.223 -0.0405 -0.1861 -0.0347
   76SLPC   C13 6792   3.862   4.786   6.251 -0.7536  0.0259  0.1424
   76SLPC  H13A 6793   3.786   4.832   6.191 -3.2710 -2.6124  1.0629
   76SLPC  H13B 6794   3.838   4.806   6.354 -1.3606  3.2790 -0.5223
   76SLPC  H13C 6795   3.962   4.826   6.237 -0.8416 -0.4832 -2.3798
   76SLPC   C14 6796   3.996   4.590   6.310 -0.5051  0.5329  0.4229
   76SLPC  H14A 6797   3.952   4.572   6.407 -0.8864 -1.0550 -0.0158
   76SLPC  H14B 6798   4.037   4.501   6.264 -0.1681  0.1125  1.4891
   76SLPC  H14C 6799   4.075   4.664   6.313 -0.8910  0.9233  1.2582
   76SLPC   C15 6800   3.918   4.614   6.084 -0.2737  0.2511  0.4287
   76SLPC  H15A 6801   4.000   4.670   6.041 -1.7711  1.2736 -1.2147
   76SLPC  H15B 6802   3.938   4.508   6.078  4.0080  0.9483 -2.1109
   76SLPC  H15C 6803   3.839   4.650   6.020 -0.0378  0.9974  0.5536
   76SLPC   C12 6804   3.748   4.557   6.250 -0.2642  0.5434 -0.3544
   76SLPC  H12A 6805   3.769   4.454   6.228  3.0761  1.3256 -1.4445
   76SLPC  H12B 6806   3.669   4.598   6.188 -0.4944  1.4210  0.4902
   76SLPC   C11 6807   3.701   4.576   6.398 -0.0848 -0.1431 -0.2179
   76SLPC  H11A 6808   3.781   4.575   6.475  0.0564  1.3965 -0.3076
   76SLPC  H11B 6809   3.636   4.489   6.419 -2.3904  2.0138  2.4873
   76SLPC     P 6810   3.481   4.709   6.354 -0.3657  0.0486 -0.2300
   76SLPC   O13 6811   3.429   4.844   6.387  0.1613  0.5824  0.8308
   76SLPC   O14 6812   3.479   4.677   6.210 -0.3846  0.1650 -0.3781
   76SLPC   O12 6813   3.628   4.699   6.409  0.3161  0.1787 -0.5203
   76SLPC   O11 6814   3.399   4.607   6.438  0.3490 -0.1048  0.3692
   76SLPC    C1 6815   3.418   4.592   6.577 -0.1975 -0.1326  0.3826
   76SLPC    HA 6816   3.385   4.493   6.614  0.2264  0.1963  1.6671
   76SLPC    HB 6817   3.525   4.588   6.605 -0.1256 -0.4874  0.0734
   76SLPC    C2 6818   3.346   4.695   6.657  0.3371  0.6082  0.5864
   76SLPC    HS 6819   3.408   4.787   6.662  0.6997  0.3326  1.3161
   76SLPC   O21 6820   3.320   4.639   6.788 -0.5589 -0.8178 -0.0896
   76SLPC   C21 6821   3.428   4.637   6.868  0.3402  1.0451  0.0596
   76SLPC   O22 6822   3.532   4.686   6.840 -0.4067 -0.2306 -0.0977
   76SLPC   C22 6823   3.381   4.567   7.004 -0.5182  0.3974 -0.7708
   76SLPC   H2R 6824   3.324   4.638   7.068 -0.7180 -1.0490  0.7360
   76SLPC   H2S 6825   3.322   4.477   6.979  0.4594 -0.2652 -0.7522
   76SLPC    C3 6826   3.210   4.743   6.606  0.2460 -0.0534  0.1061
   76SLPC    HX 6827   3.152   4.657   6.567  0.3476 -0.4723  0.8643
   76SLPC    HY 6828   3.233   4.810   6.520  0.7472 -1.1169 -0.6119
   76SLPC   O31 6829   3.136   4.811   6.713  0.1600  0.2240  0.5418
   76SLPC   C31 6830   3.049   4.914   6.675  0.0404  0.1486  0.2644
   76SLPC   O32 6831   3.036   4.947   6.560  0.0486 -0.1618  0.2101
   76SLPC   C32 6832   2.987   4.984   6.800  0.4590  0.4203  0.4439
   76SLPC   H2X 6833   3.025   5.088   6.794  1.6653 -0.0486 -0.3742
   76SLPC   H2Y 6834   3.016   4.925   6.890  0.5515 -0.2213  0.0002
   76SLPC   C23 6835   3.503   4.534   7.088  0.2715 -0.1126 -0.6855
   76SLPC   H3R 6836   3.546   4.626   7.134 -0.8749 -0.5665  1.4548
   76SLPC   H3S 6837   3.588   4.482   7.040  0.1277 -2.2944  1.2317
   76SLPC   C24 6838   3.464   4.443   7.206  0.1222 -1.2247 -0.5883
   76SLPC   H4R 6839   3.430   4.343   7.171 -1.3536 -1.3023  0.9256
   76SLPC   H4S 6840   3.391   4.498   7.269  2.1370 -0.1767  0.9323
   76SLPC   C25 6841   3.576   4.423   7.307 -0.3572  1.0807 -0.7682
   76SLPC   H5R 6842   3.625   4.522   7.318  1.2124  0.3288 -0.6380
   76SLPC   H5S 6843   3.642   4.344   7.266 -1.8860 -1.1859  0.8443
   76SLPC   C26 6844   3.515   4.361   7.437  0.7093 -0.1974  0.3412
   76SLPC   H6R 6845   3.455   4.270   7.416 -0.3655  0.0780  1.9860
   76SLPC   H6S 6846   3.444   4.437   7.477 -0.3271 -1.5396  1.1768
   76SLPC   C27 6847   3.618   4.329   7.541 -0.8894  0.4635 -0.0824
   76SLPC   H7R 6848   3.664   4.428   7.560 -1.0672  0.8287 -1.4330
   76SLPC   H7S 6849   3.705   4.276   7.497 -0.0971  1.2266  0.5307
   76SLPC   C28 6850   3.568   4.266   7.675  0.6517  0.1013  0.3174
   76SLPC   H8R 6851   3.500   4.182   7.650 -1.7018  1.7915  0.6877
   76SLPC   H8S 6852   3.665   4.240   7.723  1.2813  1.0929 -0.3653
   76SLPC   C29 6853   3.480   4.363   7.758  0.0134  0.3950  0.1798
   76SLPC   H9R 6854   3.371   4.354   7.746 -0.0749  0.9996  0.4650
   76SLPC  C210 6855   3.537   4.448   7.853 -0.7711 -0.1917  0.3284
   76SLPC  H10R 6856   3.471   4.520   7.905  1.5087  1.1330  1.5307
   76SLPC  C211 6857   3.683   4.464   7.889 -0.2088  0.9283 -0.0753
   76SLPC  H11R 6858   3.752   4.383   7.855 -2.0364 -1.9226  2.4198
   76SLPC  H11S 6859   3.686   4.458   8.000 -1.3865  1.2587 -0.0136
   76SLPC  C212 6860   3.731   4.599   7.839  0.1589  0.3698  0.5799
   76SLPC  H12R 6861   3.770   4.597   7.736 -1.2613 -0.4078  0.0228
   76SLPC  C213 6862   3.728   4.713   7.906 -0.3508 -0.8370 -0.5361
   76SLPC  H13R 6863   3.770   4.808   7.869 -1.5491  1.1522  2.6912
   76SLPC  C214 6864   3.684   4.733   8.055 -0.2664  0.8198 -0.0466
   76SLPC  H14R 6865   3.590   4.676   8.069 -0.8397  1.5117 -0.9377
   76SLPC  H14S 6866   3.650   4.838   8.069 -0.8209  0.7774 -0.9450
   76SLPC  C215 6867   3.785   4.685   8.160 -0.2825 -0.4192 -0.7148
   76SLPC  H15R 6868   3.809   4.576   8.153  0.4696 -0.4183  1.3646
   76SLPC  H15S 6869   3.745   4.706   8.261  2.0334 -0.1941  0.2056
   76SLPC  C216 6870   3.913   4.769   8.159 -0.1040 -0.8170 -0.3004
   76SLPC  H16R 6871   3.898   4.877   8.180  0.2195 -0.8382  0.0637
   76SLPC  H16S 6872   3.936   4.766   8.051  0.3712 -3.4798 -0.1887
   76SLPC  C217 6873   4.026   4.720   8.245  0.2960 -0.6437 -0.0762
   76SLPC  H17R 6874   4.054   4.615   8.223  2.0595 -0.0057 -1.1129
   76SLPC  H17S 6875   3.988   4.725   8.349 -2.0589  3.8007 -0.9011
   76SLPC  C218 6876   4.147   4.809   8.225 -0.4985 -0.0023 -0.1311
   76SLPC  H18R 6877   4.122   4.904   8.277  0.3631 -0.6883  1.6295
   76SLPC  H18S 6878   4.171   4.818   8.117 -0.4357  0.6206 -0.0731
   76SLPC  H18T 6879   4.240   4.772   8.274  0.0697  1.4178 -0.0815
   76SLPC   C33 6880   2.833   4.978   6.785 -0.1925  0.6847 -0.1596
   76SLPC   H3X 6881   2.795   4.985   6.680 -1.2406 -1.7711 -0.0206
   76SLPC   H3Y 6882   2.790   5.070   6.831  2.8595  2.5034 -0.6934
   76SLPC   C34 6883   2.770   4.857   6.852  0.6605 -0.6914  0.2582
   76SLPC   H4X 6884   2.802   4.761   6.806  2.1229 -0.6711  1.1776
   76SLPC   H4Y 6885   2.662   4.877   6.838  0.6525 -1.4021 -0.8380
   76SLPC   C35 6886   2.757   4.858   7.007 -0.1349  0.4195 -0.1154
   76SLPC   H5X 6887   2.691   4.943   7.033 -1.5342 -1.0874  1.5952
   76SLPC   H5Y 6888   2.855   4.858   7.059  0.0181  0.7173 -0.4046
   76SLPC   C36 6889   2.665   4.742   7.057 -0.2459  0.3715  0.6859
   76SLPC   H6X 6890   2.710   4.659   6.998 -0.5755  1.4549 -1.1744
   76SLPC   H6Y 6891   2.564   4.739   7.012  0.5799 -0.0921 -1.2495
   76SLPC   C37 6892   2.656   4.717   7.209 -0.7420  0.9370 -0.0987
   76SLPC   H7X 6893   2.741   4.657   7.248 -1.4677  0.6933  1.1436
   76SLPC   H7Y 6894   2.568   4.652   7.223  0.2347 -0.4575 -0.2380
   76SLPC   C38 6895   2.669   4.840   7.307  0.3067  1.0001 -0.8543
   76SLPC   H8X 6896   2.575   4.899   7.300 -0.1822  0.1413 -1.7982
   76SLPC   H8Y 6897   2.762   4.893   7.278  1.2676 -0.2226 -0.0963
   76SLPC   C39 6898   2.695   4.794   7.451  1.0049 -0.6194 -0.1344
   76SLPC   H9X 6899   2.777   4.718   7.446  0.7358 -0.9361  0.2282
   76SLPC   H9Y 6900   2.614   4.728   7.487  1.3694 -1.5023 -0.8796
   76SLPC  C310 6901   2.732   4.914   7.537 -0.0137 -0.4278 -0.1909
   76SLPC  H10X 6902   2.668   5.003   7.522 -0.8536 -0.2097  3.6676
   76SLPC  H10Y 6903   2.827   4.954   7.496 -0.4214  1.5842  0.6893
   76SLPC  C311 6904   2.740   4.897   7.693  0.1177  0.8855  0.6563
   76SLPC  H11X 6905   2.819   4.820   7.705 -1.6026 -1.5686 -2.2168
   76SLPC  H11Y 6906   2.641   4.850   7.715  0.1799 -0.5994 -1.8673
   76SLPC  C312 6907   2.780   5.018   7.767  0.4670  0.4512 -0.5341
   76SLPC  H12X 6908   2.717   5.105   7.738  0.9532  0.1018 -2.8779
   76SLPC  H12Y 6909   2.887   5.046   7.751  0.9829 -1.8476 -1.4260
   76SLPC  C313 6910   2.767   4.987   7.916  0.4297  0.0715 -0.2406
   76SLPC  H13X 6911   2.785   4.878   7.926  1.6654  0.2792  0.0351
   76SLPC  H13Y 6912   2.665   5.013   7.952  1.6374  2.5193  1.7526
   76SLPC  C314 6913   2.866   5.056   8.002  0.6832 -0.8604 -0.0382
   76SLPC  H14X 6914   2.858   5.165   7.981  0.3682 -1.1129 -1.2966
   76SLPC  H14Y 6915   2.970   5.027   7.977  0.5415 -1.9486  0.5680
   76SLPC  C315 6916   2.845   5.039   8.158 -1.1743  0.4259  0.6745
   76SLPC  H15X 6917   2.820   4.936   8.193 -1.0207  0.5462  1.1422
   76SLPC  H15Y 6918   2.763   5.105   8.195 -1.2325  1.5124 -1.2905
   76SLPC  C316 6919   2.966   5.086   8.243  0.0588  0.0145 -0.1996
   76SLPC  H16X 6920   2.973   5.193   8.214  1.2878 -0.5006 -1.9924
   76SLPC  H16Y 6921   3.055   5.048   8.188  0.6941  0.7906  0.2643
   76SLPC  C317 6922   2.943   5.070   8.394  0.0307  0.0065 -0.3811
   76SLPC  H17X 6923   2.920   4.963   8.413 -0.2885  0.2471  0.6664
   76SLPC  H17Y 6924   2.858   5.132   8.430  0.5969  1.5465 -1.5641
   76SLPC  C318 6925   3.067   5.101   8.484  0.0574 -0.3302  0.1732
   76SLPC  H18X 6926   3.096   5.208   8.486 -0.8384 -0.0829  0.2714
   76SLPC  H18Y 6927   3.161   5.052   8.452 -0.5475 -2.7415  1.8340
   76SLPC  H18Z 6928   3.054   5.062   8.587 -0.3541 -2.9232 -0.7960
   77SLPC     N 6929   5.678   6.269   6.238  0.6038 -0.4027  0.1816
   77SLPC   C13 6930   5.600   6.149   6.260 -0.5193 -0.3131  0.6456
   77SLPC  H13A 6931   5.654   6.070   6.310  0.3078  0.1652  0.5227
   77SLPC  H13B 6932   5.510   6.169   6.317 -1.9437  1.8231 -2.1183
   77SLPC  H13C 6933   5.561   6.112   6.166 -2.3774  0.2548  1.1414
   77SLPC   C14 6934   5.584   6.373   6.179 -0.4863  0.6382 -0.8839
   77SLPC  H14A 6935   5.636   6.462   6.148  0.9782 -0.1257 -0.6849
   77SLPC  H14B 6936   5.541   6.337   6.086  0.0097  0.7675 -1.1657
   77SLPC  H14C 6937   5.509   6.402   6.251  0.8896 -0.1200  0.9393
   77SLPC   C15 6938   5.767   6.245   6.122 -0.2214 -0.1717  0.2315
   77SLPC  H15A 6939   5.835   6.162   6.136  1.2470  0.9144 -0.2356
   77SLPC  H15B 6940   5.702   6.223   6.038  0.6250  1.9269 -1.0545
   77SLPC  H15C 6941   5.828   6.329   6.093  1.0482 -1.1879 -0.1275
   77SLPC   C12 6942   5.748   6.318   6.363 -0.2408  1.1252 -0.0475
   77SLPC  H12A 6943   5.668   6.334   6.433  0.0705 -4.1363  1.9008
   77SLPC  H12B 6944   5.804   6.407   6.337 -0.1550  0.4502 -2.4547
   77SLPC   C11 6945   5.842   6.218   6.428  0.9003  0.3609 -0.0283
   77SLPC  H11A 6946   5.920   6.277   6.481  0.3407  1.0033  0.1011
   77SLPC  H11B 6947   5.885   6.151   6.350  2.6703  0.1707  1.0496
   77SLPC     P 6948   5.744   6.183   6.658  0.0945 -0.2892 -0.3776
   77SLPC   O13 6949   5.639   6.294   6.658 -0.2243  0.9186  0.2076
   77SLPC   O14 6950   5.717   6.071   6.751 -0.2667 -0.3033  0.8421
   77SLPC   O12 6951   5.769   6.128   6.514 -0.1639 -0.6898 -0.2867
   77SLPC   O11 6952   5.880   6.243   6.700 -0.2549  0.4406 -0.0780
   77SLPC    C1 6953   5.995   6.166   6.730 -0.3814 -0.0950 -0.5786
   77SLPC    HA 6954   5.970   6.068   6.775  2.4050  0.6069  3.0139
   77SLPC    HB 6955   6.057   6.142   6.641  0.1496  0.6619 -0.4270
   77SLPC    C2 6956   6.076   6.248   6.834 -0.4514 -0.3914  0.0050
   77SLPC    HS 6957   6.178   6.203   6.837 -0.1650  0.2799  2.3061
   77SLPC   O21 6958   6.001   6.238   6.958 -0.5772 -0.7026 -0.0124
   77SLPC   C21 6959   6.080   6.253   7.066 -0.1150  0.8836  0.2506
   77SLPC   O22 6960   6.197   6.228   7.066 -0.3390  0.1060  0.3647
   77SLPC   C22 6961   5.997   6.289   7.185 -0.7197  0.2343 -0.0386
   77SLPC   H2R 6962   6.035   6.386   7.223 -0.5664  0.2732 -0.2899
   77SLPC   H2S 6963   5.893   6.303   7.148 -0.3912  0.3395 -0.9381
   77SLPC    C3 6964   6.091   6.396   6.790  0.3543  0.0807  0.0861
   77SLPC    HX 6965   5.985   6.428   6.803 -0.1672 -1.9839  1.4025
   77SLPC    HY 6966   6.116   6.391   6.682  1.4699  0.4100  0.3157
   77SLPC   O31 6967   6.177   6.483   6.867  0.4978 -0.4039  0.4172
   77SLPC   C31 6968   6.309   6.484   6.849 -0.2153 -0.3284  1.3291
   77SLPC   O32 6969   6.364   6.430   6.755 -0.1230  0.5029 -0.0202
   77SLPC   C32 6970   6.392   6.548   6.961 -0.0756  0.0612 -0.1647
   77SLPC   H2X 6971   6.338   6.525   7.055  0.6375  2.5188  0.9424
   77SLPC   H2Y 6972   6.400   6.658   6.944 -1.2675  0.1326 -0.3282
   77SLPC   C23 6973   6.020   6.178   7.292 -0.1205 -0.4803  0.2910
   77SLPC   H3R 6974   5.998   6.082   7.242  1.1234 -1.0076  0.7188
   77SLPC   H3S 6975   5.943   6.205   7.367 -0.8259 -0.7279 -0.3313
   77SLPC   C24 6976   6.150   6.168   7.370  0.4893  0.5524  0.8543
   77SLPC   H4R 6977   6.194   6.264   7.405 -0.3351  1.1897  0.1902
   77SLPC   H4S 6978   6.221   6.139   7.290 -1.2630  0.7551 -0.8623
   77SLPC   C25 6979   6.147   6.048   7.461 -0.4182 -0.0878 -0.5399
   77SLPC   H5R 6980   6.120   5.955   7.407  1.5233 -1.6586  1.0575
   77SLPC   H5S 6981   6.068   6.066   7.538 -0.0506  1.0415 -0.4004
   77SLPC   C26 6982   6.276   6.029   7.537  0.4432 -0.5473 -0.1932
   77SLPC   H6R 6983   6.305   6.121   7.591 -0.3843  0.1161 -0.8437
   77SLPC   H6S 6984   6.361   6.023   7.466  0.0855  0.8889 -0.7734
   77SLPC   C27 6985   6.272   5.912   7.641  0.2229 -0.1512  0.4146
   77SLPC   H7R 6986   6.286   5.818   7.584 -2.7271  0.3317 -1.2920
   77SLPC   H7S 6987   6.170   5.914   7.685  1.2986  1.9071  3.0676
   77SLPC   C28 6988   6.384   5.936   7.744  0.0096  0.7012 -0.0029
   77SLPC   H8R 6989   6.465   5.980   7.682  0.9892 -0.4086  0.4577
   77SLPC   H8S 6990   6.414   5.838   7.785 -0.7472  0.2688 -0.4506
   77SLPC   C29 6991   6.337   6.028   7.854 -0.1219  0.1609 -0.5143
   77SLPC   H9R 6992   6.234   6.063   7.833 -0.1167 -0.4767 -1.7060
   77SLPC  C210 6993   6.401   6.072   7.962  1.3524 -0.0978 -0.0910
   77SLPC  H10R 6994   6.351   6.143   8.029  0.2845 -1.0109  0.1197
   77SLPC  C211 6995   6.539   6.037   8.004  0.0239  0.5768 -0.0709
   77SLPC  H11R 6996   6.550   6.079   8.106 -2.4843 -2.4198  1.5890
   77SLPC  H11S 6997   6.616   6.088   7.941  0.9253 -0.5899  0.0503
   77SLPC  C212 6998   6.573   5.890   7.999  0.1361  0.2517  0.5222
   77SLPC  H12R 6999   6.609   5.855   7.901 -2.1522 -0.7100 -0.0667
   77SLPC  C213 7000   6.578   5.798   8.101 -0.6528 -0.1364 -0.2141
   77SLPC  H13R 7001   6.586   5.691   8.076  0.5412 -0.2205  0.4329
   77SLPC  C214 7002   6.547   5.825   8.241 -1.1418  0.2680 -1.0528
   77SLPC  H14R 7003   6.525   5.933   8.255 -0.4323  0.1216  2.0929
   77SLPC  H14S 7004   6.636   5.809   8.306  0.2445  2.9373 -2.1566
   77SLPC  C215 7005   6.431   5.739   8.296 -0.0593 -0.2541  0.4006
   77SLPC  H15R 7006   6.437   5.632   8.265  0.5836 -0.3744  0.9365
   77SLPC  H15S 7007   6.339   5.777   8.245  0.8949 -1.1977 -2.2062
   77SLPC  C216 7008   6.427   5.754   8.447  0.2602  0.1639  0.4627
   77SLPC  H16R 7009   6.435   5.864   8.459 -1.6131  0.4383 -0.4724
   77SLPC  H16S 7010   6.520   5.713   8.493  0.5331 -2.0202 -1.8148
   77SLPC  C217 7011   6.299   5.713   8.524 -0.2674  0.8744  0.4121
   77SLPC  H17R 7012   6.211   5.754   8.470  0.3562  1.8422  0.1031
   77SLPC  H17S 7013   6.290   5.758   8.625 -2.6682  0.7516  0.3103
   77SLPC  C218 7014   6.274   5.565   8.546 -0.5823 -0.5112 -0.0345
   77SLPC  H18R 7015   6.278   5.517   8.446  1.9033 -0.5077  0.0060
   77SLPC  H18S 7016   6.175   5.536   8.590 -0.4208 -1.8716 -0.5270
   77SLPC  H18T 7017   6.350   5.517   8.611 -1.3254 -0.2620  1.0701
   77SLPC   C33 7018   6.537   6.492   6.976 -0.2193 -0.8334  0.6957
   77SLPC   H3X 7019   6.601   6.557   7.040 -2.9105  2.6956  0.0629
   77SLPC   H3Y 7020   6.590   6.487   6.879 -0.4572  2.2865  0.3255
   77SLPC   C34 7021   6.547   6.343   7.037 -0.0718 -0.1475  0.9969
   77SLPC   H4X 7022   6.649   6.304   7.018  1.1596  2.4577  1.8320
   77SLPC   H4Y 7023   6.479   6.284   6.973 -0.0485  0.4936  0.3718
   77SLPC   C35 7024   6.500   6.328   7.180 -0.3735 -0.0242 -0.2019
   77SLPC   H5X 7025   6.519   6.222   7.209  1.6573  0.0173 -1.2065
   77SLPC   H5Y 7026   6.389   6.332   7.193 -0.1618  0.1780  1.9332
   77SLPC   C36 7027   6.570   6.418   7.279 -0.0217  0.9500 -0.1160
   77SLPC   H6X 7028   6.514   6.515   7.277  1.4196  1.8053 -1.8839
   77SLPC   H6Y 7029   6.678   6.433   7.256  0.2257 -0.0768  0.3147
   77SLPC   C37 7030   6.559   6.355   7.417  0.1499  0.2305 -0.1595
   77SLPC   H7X 7031   6.612   6.259   7.435 -0.1484  0.4975  2.5074
   77SLPC   H7Y 7032   6.451   6.343   7.439  0.2700 -1.7944 -0.5016
   77SLPC   C38 7033   6.613   6.453   7.528  0.0301  0.2701 -0.0166
   77SLPC   H8X 7034   6.566   6.552   7.516  0.4945  0.5567  0.4874
   77SLPC   H8Y 7035   6.724   6.457   7.522 -0.0878  3.2364 -2.4728
   77SLPC   C39 7036   6.583   6.401   7.666  0.7098  0.8947 -1.1315
   77SLPC   H9X 7037   6.624   6.305   7.703  0.1076  1.5771  1.4671
   77SLPC   H9Y 7038   6.473   6.383   7.662  0.6056  0.1589  2.4137
   77SLPC  C310 7039   6.628   6.496   7.779  0.0493 -0.0908  0.2775
   77SLPC  H10X 7040   6.578   6.592   7.757 -1.1107 -1.2057 -2.5249
   77SLPC  H10Y 7041   6.739   6.501   7.773  0.0631 -0.4010  0.2142
   77SLPC  C311 7042   6.572   6.456   7.913 -0.0884  0.2951 -0.3212
   77SLPC  H11X 7043   6.582   6.348   7.933 -2.2222  0.3812  1.5954
   77SLPC  H11Y 7044   6.463   6.473   7.925  0.0626 -0.4629  3.4009
   77SLPC  C312 7045   6.628   6.537   8.034 -0.5189 -0.3625 -0.1647
   77SLPC  H12X 7046   6.639   6.642   8.001 -1.7076  0.4046  1.7007
   77SLPC  H12Y 7047   6.722   6.496   8.077 -1.0963  0.3125  1.8720
   77SLPC  C313 7048   6.531   6.553   8.153  0.3250 -0.2528 -0.0500
   77SLPC  H13X 7049   6.459   6.621   8.103  0.2117 -0.9596 -0.8592
   77SLPC  H13Y 7050   6.570   6.586   8.252 -1.1703  1.2932  0.0689
   77SLPC  C314 7051   6.463   6.422   8.189  0.2144 -0.3503  0.0466
   77SLPC  H14X 7052   6.527   6.365   8.259  0.1860  0.4687  0.7543
   77SLPC  H14Y 7053   6.425   6.354   8.110  1.7661 -2.2683  0.8649
   77SLPC  C315 7054   6.348   6.459   8.285  0.5618  0.2084 -0.2618
   77SLPC  H15X 7055   6.270   6.500   8.217 -1.8182  0.0130  2.1699
   77SLPC  H15Y 7056   6.381   6.534   8.360 -0.3039 -0.3071  0.6570
   77SLPC  C316 7057   6.271   6.342   8.359 -0.4363 -0.1847 -0.8263
   77SLPC  H16X 7058   6.200   6.290   8.291 -2.9750  0.5600  1.0837
   77SLPC  H16Y 7059   6.206   6.383   8.440  1.1389  1.1148 -0.1735
   77SLPC  C317 7060   6.365   6.242   8.425  0.3973 -0.1936 -0.1216
   77SLPC  H17X 7061   6.457   6.284   8.471 -1.1271  1.7772  1.3136
   77SLPC  H17Y 7062   6.394   6.175   8.342 -0.5247 -1.7378  0.7541
   77SLPC  C318 7063   6.295   6.144   8.518 -0.7758 -0.3800  0.5515
   77SLPC  H18X 7064   6.230   6.196   8.591 -1.9592  0.1602 -0.8330
   77SLPC  H18Y 7065   6.374   6.081   8.564 -1.7420  0.2592  3.2523
   77SLPC  H18Z 7066   6.225   6.084   8.455 -0.1243  0.1484 -0.7166
   78SLPC     N 7067   2.102   5.274   6.171  0.0394  0.6762  0.1705
   78SLPC   C13 7068   1.975   5.255   6.103 -0.0259  0.5696  0.1317
   78SLPC  H13A 7069   1.897   5.229   6.173 -1.3113  0.6273 -1.2511
   78SLPC  H13B 7070   1.939   5.342   6.050 -2.7061 -1.8019 -2.2574
   78SLPC  H13C 7071   1.980   5.184   6.022 -0.4498 -0.4820  0.9923
   78SLPC   C14 7072   2.203   5.324   6.070  0.4658 -0.3811 -0.1977
   78SLPC  H14A 7073   2.301   5.346   6.108  0.3918  0.1492 -0.3150
   78SLPC  H14B 7074   2.222   5.245   5.999  2.0171  1.1137 -1.5285
   78SLPC  H14C 7075   2.166   5.411   6.018  0.0728 -0.5661 -0.2396
   78SLPC   C15 7076   2.142   5.141   6.230 -0.1183  0.3034  0.0380
   78SLPC  H15A 7077   2.167   5.072   6.150  2.5861  0.5390  0.5744
   78SLPC  H15B 7078   2.238   5.147   6.281  0.3884 -0.6014 -0.7750
   78SLPC  H15C 7079   2.066   5.098   6.293  0.0390  0.5936  0.4276
   78SLPC   C12 7080   2.090   5.377   6.282 -1.0096  0.0017 -0.5745
   78SLPC  H12A 7081   2.009   5.355   6.350 -0.8606 -0.3591 -0.5110
   78SLPC  H12B 7082   2.078   5.477   6.243 -2.5612  1.1607  2.5182
   78SLPC   C11 7083   2.215   5.383   6.376 -0.3336 -0.1935 -0.6033
   78SLPC  H11A 7084   2.220   5.296   6.445 -0.9295 -0.7207 -1.2218
   78SLPC  H11B 7085   2.187   5.459   6.453  1.4915 -2.7829  2.9364
   78SLPC     P 7086   2.460   5.329   6.333 -0.2976  0.1357  0.2940
   78SLPC   O13 7087   2.441   5.183   6.320  0.2450 -0.3938 -0.1282
   78SLPC   O14 7088   2.563   5.378   6.237  0.2043 -0.3885 -0.2841
   78SLPC   O12 7089   2.339   5.415   6.315 -0.4468 -0.4589  0.0094
   78SLPC   O11 7090   2.503   5.346   6.488 -0.8523  0.5033  0.5315
   78SLPC    C1 7091   2.507   5.484   6.534  0.5565 -0.6108 -0.3950
   78SLPC    HA 7092   2.535   5.562   6.460  0.0312 -0.9248 -0.9367
   78SLPC    HB 7093   2.405   5.514   6.568  2.1667  2.3219  2.4445
   78SLPC    C2 7094   2.590   5.488   6.664 -0.1097  1.0898  0.0053
   78SLPC    HS 7095   2.686   5.441   6.632 -0.1138  1.2337 -0.2139
   78SLPC   O21 7096   2.529   5.406   6.775  0.1418  0.4982  0.0508
   78SLPC   C21 7097   2.614   5.328   6.842 -0.2039 -0.1650 -0.6917
   78SLPC   O22 7098   2.731   5.307   6.802  0.0980 -0.0633  0.2371
   78SLPC   C22 7099   2.546   5.260   6.963 -0.1187 -0.8327 -0.4922
   78SLPC   H2R 7100   2.437   5.270   6.943  0.0043  1.0854 -0.4130
   78SLPC   H2S 7101   2.578   5.154   6.956  1.0250 -0.7331  2.1738
   78SLPC    C3 7102   2.622   5.627   6.709  0.4896 -0.6716 -0.5574
   78SLPC    HX 7103   2.522   5.669   6.731  0.6079 -0.7716  0.2171
   78SLPC    HY 7104   2.682   5.688   6.637  1.0786 -0.1362  0.3587
   78SLPC   O31 7105   2.695   5.622   6.832  0.0050 -0.0151  0.1141
   78SLPC   C31 7106   2.828   5.614   6.826  0.7118 -1.0455 -0.4058
   78SLPC   O32 7107   2.897   5.635   6.725  0.0118  0.0834 -0.0983
   78SLPC   C32 7108   2.870   5.593   6.968  0.0681  0.0245 -0.0297
   78SLPC   H2X 7109   2.785   5.537   7.012  0.0089  0.5582  0.5556
   78SLPC   H2Y 7110   2.874   5.690   7.022 -0.9833  0.2285 -0.3044
   78SLPC   C23 7111   2.595   5.319   7.098  0.0449 -0.2323 -0.2341
   78SLPC   H3R 7112   2.562   5.425   7.100 -0.1128 -0.2056 -2.2876
   78SLPC   H3S 7113   2.706   5.322   7.102  0.0227 -0.6701  2.8979
   78SLPC   C24 7114   2.547   5.242   7.222  0.6338 -0.4649  0.5575
   78SLPC   H4R 7115   2.577   5.135   7.226 -0.9727 -0.9303  0.9409
   78SLPC   H4S 7116   2.436   5.246   7.225  0.6675  0.8700  0.5339
   78SLPC   C25 7117   2.592   5.308   7.353  0.4163 -0.7571 -0.3363
   78SLPC   H5R 7118   2.602   5.418   7.344  0.9527 -0.8529 -1.0029
   78SLPC   H5S 7119   2.690   5.270   7.388  0.4603 -0.4211 -0.0908
   78SLPC   C26 7120   2.500   5.288   7.471  0.1477  0.0775 -0.2970
   78SLPC   H6R 7121   2.491   5.180   7.497 -2.7091  0.1659 -0.6164
   78SLPC   H6S 7122   2.394   5.316   7.453  0.2483  1.7030  1.3892
   78SLPC   C27 7123   2.541   5.362   7.602  0.4075  0.2497  0.3977
   78SLPC   H7R 7124   2.543   5.472   7.582  1.2955  0.0689 -0.6462
   78SLPC   H7S 7125   2.644   5.325   7.621  0.2771 -0.3953 -0.1026
   78SLPC   C28 7126   2.440   5.319   7.712  0.0349  0.4205  0.6275
   78SLPC   H8R 7127   2.444   5.209   7.730 -0.6986  0.7656  3.3314
   78SLPC   H8S 7128   2.337   5.353   7.686 -0.3871  0.0608  1.7538
   78SLPC   C29 7129   2.477   5.390   7.835  0.2889 -0.0819  0.2677
   78SLPC   H9R 7130   2.513   5.490   7.806  0.5982 -0.4994 -0.8686
   78SLPC  C210 7131   2.470   5.350   7.962  0.6844  0.1816 -0.0201
   78SLPC  H10R 7132   2.517   5.407   8.044 -0.4453  1.8580 -0.4772
   78SLPC  C211 7133   2.423   5.207   8.004 -0.4672 -0.1720 -0.6095
   78SLPC  H11R 7134   2.484   5.180   8.093 -2.3658 -0.5431  0.6618
   78SLPC  H11S 7135   2.451   5.130   7.929 -1.0400 -0.8806 -0.1206
   78SLPC  C212 7136   2.276   5.207   8.018  0.1291  0.0704  0.2636
   78SLPC  H12R 7137   2.230   5.224   7.920 -0.4665 -0.3692  0.4540
   78SLPC  C213 7138   2.195   5.198   8.128 -0.1235  0.1788  0.2964
   78SLPC  H13R 7139   2.087   5.216   8.125  0.0480  1.1591 -1.2291
   78SLPC  C214 7140   2.250   5.185   8.269  0.1843 -0.1579  0.2505
   78SLPC  H14R 7141   2.340   5.120   8.273  0.0692 -0.2948  0.6674
   78SLPC  H14S 7142   2.166   5.144   8.330 -0.1184 -1.0606 -0.7369
   78SLPC  C215 7143   2.282   5.324   8.332 -0.1523 -0.3251  0.4353
   78SLPC  H15R 7144   2.349   5.382   8.265  2.0083 -1.0203  1.9169
   78SLPC  H15S 7145   2.337   5.309   8.427  0.2460  1.6928  0.5815
   78SLPC  C216 7146   2.164   5.420   8.370  0.3627 -0.2704 -0.2916
   78SLPC  H16R 7147   2.086   5.360   8.422  2.1980 -1.8687  0.7545
   78SLPC  H16S 7148   2.126   5.450   8.271  0.4130 -0.6159 -0.4142
   78SLPC  C217 7149   2.203   5.550   8.439 -0.5131  0.5209  0.7107
   78SLPC  H17R 7150   2.279   5.539   8.520 -0.3938 -1.6410  0.3793
   78SLPC  H17S 7151   2.110   5.593   8.482 -1.3109 -0.5091  0.0819
   78SLPC  C218 7152   2.251   5.648   8.323  0.5826  0.3083 -0.5229
   78SLPC  H18R 7153   2.168   5.664   8.250  0.2901 -0.1876 -0.3028
   78SLPC  H18S 7154   2.345   5.614   8.276  0.7322  2.0791 -1.5898
   78SLPC  H18T 7155   2.278   5.740   8.379  0.7118  0.8637 -1.4680
   78SLPC   C33 7156   3.000   5.519   6.974  0.0564 -0.0940 -0.3139
   78SLPC   H3X 7157   3.081   5.566   6.915  0.3939 -1.1990 -0.7739
   78SLPC   H3Y 7158   2.997   5.417   6.928  1.5379  0.1622 -1.0163
   78SLPC   C34 7159   3.066   5.507   7.115  0.2633  0.1486  0.0002
   78SLPC   H4X 7160   3.110   5.604   7.146 -0.8918  0.8807 -0.5499
   78SLPC   H4Y 7161   3.155   5.441   7.105  2.6673  3.0086  1.1587
   78SLPC   C35 7162   2.977   5.457   7.232  0.2617  0.0469  0.7262
   78SLPC   H5X 7163   2.950   5.353   7.207  1.6870 -0.9570  3.0725
   78SLPC   H5Y 7164   2.874   5.497   7.244  0.4039 -0.0692  2.6314
   78SLPC   C36 7165   3.040   5.456   7.373  0.0677  0.2330  0.0430
   78SLPC   H6X 7166   3.139   5.408   7.360  0.4428  1.2888 -1.2489
   78SLPC   H6Y 7167   2.965   5.398   7.431  0.8833 -1.5522 -0.6538
   78SLPC   C37 7168   3.075   5.587   7.443  0.3238 -0.5438 -1.2266
   78SLPC   H7X 7169   3.089   5.662   7.362  0.0409 -0.2830 -1.0352
   78SLPC   H7Y 7170   3.161   5.588   7.514 -1.6070  0.4639  1.2365
   78SLPC   C38 7171   2.970   5.640   7.542  0.6512 -0.5377  0.0022
   78SLPC   H8X 7172   2.871   5.642   7.491  0.3797  1.9344  0.5168
   78SLPC   H8Y 7173   3.000   5.743   7.568 -0.8517 -0.3620  1.2304
   78SLPC   C39 7174   2.985   5.574   7.672  0.5132  0.1846 -0.3878
   78SLPC   H9X 7175   3.071   5.629   7.716  0.1700  3.0715 -2.9688
   78SLPC   H9Y 7176   3.018   5.468   7.671  3.9019  1.1380 -1.6300
   78SLPC  C310 7177   2.858   5.573   7.764 -0.5395  0.0126  0.0570
   78SLPC  H10X 7178   2.782   5.525   7.698  0.4603 -1.0945 -0.3278
   78SLPC  H10Y 7179   2.832   5.677   7.791 -0.0600 -0.1706  1.2687
   78SLPC  C311 7180   2.879   5.487   7.892 -0.0690  0.2072  0.2765
   78SLPC  H11X 7181   2.989   5.483   7.903 -0.1207  0.0353  0.7884
   78SLPC  H11Y 7182   2.848   5.382   7.872  0.0769  0.5011 -1.6150
   78SLPC  C312 7183   2.823   5.551   8.014  0.5318  0.4688  0.1867
   78SLPC  H12X 7184   2.714   5.575   8.009  0.4090  0.0452  0.7283
   78SLPC  H12Y 7185   2.891   5.637   8.032  0.3835  0.9728 -1.5075
   78SLPC  C313 7186   2.838   5.455   8.136 -0.0363 -0.3161  0.8732
   78SLPC  H13X 7187   2.948   5.440   8.146  0.2578  0.8038 -0.3706
   78SLPC  H13Y 7188   2.799   5.352   8.119 -0.1397 -0.2175  0.4892
   78SLPC  C314 7189   2.754   5.508   8.251  0.4412 -0.4364  0.1928
   78SLPC  H14X 7190   2.653   5.511   8.204  0.4000 -1.4967  0.2019
   78SLPC  H14Y 7191   2.781   5.613   8.276  0.8326 -0.7657  1.1980
   78SLPC  C315 7192   2.755   5.419   8.378  0.5865 -0.5168  0.3225
   78SLPC  H15X 7193   2.860   5.413   8.416  0.6452  0.7497  0.4202
   78SLPC  H15Y 7194   2.723   5.315   8.357 -0.5857  0.0892 -1.0567
   78SLPC  C316 7195   2.652   5.452   8.496 -0.4701  0.4387 -0.9430
   78SLPC  H16X 7196   2.552   5.470   8.451 -1.1865 -2.2616 -0.6247
   78SLPC  H16Y 7197   2.682   5.547   8.545  0.3268 -1.3140  2.2034
   78SLPC  C317 7198   2.629   5.345   8.609 -0.1310  0.4003 -0.2851
   78SLPC  H17X 7199   2.729   5.301   8.627 -0.7056 -0.3760  1.0822
   78SLPC  H17Y 7200   2.557   5.275   8.562  0.0075  1.5975 -2.4538
   78SLPC  C318 7201   2.580   5.392   8.745 -0.7407 -0.2737 -0.0427
   78SLPC  H18X 7202   2.538   5.305   8.800 -0.2462 -1.8657 -2.0472
   78SLPC  H18Y 7203   2.501   5.469   8.728 -0.2419  0.0648 -0.8866
   78SLPC  H18Z 7204   2.661   5.447   8.798  0.4986 -0.2735 -1.8493
   79SLPC     N 7205   0.493   0.904   6.278  0.5429  0.2894  0.6962
   79SLPC   C13 7206   0.479   1.011   6.174 -0.5212 -0.5874 -0.1433
   79SLPC  H13A 7207   0.558   1.012   6.101 -0.3309 -0.6242  0.0582
   79SLPC  H13B 7208   0.383   1.001   6.127  0.2951 -2.2100 -1.5589
   79SLPC  H13C 7209   0.471   1.108   6.221  0.0353 -1.0828  1.0299
   79SLPC   C14 7210   0.600   0.938   6.371  0.2292 -0.4838 -0.8162
   79SLPC  H14A 7211   0.568   0.992   6.459  2.8688 -1.9381  1.1795
   79SLPC  H14B 7212   0.640   0.851   6.422  1.0111  1.7129  2.6377
   79SLPC  H14C 7213   0.685   0.976   6.316 -0.3775 -0.7506 -1.9674
   79SLPC   C15 7214   0.539   0.776   6.202 -0.2020  0.8396 -0.3222
   79SLPC  H15A 7215   0.454   0.741   6.146  0.2978 -0.2864 -0.4178
   79SLPC  H15B 7216   0.634   0.783   6.150  1.7182  1.3444  2.9187
   79SLPC  H15C 7217   0.558   0.694   6.271  1.1657  1.6083  0.2542
   79SLPC   C12 7218   0.367   0.877   6.351 -0.1150  0.2986 -0.3969
   79SLPC  H12A 7219   0.349   0.955   6.424 -0.9791 -0.5404  0.3280
   79SLPC  H12B 7220   0.370   0.788   6.412  0.9692  1.1419  0.8429
   79SLPC   C11 7221   0.237   0.863   6.266  0.3166  0.1444  0.0525
   79SLPC  H11A 7222   0.228   0.954   6.203 -0.8809  1.0171  1.4148
   79SLPC  H11B 7223   0.158   0.868   6.344  0.7431  5.2094  0.4877
   79SLPC     P 7224   0.217   0.612   6.261 -0.1494  0.0132  0.3076
   79SLPC   O13 7225   0.075   0.582   6.226  0.4848  0.1319 -0.4802
   79SLPC   O14 7226   0.319   0.510   6.220 -0.3598 -0.0668 -0.1111
   79SLPC   O12 7227   0.253   0.747   6.184 -0.2263 -0.3923 -0.2391
   79SLPC   O11 7228   0.224   0.641   6.420 -0.3133  0.1315 -0.0560
   79SLPC    C1 7229   0.188   0.541   6.510 -0.1245 -0.0464 -0.7514
   79SLPC    HA 7230   0.089   0.498   6.485 -0.0653  0.6476 -2.2567
   79SLPC    HB 7231   0.260   0.457   6.505 -0.1157  0.0312 -4.2795
   79SLPC    C2 7232   0.197   0.601   6.659 -0.0316 -0.0740  0.4468
   79SLPC    HS 7233   0.159   0.516   6.719  0.2503 -0.7112 -0.2618
   79SLPC   O21 7234   0.105   0.711   6.666 -0.2235 -0.0609  0.2396
   79SLPC   C21 7235  -0.019   0.691   6.640 -0.2421 -0.0473 -0.2229
   79SLPC   O22 7236  -0.073   0.579   6.630 -0.0839 -0.1357  0.0205
   79SLPC   C22 7237  -0.093   0.826   6.632 -0.5062  0.6426 -0.0264
   79SLPC   H2R 7238  -0.055   0.883   6.544  1.3003  1.9206  1.4985
   79SLPC   H2S 7239  -0.200   0.799   6.627 -0.0816 -1.0746 -0.5266
   79SLPC    C3 7240   0.340   0.638   6.700 -0.0913  0.2449  0.1660
   79SLPC    HX 7241   0.390   0.697   6.620  0.3710  0.8229  0.8693
   79SLPC    HY 7242   0.407   0.550   6.695  0.3942  0.6032  0.2252
   79SLPC   O31 7243   0.346   0.696   6.833 -0.0677  0.0942  0.5985
   79SLPC   C31 7244   0.347   0.833   6.851 -0.7775  0.1529 -0.4056
   79SLPC   O32 7245   0.352   0.915   6.758 -0.3755 -0.4218 -0.2446
   79SLPC   C32 7246   0.342   0.860   6.995  0.6022  0.2432 -0.1562
   79SLPC   H2X 7247   0.265   0.936   7.021  1.4700  0.1642  3.1537
   79SLPC   H2Y 7248   0.435   0.903   7.038  0.8417  0.7298 -1.1420
   79SLPC   C23 7249  -0.082   0.912   6.763 -0.2162 -0.0881 -0.7168
   79SLPC   H3R 7250  -0.121   1.011   6.731  1.9688  1.1002  0.1293
   79SLPC   H3S 7251   0.025   0.917   6.790 -0.7866  0.6888  1.5888
   79SLPC   C24 7252  -0.170   0.872   6.880 -0.2790  0.0901  0.4397
   79SLPC   H4R 7253  -0.275   0.857   6.844 -0.6428  0.8525  1.1573
   79SLPC   H4S 7254  -0.180   0.957   6.951  3.7618 -1.5369  3.2687
   79SLPC   C25 7255  -0.120   0.748   6.959 -1.2604  0.3357 -0.0570
   79SLPC   H5R 7256  -0.019   0.785   6.987 -0.6504 -1.3897  0.1808
   79SLPC   H5S 7257  -0.107   0.659   6.894  0.4773  1.4108 -1.2695
   79SLPC   C26 7258  -0.191   0.718   7.088 -0.2785 -0.4412 -0.0558
   79SLPC   H6R 7259  -0.145   0.633   7.143  2.6805  0.5672 -0.7645
   79SLPC   H6S 7260  -0.297   0.702   7.058 -0.7351  2.6868 -0.3869
   79SLPC   C27 7261  -0.191   0.826   7.191 -0.3847 -0.9680  0.3799
   79SLPC   H7R 7262  -0.258   0.899   7.142  1.7201 -1.6343 -3.9912
   79SLPC   H7S 7263  -0.089   0.868   7.202 -1.0550  0.7665  0.1950
   79SLPC   C28 7264  -0.253   0.777   7.319  0.3971  0.0211  0.3032
   79SLPC   H8R 7265  -0.343   0.714   7.306  2.0090 -2.2877 -0.1424
   79SLPC   H8S 7266  -0.288   0.875   7.359  1.9585  1.1920 -1.0538
   79SLPC   C29 7267  -0.144   0.720   7.414  0.2702 -0.7780 -0.0587
   79SLPC   H9R 7268  -0.042   0.728   7.374  0.7190  1.4933  1.3396
   79SLPC  C210 7269  -0.177   0.678   7.537 -0.6170 -0.8882  0.4096
   79SLPC  H10R 7270  -0.100   0.643   7.607  0.8431  1.4128  0.0284
   79SLPC  C211 7271  -0.314   0.686   7.601 -0.5514 -0.0365 -0.0451
   79SLPC  H11R 7272  -0.331   0.581   7.634  1.6651 -0.3935  0.1220
   79SLPC  H11S 7273  -0.394   0.713   7.529 -0.1243 -1.8210 -1.2560
   79SLPC  C212 7274  -0.309   0.778   7.723 -0.8307 -0.1558 -0.1055
   79SLPC  H12R 7275  -0.320   0.884   7.696 -0.1907 -0.2465 -0.7630
   79SLPC  C213 7276  -0.313   0.742   7.854 -0.1760 -0.2517  0.8280
   79SLPC  H13R 7277  -0.308   0.830   7.921 -1.4543  1.0213 -0.6643
   79SLPC  C214 7278  -0.314   0.602   7.908 -0.6213  0.3462  0.0000
   79SLPC  H14R 7279  -0.340   0.521   7.836 -0.6772 -1.7185  2.2148
   79SLPC  H14S 7280  -0.386   0.597   7.993 -1.4053  2.3206 -0.4841
   79SLPC  C215 7281  -0.171   0.567   7.954 -0.1880  0.2556 -0.1063
   79SLPC  H15R 7282  -0.107   0.555   7.863  1.3097  0.5475  0.8646
   79SLPC  H15S 7283  -0.190   0.463   7.988  1.5885  0.2128  0.8867
   79SLPC  C216 7284  -0.103   0.639   8.068  0.3527  0.1000  1.0297
   79SLPC  H16R 7285  -0.158   0.631   8.164 -1.2792  1.2153  0.2360
   79SLPC  H16S 7286  -0.101   0.748   8.042  1.2539  0.0118  0.6684
   79SLPC  C217 7287   0.047   0.592   8.077 -0.4595 -0.0399  0.0249
   79SLPC  H17R 7288   0.109   0.637   7.996 -1.5706 -1.0901 -1.4526
   79SLPC  H17S 7289   0.041   0.482   8.064 -1.4572 -0.2272  1.7429
   79SLPC  C218 7290   0.107   0.629   8.212  0.4975 -0.1498  1.6228
   79SLPC  H18R 7291   0.199   0.568   8.221  1.1565  0.4493 -0.5730
   79SLPC  H18S 7292   0.034   0.600   8.291 -1.3495  1.3220  0.5305
   79SLPC  H18T 7293   0.141   0.735   8.209 -0.9733  0.4009 -2.8413
   79SLPC   C33 7294   0.292   0.739   7.077 -0.0036 -0.5511  0.0527
   79SLPC   H3X 7295   0.367   0.657   7.063  2.0596  0.9543  1.5240
   79SLPC   H3Y 7296   0.196   0.702   7.035 -0.4952  2.4870 -1.7499
   79SLPC   C34 7297   0.288   0.766   7.223  0.0200  0.1036  0.1457
   79SLPC   H4X 7298   0.212   0.844   7.245 -1.1024 -0.5518 -1.1914
   79SLPC   H4Y 7299   0.388   0.804   7.251  1.0775 -1.0388 -1.8770
   79SLPC   C35 7300   0.249   0.636   7.299 -0.6317  0.7454  0.3140
   79SLPC   H5X 7301   0.328   0.564   7.269 -0.9014 -0.9880  3.2786
   79SLPC   H5Y 7302   0.144   0.606   7.278 -1.2852  1.2679  2.5944
   79SLPC   C36 7303   0.265   0.667   7.451  0.1695 -1.0247  0.4585
   79SLPC   H6X 7304   0.199   0.751   7.482  1.0424 -1.3753  3.6098
   79SLPC   H6Y 7305   0.368   0.707   7.466 -0.0370  0.8892 -2.4794
   79SLPC   C37 7306   0.254   0.544   7.542 -0.3853 -0.3762 -0.3241
   79SLPC   H7X 7307   0.345   0.480   7.542 -0.3278 -0.3865  1.8991
   79SLPC   H7Y 7308   0.179   0.473   7.503  1.1704 -1.5197 -1.3811
   79SLPC   C38 7309   0.212   0.591   7.678  0.1028 -0.1074 -0.1127
   79SLPC   H8X 7310   0.172   0.510   7.741  0.0654 -0.2999 -0.3820
   79SLPC   H8Y 7311   0.135   0.671   7.666  0.2726  0.1014  0.1775
   79SLPC   C39 7312   0.327   0.654   7.755  0.2902  0.1806 -0.0722
   79SLPC   H9X 7313   0.279   0.683   7.851 -1.5326  0.3108 -0.9803
   79SLPC   H9Y 7314   0.357   0.747   7.703 -0.7487  0.6606  0.1634
   79SLPC  C310 7315   0.448   0.564   7.786 -0.1050 -0.5130  0.2473
   79SLPC  H10X 7316   0.510   0.583   7.696 -0.4775  1.3619  0.3433
   79SLPC  H10Y 7317   0.423   0.456   7.777  0.0786 -0.4964 -0.5766
   79SLPC  C311 7318   0.527   0.615   7.904  0.4233 -0.1764 -0.1954
   79SLPC  H11X 7319   0.532   0.725   7.890 -0.3873  0.0132  0.9792
   79SLPC  H11Y 7320   0.635   0.589   7.899  1.2661  2.6828  1.2439
   79SLPC  C312 7321   0.481   0.590   8.051 -0.1987  0.4959  0.8735
   79SLPC  H12X 7322   0.371   0.606   8.050 -0.5093 -1.4547 -0.0019
   79SLPC  H12Y 7323   0.535   0.660   8.118  1.5055  0.4205 -0.3480
   79SLPC  C313 7324   0.520   0.453   8.090  0.1936 -0.1328  0.5342
   79SLPC  H13X 7325   0.623   0.461   8.131 -0.0236  1.8038  0.8309
   79SLPC  H13Y 7326   0.517   0.391   7.998  0.5433  0.3118  0.2197
   79SLPC  C314 7327   0.436   0.390   8.201 -0.0317  0.6424  0.0145
   79SLPC  H14X 7328   0.337   0.362   8.160  0.8180 -0.1586 -1.6023
   79SLPC  H14Y 7329   0.414   0.469   8.276  0.5699 -0.4241  1.3603
   79SLPC  C315 7330   0.501   0.265   8.259  0.3966  0.2875 -0.3894
   79SLPC  H15X 7331   0.587   0.301   8.318  0.0884  3.0639 -1.4814
   79SLPC  H15Y 7332   0.540   0.203   8.175 -0.0205  0.1173 -0.4622
   79SLPC  C316 7333   0.404   0.176   8.345  0.2330  0.0610 -0.3742
   79SLPC  H16X 7334   0.446   0.081   8.383 -0.0267 -0.4093 -1.2392
   79SLPC  H16Y 7335   0.317   0.155   8.279 -0.0142 -2.1819  0.6060
   79SLPC  C317 7336   0.344   0.256   8.472 -0.5142 -0.2801  0.1714
   79SLPC  H17X 7337   0.301   0.356   8.450 -0.1343 -0.3461 -0.8978
   79SLPC  H17Y 7338   0.433   0.290   8.529  0.3665  0.3047 -1.4768
   79SLPC  C318 7339   0.242   0.171   8.540  0.5555  0.0829 -0.1527
   79SLPC  H18X 7340   0.160   0.139   8.472  2.2219 -1.8470 -1.3362
   79SLPC  H18Y 7341   0.195   0.219   8.629  0.5422 -0.0445 -0.0912
   79SLPC  H18Z 7342   0.285   0.071   8.562  0.3830 -0.1346 -0.7768
   80SLPC     N 7343   0.075   5.993   6.151  0.0225 -0.9026 -0.1459
   80SLPC   C13 7344   0.166   6.085   6.077 -0.5695 -0.8293 -0.0750
   80SLPC  H13A 7345   0.243   6.120   6.145 -0.5954 -1.1956  0.1493
   80SLPC  H13B 7346   0.229   6.021   6.017  0.3028  0.0767 -0.1406
   80SLPC  H13C 7347   0.111   6.158   6.020 -0.8118 -0.3627  0.7265
   80SLPC   C14 7348   0.150   5.899   6.229 -0.2868  0.7174  0.6200
   80SLPC  H14A 7349   0.226   5.842   6.179  0.7435  0.9574  1.8748
   80SLPC  H14B 7350   0.211   5.945   6.305  0.6569  0.9201 -0.2410
   80SLPC  H14C 7351   0.087   5.836   6.290  1.0833 -0.6804  0.6478
   80SLPC   C15 7352  -0.028   5.924   6.057 -0.2921  0.8354 -0.9461
   80SLPC  H15A 7353   0.019   5.857   5.987 -0.4384  0.6466 -0.8659
   80SLPC  H15B 7354  -0.096   5.864   6.117 -1.1600  1.3908 -1.3526
   80SLPC  H15C 7355  -0.081   5.997   5.999 -1.7990  0.4180 -0.1689
   80SLPC   C12 7356  -0.007   6.071   6.250 -0.6449 -0.3517 -0.0936
   80SLPC  H12A 7357  -0.088   6.129   6.208  0.5040  1.7844  0.4413
   80SLPC  H12B 7358   0.064   6.143   6.289 -0.9338  0.1152 -0.4117
   80SLPC   C11 7359  -0.061   5.992   6.377 -0.4966  0.1839  0.2095
   80SLPC  H11A 7360  -0.118   6.057   6.446 -1.7259 -1.6735  1.0416
   80SLPC  H11B 7361   0.020   5.966   6.447  1.1225  2.3624 -0.7443
   80SLPC     P 7362  -0.152   5.749   6.393 -0.5544  0.0440  0.2754
   80SLPC   O13 7363  -0.268   5.674   6.338 -0.1758 -0.6931  0.7763
   80SLPC   O14 7364  -0.024   5.691   6.347  0.1868 -0.5862 -0.1624
   80SLPC   O12 7365  -0.164   5.901   6.349 -0.3034  0.4056  0.1879
   80SLPC   O11 7366  -0.168   5.741   6.548 -0.4897  0.1642  0.1421
   80SLPC    C1 7367  -0.277   5.808   6.616  0.6087  0.0587  0.4043
   80SLPC    HA 7368  -0.348   5.857   6.546 -0.0625 -1.2650  0.1349
   80SLPC    HB 7369  -0.333   5.727   6.668  1.6526  0.9188  3.0167
   80SLPC    C2 7370  -0.227   5.918   6.710  0.1385 -0.3619  0.1053
   80SLPC    HS 7371  -0.152   5.972   6.647 -0.5743  2.6052  1.6348
   80SLPC   O21 7372  -0.156   5.869   6.823  0.1748 -0.0895 -0.1064
   80SLPC   C21 7373  -0.086   5.949   6.897  0.7339  0.6563 -0.1853
   80SLPC   O22 7374  -0.049   6.061   6.881 -0.6574 -0.0702  0.0724
   80SLPC   C22 7375  -0.071   5.875   7.028 -0.2833  0.4275 -0.0664
   80SLPC   H2R 7376  -0.161   5.815   7.051  0.2472 -0.9074 -1.3612
   80SLPC   H2S 7377   0.021   5.816   7.010 -0.6777 -0.1635 -0.1765
   80SLPC    C3 7378  -0.338   6.020   6.755  0.0482 -0.0713 -0.4725
   80SLPC    HX 7379  -0.364   6.082   6.667  2.3085  0.0368 -1.1413
   80SLPC    HY 7380  -0.297   6.094   6.827 -2.0366  0.2473  0.4430
   80SLPC   O31 7381  -0.457   5.952   6.806  0.4754 -0.1995  0.4812
   80SLPC   C31 7382  -0.452   5.915   6.937 -0.5151  0.1211  0.6304
   80SLPC   O32 7383  -0.376   5.965   7.017  0.4131  0.4626 -0.4927
   80SLPC   C32 7384  -0.567   5.821   6.973  0.0738  0.5732  0.1000
   80SLPC   H2X 7385  -0.581   5.748   6.890  2.0565 -0.9408  1.0089
   80SLPC   H2Y 7386  -0.653   5.890   6.963  1.2733  2.0083 -0.6592
   80SLPC   C23 7387  -0.027   5.975   7.146  0.0723 -0.1965  0.0535
   80SLPC   H3R 7388  -0.116   6.003   7.205 -0.8330 -1.0820 -0.8378
   80SLPC   H3S 7389   0.011   6.074   7.114 -1.3282  0.2938 -0.1599
   80SLPC   C24 7390   0.076   5.907   7.242  0.1002  0.1855 -0.2856
   80SLPC   H4R 7391   0.169   5.890   7.185  1.1940  2.9328  0.5527
   80SLPC   H4S 7392   0.033   5.806   7.264 -1.6058  0.7560 -0.8446
   80SLPC   C25 7393   0.113   5.973   7.370  0.1758  0.4737  1.0444
   80SLPC   H5R 7394   0.141   6.078   7.347 -0.4565  0.3985 -0.1129
   80SLPC   H5S 7395   0.198   5.923   7.421  2.6503  1.5082 -1.7819
   80SLPC   C26 7396  -0.006   5.966   7.475 -0.0068  0.1174  0.4933
   80SLPC   H6R 7397  -0.035   5.864   7.506 -3.3212  0.5759 -0.6540
   80SLPC   H6S 7398  -0.098   6.003   7.424 -0.5397 -1.4342  0.2924
   80SLPC   C27 7399   0.014   6.058   7.598  0.0867 -0.3430 -0.5302
   80SLPC   H7R 7400  -0.041   6.014   7.684 -0.2303  1.2832  0.1296
   80SLPC   H7S 7401  -0.024   6.159   7.573 -0.1886 -0.0437  1.0203
   80SLPC   C28 7402   0.159   6.084   7.650 -0.4385  0.7847  0.4286
   80SLPC   H8R 7403   0.213   6.119   7.559 -2.9516  0.0243 -1.4678
   80SLPC   H8S 7404   0.216   5.990   7.664  0.4559  1.4220  1.1775
   80SLPC   C29 7405   0.171   6.167   7.772  0.0896 -0.0787  0.6239
   80SLPC   H9R 7406   0.169   6.273   7.745 -1.9456 -0.4808 -1.1447
   80SLPC  C210 7407   0.169   6.128   7.899 -0.2328  0.5480 -0.0152
   80SLPC  H10R 7408   0.195   6.198   7.980  1.1242  2.7282 -2.2057
   80SLPC  C211 7409   0.164   5.983   7.941 -0.1091 -0.2596  0.2045
   80SLPC  H11R 7410   0.144   5.912   7.858 -1.1097  0.8410 -0.5362
   80SLPC  H11S 7411   0.090   5.966   8.022  0.2623  1.8616  1.0506
   80SLPC  C212 7412   0.299   5.941   7.990  0.1155 -0.0098  0.2454
   80SLPC  H12R 7413   0.364   5.908   7.908  2.0542 -0.4872  1.8891
   80SLPC  C213 7414   0.347   5.946   8.114  0.4699 -0.2787  0.0141
   80SLPC  H13R 7415   0.455   5.927   8.119  0.7282  1.1428  0.3385
   80SLPC  C214 7416   0.275   6.007   8.237  0.4938  0.5194  0.1770
   80SLPC  H14R 7417   0.179   6.062   8.223  1.0554  1.3764 -0.3977
   80SLPC  H14S 7418   0.343   6.083   8.280 -0.8172 -0.0811  3.7131
   80SLPC  C215 7419   0.248   5.903   8.347  0.6378  0.3359 -0.5395
   80SLPC  H15R 7420   0.348   5.889   8.394  0.1715  1.6204  0.9516
   80SLPC  H15S 7421   0.211   5.805   8.310 -2.0637 -0.1375  2.9131
   80SLPC  C216 7422   0.159   5.955   8.458 -0.1197 -0.1688  0.1148
   80SLPC  H16R 7423   0.080   6.019   8.414 -0.1739 -1.2424 -1.3870
   80SLPC  H16S 7424   0.216   6.032   8.515 -1.2515  0.7224  0.0651
   80SLPC  C217 7425   0.112   5.846   8.555  0.9998 -0.0133 -1.0891
   80SLPC  H17R 7426   0.192   5.786   8.602  1.7291  1.5882 -0.2222
   80SLPC  H17S 7427   0.046   5.775   8.500 -1.4920 -0.1320  1.7764
   80SLPC  C218 7428   0.031   5.890   8.677  0.2525 -0.9303 -0.3238
   80SLPC  H18R 7429  -0.068   5.918   8.636  0.0062 -1.4828 -0.1149
   80SLPC  H18S 7430   0.088   5.977   8.717 -1.4630  0.5369 -0.9331
   80SLPC  H18T 7431   0.033   5.810   8.755  1.0824 -0.8666 -0.2725
   80SLPC   C33 7432  -0.560   5.747   7.113 -0.0843 -0.6454 -0.0302
   80SLPC   H3X 7433  -0.550   5.834   7.182 -1.0249  0.3482 -1.1068
   80SLPC   H3Y 7434  -0.471   5.681   7.119  0.8492  0.7115  2.0643
   80SLPC   C34 7435  -0.682   5.659   7.124 -0.3524  0.8514 -0.2660
   80SLPC   H4X 7436  -0.692   5.588   7.039  0.4269 -0.2914  0.5660
   80SLPC   H4Y 7437  -0.770   5.726   7.114 -0.0181  1.2785 -0.3996
   80SLPC   C35 7438  -0.685   5.574   7.257  0.6377 -0.1890 -0.0857
   80SLPC   H5X 7439  -0.600   5.502   7.262  0.2627 -0.7062 -0.9502
   80SLPC   H5Y 7440  -0.777   5.511   7.263 -0.2372  0.9592 -1.0177
   80SLPC   C36 7441  -0.694   5.656   7.384  0.3750 -0.4386  0.1368
   80SLPC   H6X 7442  -0.771   5.736   7.374 -0.8180 -1.6108 -0.3599
   80SLPC   H6Y 7443  -0.596   5.706   7.398  0.3946 -0.3056 -0.4471
   80SLPC   C37 7444  -0.718   5.565   7.504  0.3499  0.3873  0.8529
   80SLPC   H7X 7445  -0.627   5.502   7.517 -0.1519 -0.0685  2.3794
   80SLPC   H7Y 7446  -0.813   5.511   7.486 -0.0083  1.3396 -0.1996
   80SLPC   C38 7447  -0.722   5.644   7.636  0.2700 -0.9769  0.2541
   80SLPC   H8X 7448  -0.827   5.680   7.648  0.9585  0.4437  2.5707
   80SLPC   H8Y 7449  -0.657   5.733   7.628 -3.8942  2.3069 -0.3848
   80SLPC   C39 7450  -0.690   5.559   7.753  0.1540 -0.0663  0.1782
   80SLPC   H9X 7451  -0.585   5.526   7.762 -0.5353 -2.0433  2.0564
   80SLPC   H9Y 7452  -0.747   5.464   7.745  0.9525 -0.4093 -2.4407
   80SLPC  C310 7453  -0.711   5.645   7.872 -0.2590 -0.4347 -0.0400
   80SLPC  H10X 7454  -0.818   5.677   7.868 -0.2280 -0.2239  0.7466
   80SLPC  H10Y 7455  -0.639   5.729   7.872 -1.4969  0.6549 -0.2015
   80SLPC  C311 7456  -0.683   5.560   8.004  0.1726  0.1792  0.3770
   80SLPC  H11X 7457  -0.573   5.544   8.002  0.1314 -0.0859  0.2936
   80SLPC  H11Y 7458  -0.719   5.457   7.989  3.1339 -1.0873  1.2447
   80SLPC  C312 7459  -0.718   5.635   8.131 -0.0199  0.2607  0.1823
   80SLPC  H12X 7460  -0.689   5.741   8.114  1.8717 -0.5027 -1.8920
   80SLPC  H12Y 7461  -0.648   5.591   8.206  0.2717  2.2182  1.1403
   80SLPC  C313 7462  -0.862   5.605   8.178  0.4190 -0.3743  0.3219
   80SLPC  H13X 7463  -0.872   5.495   8.174 -0.8016 -0.2411 -1.0201
   80SLPC  H13Y 7464  -0.935   5.649   8.106 -1.1092  4.1527  4.0995
   80SLPC  C314 7465  -0.902   5.674   8.310 -0.3160 -0.5051 -0.1261
   80SLPC  H14X 7466  -1.011   5.651   8.311 -0.2474 -0.8348  0.2932
   80SLPC  H14Y 7467  -0.885   5.783   8.306  2.0972 -0.8629 -1.7796
   80SLPC  C315 7468  -0.828   5.599   8.431 -0.1329 -0.1887 -0.3989
   80SLPC  H15X 7469  -0.718   5.608   8.424  0.2297 -3.2461  0.1160
   80SLPC  H15Y 7470  -0.854   5.495   8.405  1.3319  0.3530 -4.7696
   80SLPC  C316 7471  -0.868   5.631   8.580  0.1709 -0.0827 -0.4925
   80SLPC  H16X 7472  -0.826   5.554   8.648 -1.6249 -0.5380  0.1621
   80SLPC  H16Y 7473  -0.978   5.617   8.586 -0.1264  2.2911  0.7957
   80SLPC  C317 7474  -0.837   5.772   8.630 -0.1556 -0.1466 -0.0959
   80SLPC  H17X 7475  -0.890   5.844   8.565  0.3277  1.1363  0.8762
   80SLPC  H17Y 7476  -0.731   5.799   8.613 -0.4570 -0.3352 -2.6481
   80SLPC  C318 7477  -0.889   5.789   8.770  0.4648 -0.6141  0.4906
   80SLPC  H18X 7478  -1.000   5.779   8.779  0.1279 -1.4964 -3.1400
   80SLPC  H18Y 7479  -0.855   5.889   8.804 -1.2128  0.6858 -1.3856
   80SLPC  H18Z 7480  -0.850   5.709   8.836 -1.7601 -0.3315  2.2703
   81SAPS     N 7481   1.813   6.373  11.259 -0.0240 -0.0263 -0.1530
   81SAPS   HN1 7482   1.749   6.355  11.179 -1.3483  1.2195  0.5751
   81SAPS   HN2 7483   1.909   6.379  11.221 -0.3100  1.9141 -0.6808
   81SAPS   HN3 7484   1.809   6.299  11.333 -1.4495 -1.2708 -1.4036
   81SAPS   C12 7485   1.779   6.506  11.319  0.0748  0.0187  0.1642
   81SAPS  H12A 7486   1.675   6.500  11.348 -0.3349 -3.6525 -1.4711
   81SAPS   C13 7487   1.858   6.555  11.443  0.0696  0.3379 -1.0680
   81SAPS  O13A 7488   1.923   6.468  11.507 -0.2989 -0.7589  0.0397
   81SAPS  O13B 7489   1.819   6.663  11.499 -0.4342 -0.2534 -0.5425
   81SAPS   C11 7490   1.792   6.620  11.206  0.5581  0.4299  0.1967
   81SAPS  H11A 7491   1.897   6.619  11.171  1.1491 -0.1276  1.9125
   81SAPS  H11B 7492   1.789   6.719  11.256  1.2399  0.1248  0.8709
   81SAPS     P 7493   1.536   6.647  11.121 -0.1824  0.1740  0.2062
   81SAPS   O13 7494   1.453   6.527  11.136  0.0462 -0.1981 -0.8373
   81SAPS   O14 7495   1.529   6.753  11.220  0.1516 -0.1611  0.5224
   81SAPS   O12 7496   1.689   6.598  11.110 -0.3800  0.0219 -0.8266
   81SAPS   O11 7497   1.519   6.710  10.987  0.5525  0.9869  0.1426
   81SAPS    C1 7498   1.415   6.803  10.939  0.0068  0.1364 -1.0699
   81SAPS    HA 7499   1.366   6.848  11.028  2.7146  0.6267  0.2917
   81SAPS    HB 7500   1.463   6.883  10.880 -0.6819 -0.7929 -2.9613
   81SAPS    C2 7501   1.312   6.731  10.846 -0.6617 -0.5888 -0.1180
   81SAPS    HS 7502   1.252   6.651  10.896 -3.7337  1.2990 -0.5386
   81SAPS   O21 7503   1.391   6.678  10.734 -0.4565 -0.4822 -0.6538
   81SAPS   C21 7504   1.363   6.551  10.702  0.2081  0.0864  0.7065
   81SAPS   O22 7505   1.287   6.475  10.756 -0.3133  0.2876 -0.5853
   81SAPS   C22 7506   1.454   6.525  10.585 -0.0504 -0.0810  0.7943
   81SAPS   H2R 7507   1.560   6.545  10.615  0.0199 -3.8121  3.8812
   81SAPS   H2S 7508   1.436   6.422  10.547  2.1834  0.1572 -1.1791
   81SAPS    C3 7509   1.202   6.821  10.798 -0.0150  0.1102  0.6023
   81SAPS    HX 7510   1.245   6.894  10.726  1.8032 -0.6660  0.8431
   81SAPS    HY 7511   1.154   6.877  10.881  1.5561  1.5523  0.5766
   81SAPS   O31 7512   1.094   6.737  10.751  0.6707 -0.4234  0.1170
   81SAPS   C31 7513   1.017   6.782  10.652  0.2507  0.0669 -0.2635
   81SAPS   O32 7514   1.015   6.899  10.615  0.0280 -0.4340 -0.5704
   81SAPS   C32 7515   0.923   6.676  10.587  0.0292 -0.1934  0.2904
   81SAPS   H2X 7516   0.838   6.687  10.658 -0.0857 -2.0038  0.4709
   81SAPS   H2Y 7517   0.964   6.573  10.589  2.8165  0.8427  1.0452
   81SAPS   C23 7518   1.419   6.607  10.466  0.3076  0.3313  0.9736
   81SAPS   H3R 7519   1.480   6.700  10.464  0.3135  0.3276  0.9851
   81SAPS   H3S 7520   1.311   6.632  10.465  0.3481  0.9496 -3.2351
   81SAPS   C24 7521   1.455   6.528  10.328  0.3406 -0.7225 -0.3987
   81SAPS   H4R 7522   1.415   6.424  10.334  0.0427 -0.5294  2.3226
   81SAPS   H4S 7523   1.565   6.541  10.328  0.2539  0.0715 -0.1719
   81SAPS   C25 7524   1.391   6.593  10.210 -0.2598  0.2430 -0.3332
   81SAPS   H5R 7525   1.288   6.627  10.228 -0.5945 -0.4437 -0.8894
   81SAPS   C26 7526   1.452   6.620  10.092 -0.7432  0.8211 -0.3628
   81SAPS   H6R 7527   1.395   6.656  10.005 -0.3939 -1.1532 -1.4735
   81SAPS   C27 7528   1.596   6.585  10.053 -0.7679  0.5290 -0.7433
   81SAPS   H7R 7529   1.601   6.479  10.020 -0.5891  0.8938 -1.9109
   81SAPS   H7S 7530   1.656   6.597  10.146 -0.8226 -0.1020 -0.6235
   81SAPS   C28 7531   1.648   6.673   9.939 -0.4165  1.0448  0.0749
   81SAPS   H8R 7532   1.736   6.733   9.966  0.0697  0.6196 -0.5232
   81SAPS   C29 7533   1.608   6.674   9.810  0.7405 -0.0694 -0.3883
   81SAPS   H9R 7534   1.634   6.761   9.748  0.3826  1.6120  1.6714
   81SAPS  C210 7535   1.496   6.598   9.741 -0.2720  0.4204  0.0532
   81SAPS  H10R 7536   1.460   6.517   9.808  1.3726 -0.2996  0.0912
   81SAPS  H10S 7537   1.533   6.539   9.655  0.2600  0.0950  0.5065
   81SAPS  C211 7538   1.388   6.699   9.710 -0.6670  0.1017 -0.1187
   81SAPS  H11R 7539   1.358   6.758   9.798  1.6820  1.2379 -0.0051
   81SAPS  C212 7540   1.335   6.735   9.593  0.0683 -0.1319  0.3214
   81SAPS  H12R 7541   1.270   6.823   9.587 -0.1390 -0.3568 -1.2808
   81SAPS  C213 7542   1.372   6.677   9.459 -0.2211 -0.6650  0.9584
   81SAPS  H13R 7543   1.319   6.581   9.441  0.4722 -0.6689 -1.4477
   81SAPS  H13S 7544   1.481   6.655   9.467 -0.4469 -2.3411 -0.1271
   81SAPS  C214 7545   1.372   6.772   9.339 -0.8198  0.0783 -0.6037
   81SAPS  H14R 7546   1.354   6.879   9.358 -0.5782 -0.2409  1.7056
   81SAPS  C215 7547   1.392   6.730   9.217  0.0844 -0.1605 -0.1892
   81SAPS  H15R 7548   1.423   6.804   9.143  0.9802  0.7292  1.0390
   81SAPS  C216 7549   1.430   6.584   9.177 -0.5577 -0.2364  0.0669
   81SAPS  H16R 7550   1.363   6.495   9.180  1.1145 -1.5206  1.0938
   81SAPS  H16S 7551   1.516   6.563   9.245  0.4102  2.1195 -0.3359
   81SAPS  C217 7552   1.488   6.597   9.035 -0.4997 -0.2465  0.5329
   81SAPS  H17R 7553   1.542   6.502   9.017  1.8745  1.4355 -1.9814
   81SAPS  H17S 7554   1.563   6.675   9.011  1.8439 -2.6203 -0.2976
   81SAPS  C218 7555   1.390   6.607   8.910  0.4736 -0.0528 -0.3124
   81SAPS  H18R 7556   1.345   6.709   8.911  2.6698  0.9789  0.0548
   81SAPS  H18S 7557   1.308   6.534   8.925  2.9176 -2.6150  1.3767
   81SAPS  C219 7558   1.455   6.608   8.774 -0.4362 -0.1919  0.4288
   81SAPS  H19R 7559   1.515   6.518   8.750  0.9220  0.7221  0.2374
   81SAPS  H19S 7560   1.529   6.691   8.772 -1.8118  1.0988 -1.5977
   81SAPS  C220 7561   1.352   6.613   8.667  0.0805 -0.6167  1.0170
   81SAPS  H20R 7562   1.277   6.531   8.666 -1.3262  0.6249 -0.7773
   81SAPS  H20S 7563   1.411   6.604   8.574 -0.1894  0.7907  0.6907
   81SAPS  H20T 7564   1.296   6.709   8.672  2.4444  0.9305 -0.3379
   81SAPS   C33 7565   0.887   6.692  10.439  0.1537  0.0660 -0.4357
   81SAPS   H3X 7566   0.856   6.796  10.416 -1.2420 -0.0431  0.7721
   81SAPS   H3Y 7567   0.792   6.638  10.421  0.1284 -0.1545  0.3343
   81SAPS   C34 7568   0.989   6.630  10.345  0.4704  0.7003  0.6239
   81SAPS   H4X 7569   1.013   6.527  10.381  1.2305  0.9972  1.0002
   81SAPS   H4Y 7570   1.075   6.697  10.366  0.3721  0.8884  0.4236
   81SAPS   C35 7571   0.951   6.631  10.199 -0.6685  0.4221  0.3343
   81SAPS   H5X 7572   0.856   6.573  10.196 -0.6287  0.4016 -0.6651
   81SAPS   H5Y 7573   1.030   6.590  10.133 -0.1582  1.5753  0.2040
   81SAPS   C36 7574   0.926   6.776  10.147  0.6024  0.2473 -0.3805
   81SAPS   H6X 7575   1.020   6.836  10.143  1.3831 -1.0103 -2.7969
   81SAPS   H6Y 7576   0.862   6.836  10.215 -1.4481 -1.6381 -0.5702
   81SAPS   C37 7577   0.862   6.789  10.008 -0.2603  0.5590  0.8328
   81SAPS   H7X 7578   0.888   6.889   9.968  0.8486  0.1804  0.5795
   81SAPS   H7Y 7579   0.752   6.772  10.000 -0.5784  2.9405 -0.7052
   81SAPS   C38 7580   0.919   6.692   9.906 -0.2521  0.3586 -0.1869
   81SAPS   H8X 7581   0.881   6.591   9.932  0.5017  0.6999  2.5666
   81SAPS   H8Y 7582   1.030   6.680   9.909 -0.4284 -1.6133  0.1144
   81SAPS   C39 7583   0.863   6.718   9.762 -0.0619  0.7944 -0.5376
   81SAPS   H9X 7584   0.848   6.827   9.752  0.7838  0.9475 -0.1868
   81SAPS   H9Y 7585   0.768   6.661   9.752 -0.2643  1.2853 -1.5957
   81SAPS  C310 7586   0.959   6.658   9.655  0.6089 -0.8833  0.6618
   81SAPS  H10X 7587   1.007   6.566   9.695  1.8069 -1.0189 -1.0007
   81SAPS  H10Y 7588   1.039   6.733   9.635 -0.1053 -0.2216  0.2766
   81SAPS  C311 7589   0.888   6.636   9.519  0.2238 -0.5131  0.7714
   81SAPS  H11X 7590   0.806   6.562   9.520 -1.9640  1.5760 -2.8286
   81SAPS  H11Y 7591   0.970   6.597   9.456  1.0406  0.2710  1.3079
   81SAPS  C312 7592   0.839   6.770   9.452 -0.1557 -0.3099  0.5864
   81SAPS  H12X 7593   0.917   6.846   9.477  0.0795 -0.6963  1.0412
   81SAPS  H12Y 7594   0.746   6.802   9.502  0.9680  1.3571  1.7015
   81SAPS  C313 7595   0.827   6.760   9.295 -0.1572  0.0642 -0.0418
   81SAPS  H13X 7596   0.781   6.850   9.250 -0.4033 -0.5884 -1.1413
   81SAPS  H13Y 7597   0.758   6.674   9.281  1.5600 -1.4580  0.4347
   81SAPS  C314 7598   0.946   6.711   9.227 -0.3845  0.1702  0.0676
   81SAPS  H14X 7599   1.006   6.629   9.272  0.4586 -0.0916 -1.4489
   81SAPS  H14Y 7600   1.029   6.785   9.221  2.6175 -2.8957  0.7555
   81SAPS  C315 7601   0.912   6.682   9.077 -0.1219  0.5610 -0.0195
   81SAPS  H15X 7602   0.827   6.612   9.061  0.1460  0.4772 -1.1136
   81SAPS  H15Y 7603   1.001   6.633   9.034 -1.1589 -0.7656 -0.7023
   81SAPS  C316 7604   0.900   6.813   8.993 -0.3850  0.6850 -0.0302
   81SAPS  H16X 7605   0.981   6.882   9.025  1.9682 -1.7623 -0.2806
   81SAPS  H16Y 7606   0.804   6.861   9.019 -0.9445  0.4286 -1.5211
   81SAPS  C317 7607   0.911   6.788   8.838 -0.2136 -0.3309 -0.6411
   81SAPS  H17X 7608   1.019   6.774   8.816 -0.1758 -0.2337 -0.5155
   81SAPS  H17Y 7609   0.893   6.879   8.776  2.4953  0.4615 -0.3890
   81SAPS  C318 7610   0.842   6.677   8.765  0.0236 -0.9020  0.0734
   81SAPS  H18X 7611   0.735   6.706   8.761  0.3041  0.2156 -3.3015
   81SAPS  H18Y 7612   0.844   6.575   8.807 -4.9174 -0.7340  1.2234
   81SAPS  H18Z 7613   0.876   6.672   8.659 -1.6271  1.6282 -0.6812
   82SAPS     N 7614   0.858   1.486  11.009  0.5900 -0.1081  0.6474
   82SAPS   HN1 7615   0.778   1.551  10.997 -0.7221 -1.6667  0.5209
   82SAPS   HN2 7616   0.926   1.495  10.931 -2.4542 -1.6728 -2.4058
   82SAPS   HN3 7617   0.815   1.392  10.999  0.6793  0.0783 -1.9401
   82SAPS   C12 7618   0.913   1.478  11.154  0.3806  0.9065 -0.4051
   82SAPS  H12A 7619   0.993   1.550  11.166  1.4901 -0.2441 -0.6986
   82SAPS   C13 7620   0.823   1.516  11.272  0.7716 -0.1618  0.0560
   82SAPS  O13A 7621   0.704   1.545  11.245 -0.3321 -0.4385  0.3339
   82SAPS  O13B 7622   0.863   1.518  11.390  0.4335 -0.0908 -0.5448
   82SAPS   C11 7623   0.966   1.338  11.181 -0.1435 -0.6135 -0.8801
   82SAPS  H11A 7624   0.888   1.278  11.233 -1.4590  1.5436 -0.1834
   82SAPS  H11B 7625   1.046   1.361  11.253 -1.7029  0.0876  0.7079
   82SAPS     P 7626   1.099   1.140  11.073  0.4457 -0.0904 -0.2461
   82SAPS   O13 7627   1.243   1.171  11.075  0.0175 -0.1263  0.7291
   82SAPS   O14 7628   1.050   1.052  11.181  0.4766  0.6431  0.6921
   82SAPS   O12 7629   1.012   1.271  11.068  0.3420  0.0142  0.2393
   82SAPS   O11 7630   1.066   1.074  10.940 -0.5356  0.1167 -0.0494
   82SAPS    C1 7631   1.034   1.150  10.821  0.8826 -0.2372 -0.2931
   82SAPS    HA 7632   0.925   1.142  10.800  0.5154 -0.4872  1.4899
   82SAPS    HB 7633   1.058   1.258  10.823 -1.5815  0.3775 -0.1006
   82SAPS    C2 7634   1.118   1.082  10.706 -0.6482  0.2330  0.2079
   82SAPS    HS 7635   1.122   1.154  10.622 -1.6520  0.4689  0.3436
   82SAPS   O21 7636   1.055   0.958  10.664 -0.9264 -0.0027  0.2676
   82SAPS   C21 7637   0.988   0.951  10.552 -0.3297  0.6590  0.1706
   82SAPS   O22 7638   0.995   1.028  10.461 -0.4655 -0.2743  0.9707
   82SAPS   C22 7639   0.901   0.832  10.554 -0.5202  0.0415  0.5419
   82SAPS   H2R 7640   0.847   0.844  10.650 -0.7950 -1.1104  0.5518
   82SAPS   H2S 7641   0.830   0.826  10.468  4.4431 -1.7283 -4.0541
   82SAPS    C3 7642   1.264   1.064  10.749  0.0498 -0.8432  0.0075
   82SAPS    HX 7643   1.283   0.972  10.809 -0.6006 -1.2570 -0.4054
   82SAPS    HY 7644   1.292   1.146  10.819  1.4171 -1.7098  0.5036
   82SAPS   O31 7645   1.347   1.068  10.625 -0.5483  0.4516 -0.4808
   82SAPS   C31 7646   1.367   0.951  10.579 -0.5282  0.5416  0.4298
   82SAPS   O32 7647   1.361   0.841  10.635  0.1720  0.4015  0.4313
   82SAPS   C32 7648   1.413   0.958  10.437 -0.6371  0.2206  0.1604
   82SAPS   H2X 7649   1.517   0.919  10.433 -0.5553  0.4996 -0.4388
   82SAPS   H2Y 7650   1.418   1.065  10.410  0.6883  0.1077 -0.0758
   82SAPS   C23 7651   0.974   0.692  10.552 -0.3868  0.0314 -0.6120
   82SAPS   H3R 7652   0.914   0.616  10.606  0.3442  0.4599  0.8525
   82SAPS   H3S 7653   1.061   0.708  10.620 -0.2349 -4.4410  0.6144
   82SAPS   C24 7654   1.012   0.641  10.413  0.1552 -0.7202 -0.2118
   82SAPS   H4R 7655   1.070   0.547  10.426 -0.6369 -1.0488  1.2605
   82SAPS   H4S 7656   1.088   0.715  10.382  2.4390 -3.1159 -0.6991
   82SAPS   C25 7657   0.893   0.616  10.320  0.4039  0.3597 -0.5115
   82SAPS   H5R 7658   0.816   0.545  10.352  0.2799  0.0244 -1.5096
   82SAPS   C26 7659   0.876   0.679  10.204 -0.3096 -0.5140  0.1808
   82SAPS   H6R 7660   0.786   0.662  10.143  0.3312  2.5212 -1.7612
   82SAPS   C27 7661   0.954   0.792  10.149 -0.5298  0.4072  0.4597
   82SAPS   H7R 7662   1.027   0.835  10.221  0.3878  0.8453 -0.7028
   82SAPS   H7S 7663   0.892   0.878  10.113  1.6817  0.9959 -2.2878
   82SAPS   C28 7664   1.038   0.747  10.032  0.2967  0.3916 -0.2288
   82SAPS   H8R 7665   1.135   0.704  10.062 -0.0825  1.7402  3.3363
   82SAPS   C29 7666   1.006   0.742   9.901  0.5321  0.6062  0.0180
   82SAPS   H9R 7667   1.083   0.708   9.830  0.4195  1.5902 -0.5962
   82SAPS  C210 7668   0.869   0.783   9.837  0.1273  0.3472 -0.6679
   82SAPS  H10R 7669   0.800   0.788   9.924  0.7482  1.1524 -0.2029
   82SAPS  H10S 7670   0.832   0.701   9.773 -0.7755 -0.8122  1.2760
   82SAPS  C211 7671   0.897   0.915   9.765  0.6623  0.0489 -0.7671
   82SAPS  H11R 7672   0.903   0.998   9.837 -0.1745  0.6518 -1.3735
   82SAPS  C212 7673   0.943   0.928   9.634 -0.3045  0.5552 -0.5281
   82SAPS  H12R 7674   0.979   1.023   9.592 -0.2131  0.1614 -1.3626
   82SAPS  C213 7675   0.954   0.818   9.532 -0.4851  0.1915  0.5298
   82SAPS  H13R 7676   0.915   0.720   9.565  1.8349 -0.9501  0.1239
   82SAPS  H13S 7677   1.061   0.801   9.508 -0.4976  0.8090  0.0087
   82SAPS  C214 7678   0.899   0.851   9.395  0.5927 -0.0865 -0.3338
   82SAPS  H14R 7679   0.797   0.816   9.375  0.8447  0.1892 -2.3466
   82SAPS  C215 7680   0.956   0.910   9.290 -0.6053 -0.6370  0.5682
   82SAPS  H15R 7681   0.895   0.930   9.200  0.6167  0.4525 -0.0523
   82SAPS  C216 7682   1.092   0.972   9.288  0.5308  0.3563  0.6935
   82SAPS  H16R 7683   1.167   0.892   9.304 -0.8238 -1.5027 -1.5480
   82SAPS  H16S 7684   1.111   1.053   9.361  1.2253  1.0432 -0.2201
   82SAPS  C217 7685   1.135   1.021   9.144 -0.1059  0.0978 -0.2456
   82SAPS  H17R 7686   1.227   1.082   9.157  0.2456 -0.7161  1.3189
   82SAPS  H17S 7687   1.062   1.097   9.109  0.7593  0.6400 -0.9090
   82SAPS  C218 7688   1.158   0.915   9.037  0.1926  0.0803 -0.1884
   82SAPS  H18R 7689   1.055   0.889   9.005 -0.0597  0.9189 -0.0843
   82SAPS  H18S 7690   1.223   0.834   9.076  0.1413 -0.8140 -1.8865
   82SAPS  C219 7691   1.225   0.975   8.917 -0.1176  0.0923  0.0327
   82SAPS  H19R 7692   1.170   1.063   8.876 -0.3094 -0.2015 -0.3499
   82SAPS  H19S 7693   1.245   0.898   8.840 -1.4337  0.5080 -0.7728
   82SAPS  C220 7694   1.371   1.015   8.943  0.1262  0.5056  0.6692
   82SAPS  H20R 7695   1.437   0.927   8.962 -2.1870 -1.5774 -0.3162
   82SAPS  H20S 7696   1.388   1.087   9.025 -0.5331 -0.0243  1.2894
   82SAPS  H20T 7697   1.406   1.062   8.848 -0.0642 -0.5482  0.0562
   82SAPS   C33 7698   1.318   0.880  10.347  0.5234  0.2683  0.3272
   82SAPS   H3X 7699   1.215   0.921  10.348  1.3522  2.4550  1.0430
   82SAPS   H3Y 7700   1.327   0.775  10.383  0.5259  0.3224  0.4884
   82SAPS   C34 7701   1.360   0.871  10.204 -0.2535  0.0506 -0.5712
   82SAPS   H4X 7702   1.383   0.975  10.173  1.2237 -0.0873 -0.0065
   82SAPS   H4Y 7703   1.268   0.839  10.151  0.5404 -0.4972 -1.6585
   82SAPS   C35 7704   1.480   0.779  10.169 -0.4280 -0.5065  0.1889
   82SAPS   H5X 7705   1.474   0.677  10.213  2.4015 -1.1282 -0.6770
   82SAPS   H5Y 7706   1.569   0.828  10.213 -1.4101  1.5791 -0.0492
   82SAPS   C36 7707   1.504   0.767  10.014 -0.2513  0.1227 -0.0772
   82SAPS   H6X 7708   1.615   0.767   9.999  0.3999 -2.0387  3.6722
   82SAPS   H6Y 7709   1.475   0.866   9.974 -0.5132  0.1104  0.0803
   82SAPS   C37 7710   1.436   0.643   9.967  0.5293 -0.7267 -0.1981
   82SAPS   H7X 7711   1.327   0.628   9.982 -0.1236  2.0611 -1.3832
   82SAPS   H7Y 7712   1.487   0.562  10.024  0.6477 -0.0370  0.7072
   82SAPS   C38 7713   1.466   0.608   9.818  0.3768  0.1845 -0.0685
   82SAPS   H8X 7714   1.415   0.513   9.793 -0.2607 -0.1275  2.1406
   82SAPS   H8Y 7715   1.573   0.584   9.800  0.5124 -0.6221  1.5325
   82SAPS   C39 7716   1.414   0.714   9.723  0.7331 -0.1315  0.4730
   82SAPS   H9X 7717   1.476   0.805   9.734 -1.1600  1.0481  2.0167
   82SAPS   H9Y 7718   1.310   0.724   9.760 -0.2426 -3.2991 -1.0607
   82SAPS  C310 7719   1.396   0.683   9.575  0.2664 -0.0254  0.0531
   82SAPS  H10X 7720   1.332   0.592   9.575  1.1980 -0.6822 -0.2070
   82SAPS  H10Y 7721   1.482   0.639   9.522 -0.4462 -0.7517 -0.5336
   82SAPS  C311 7722   1.336   0.793   9.482 -0.3923  0.0288 -0.2623
   82SAPS  H11X 7723   1.252   0.837   9.538 -0.1944 -1.9791  1.7785
   82SAPS  H11Y 7724   1.295   0.750   9.388  1.9152  1.0329 -1.8344
   82SAPS  C312 7725   1.432   0.907   9.451 -0.2712 -0.2045  0.2037
   82SAPS  H12X 7726   1.455   0.947   9.552  0.6070 -2.1392  0.8093
   82SAPS  H12Y 7727   1.382   0.985   9.390  0.6686 -0.1362 -0.4961
   82SAPS  C313 7728   1.577   0.870   9.401  0.4655  0.1937 -0.9340
   82SAPS  H13X 7729   1.560   0.792   9.323  0.2962  0.3902 -1.0928
   82SAPS  H13Y 7730   1.631   0.836   9.493  2.0769 -2.1152 -2.6080
   82SAPS  C314 7731   1.653   0.985   9.341  0.2120 -0.0133  1.3083
   82SAPS  H14X 7732   1.760   0.956   9.334  0.1823  0.2155 -1.3571
   82SAPS  H14Y 7733   1.641   1.060   9.422 -2.6886  2.1355 -0.8648
   82SAPS  C315 7734   1.599   1.045   9.214  0.1412 -0.1244  0.2744
   82SAPS  H15X 7735   1.492   1.067   9.233  0.2058  0.0152  0.4779
   82SAPS  H15Y 7736   1.607   0.976   9.127  2.0611  0.6766 -0.2337
   82SAPS  C316 7737   1.669   1.179   9.179  0.0475  0.0321  0.1432
   82SAPS  H16X 7738   1.677   1.235   9.275 -0.9505  0.0912  0.1993
   82SAPS  H16Y 7739   1.608   1.242   9.111  3.8822  1.2693 -2.4757
   82SAPS  C317 7740   1.815   1.176   9.119  0.4002  0.5165 -0.5916
   82SAPS  H17X 7741   1.810   1.123   9.021  1.5842  0.1845 -0.4945
   82SAPS  H17Y 7742   1.888   1.117   9.179 -0.7804  1.3363  1.7991
   82SAPS  C318 7743   1.873   1.313   9.099  0.3649  0.2811  0.2983
   82SAPS  H18X 7744   1.810   1.363   9.021  0.0119  0.0020  0.4030
   82SAPS  H18Y 7745   1.979   1.307   9.066 -0.6135 -0.2002 -3.1982
   82SAPS  H18Z 7746   1.863   1.369   9.194  2.2927  1.2118  0.0074
   83SAPS     N 7747   3.407   1.502  11.132  0.2288 -0.1037  0.1316
   83SAPS   HN1 7748   3.326   1.469  11.075 -1.3276  0.7725  1.7358
   83SAPS   HN2 7749   3.424   1.597  11.094 -2.2461  0.9272  1.3934
   83SAPS   HN3 7750   3.494   1.449  11.110  0.7006  1.3460 -1.7932
   83SAPS   C12 7751   3.363   1.507  11.275  0.2216 -0.1964 -0.5285
   83SAPS  H12A 7752   3.363   1.409  11.319 -1.5833  0.1582  0.3401
   83SAPS   C13 7753   3.446   1.603  11.355 -0.3183 -0.1844 -0.5834
   83SAPS  O13A 7754   3.527   1.688  11.306 -0.3421 -0.5258 -0.4725
   83SAPS  O13B 7755   3.413   1.609  11.479  0.1039 -0.1133  0.7350
   83SAPS   C11 7756   3.211   1.550  11.276 -0.8796  0.5077  0.0400
   83SAPS  H11A 7757   3.204   1.653  11.233 -0.6274 -0.3904 -2.3489
   83SAPS  H11B 7758   3.169   1.548  11.378 -0.0706  1.8220  0.4186
   83SAPS     P 7759   2.997   1.480  11.131 -0.2808  0.0697  0.4528
   83SAPS   O13 7760   2.976   1.420  10.997  0.1261  0.1061 -0.4742
   83SAPS   O14 7761   2.909   1.430  11.236  0.4637 -0.0560  0.2571
   83SAPS   O12 7762   3.136   1.457  11.193 -0.6057  0.0328 -0.4241
   83SAPS   O11 7763   2.979   1.638  11.140 -0.3371 -0.2642  0.0006
   83SAPS    C1 7764   3.018   1.721  11.029  0.8133  0.2188 -0.2713
   83SAPS    HA 7765   3.085   1.806  11.055 -0.1145  1.5998 -2.1515
   83SAPS    HB 7766   3.073   1.669  10.948 -0.5215  0.3261 -1.2815
   83SAPS    C2 7767   2.886   1.768  10.957  0.0665 -0.2500  0.0513
   83SAPS    HS 7768   2.827   1.785  11.050  0.1844 -1.8323  0.4449
   83SAPS   O21 7769   2.837   1.663  10.878 -0.5097  0.5423 -0.3439
   83SAPS   C21 7770   2.706   1.650  10.886 -0.2012  0.3559  0.7927
   83SAPS   O22 7771   2.630   1.700  10.967 -0.0112 -0.1769  0.1365
   83SAPS   C22 7772   2.653   1.558  10.783 -0.2168  0.0814 -0.7241
   83SAPS   H2R 7773   2.737   1.500  10.739  1.2832  1.9815 -0.5045
   83SAPS   H2S 7774   2.583   1.481  10.821 -1.0809  0.0925 -2.2254
   83SAPS    C3 7775   2.897   1.894  10.871  0.3706  0.6654 -0.7311
   83SAPS    HX 7776   2.972   1.884  10.790 -1.6361 -1.4417 -2.4561
   83SAPS    HY 7777   2.923   1.976  10.942 -4.4772  0.4047  1.7497
   83SAPS   O31 7778   2.768   1.929  10.814  0.0142  0.5010  0.1840
   83SAPS   C31 7779   2.683   2.006  10.885 -0.4049 -0.7642 -0.3538
   83SAPS   O32 7780   2.704   2.052  10.996  0.6942 -0.8085 -0.7130
   83SAPS   C32 7781   2.548   2.013  10.809  0.3785  0.4372 -0.2519
   83SAPS   H2X 7782   2.476   2.039  10.890 -0.0590 -0.6163 -0.2818
   83SAPS   H2Y 7783   2.530   1.910  10.771  0.4292 -0.3047  1.6129
   83SAPS   C23 7784   2.581   1.619  10.662  0.1152 -0.1189 -1.1089
   83SAPS   H3R 7785   2.661   1.670  10.604  1.4222  3.5990  3.3646
   83SAPS   H3S 7786   2.528   1.706  10.707  1.1612 -0.0048 -0.0185
   83SAPS   C24 7787   2.479   1.525  10.598 -0.1663  0.3328  0.0717
   83SAPS   H4R 7788   2.422   1.593  10.531 -0.8587  0.8810  1.1904
   83SAPS   H4S 7789   2.420   1.489  10.686  1.3945 -1.7957  0.3297
   83SAPS   C25 7790   2.526   1.394  10.541  0.8080  0.3252  0.1391
   83SAPS   H5R 7791   2.551   1.314  10.611 -0.7267  0.5963  1.0527
   83SAPS   C26 7792   2.547   1.366  10.418  0.8093  0.4974  0.5881
   83SAPS   H6R 7793   2.578   1.265  10.388  1.1223  0.0904  2.1914
   83SAPS   C27 7794   2.526   1.459  10.303 -0.3952 -0.3086 -0.4556
   83SAPS   H7R 7795   2.585   1.420  10.217 -3.7012 -0.7764 -2.7130
   83SAPS   H7S 7796   2.573   1.550  10.347  0.7835 -1.2595  0.3030
   83SAPS   C28 7797   2.383   1.482  10.263  0.2035  0.4821  0.3184
   83SAPS   H8R 7798   2.314   1.510  10.344  0.9459 -0.8465  1.4575
   83SAPS   C29 7799   2.341   1.458  10.140  0.4271 -0.1016  0.4143
   83SAPS   H9R 7800   2.235   1.462  10.110  0.7651  0.5566 -0.7763
   83SAPS  C210 7801   2.431   1.412  10.024  0.2191 -0.8344 -0.2061
   83SAPS  H10R 7802   2.360   1.366   9.952 -1.1698  0.5448  0.2240
   83SAPS  H10S 7803   2.500   1.328  10.048 -1.3298 -2.5995 -1.6284
   83SAPS  C211 7804   2.508   1.529   9.958 -0.7049 -0.1650  0.4607
   83SAPS  H11R 7805   2.561   1.603  10.019 -1.3309 -1.2497  2.4123
   83SAPS  C212 7806   2.489   1.562   9.827 -0.1149 -0.0267 -0.2455
   83SAPS  H12R 7807   2.543   1.648   9.783  1.0139 -0.1081  0.9523
   83SAPS  C213 7808   2.404   1.489   9.728  0.2504  0.0532  1.1261
   83SAPS  H13R 7809   2.301   1.522   9.749  0.3903  0.8816  0.5433
   83SAPS  H13S 7810   2.414   1.379   9.741  2.2589  0.2790  1.9248
   83SAPS  C214 7811   2.418   1.505   9.578 -0.2305 -0.2111  0.4316
   83SAPS  H14R 7812   2.509   1.556   9.543 -0.9692 -1.1749 -3.2150
   83SAPS  C215 7813   2.334   1.460   9.477  0.0140 -0.1276 -0.2020
   83SAPS  H15R 7814   2.356   1.483   9.371 -4.0443  1.0941 -0.9443
   83SAPS  C216 7815   2.211   1.380   9.496  0.0415 -0.2546 -0.0319
   83SAPS  H16R 7816   2.118   1.437   9.481 -0.3933 -0.4390  1.7205
   83SAPS  H16S 7817   2.220   1.338   9.599  2.0360  0.3863  0.1054
   83SAPS  C217 7818   2.192   1.259   9.404  0.4183 -0.1073  1.0084
   83SAPS  H17R 7819   2.272   1.187   9.429  0.3052 -0.9622 -0.9175
   83SAPS  H17S 7820   2.210   1.294   9.300  2.8914 -0.6256  1.1980
   83SAPS  C218 7821   2.058   1.192   9.417 -0.3777  0.0677 -0.3050
   83SAPS  H18R 7822   2.060   1.100   9.354  1.4781 -0.9737  1.1425
   83SAPS  H18S 7823   1.983   1.261   9.372  2.6806  1.1083 -4.3822
   83SAPS  C219 7824   2.035   1.139   9.566  0.4998 -0.5264 -0.2381
   83SAPS  H19R 7825   2.132   1.138   9.619 -1.0112  1.2971  2.8446
   83SAPS  H19S 7826   1.992   1.037   9.566  0.4261 -0.4986 -0.7559
   83SAPS  C220 7827   1.958   1.233   9.659  0.5570 -0.2822  0.1504
   83SAPS  H20R 7828   1.852   1.259   9.637  0.4549 -0.0234  0.9089
   83SAPS  H20S 7829   2.020   1.323   9.677  0.1135  0.2532 -0.9519
   83SAPS  H20T 7830   1.954   1.178   9.756 -0.1354 -1.8855 -0.7432
   83SAPS   C33 7831   2.549   2.121  10.706  0.2762 -0.2139 -0.1776
   83SAPS   H3X 7832   2.548   2.225  10.744 -1.2947 -0.5188  0.7359
   83SAPS   H3Y 7833   2.454   2.112  10.649 -0.7532 -0.9110  1.5500
   83SAPS   C34 7834   2.651   2.092  10.590 -0.0465 -0.9795  0.1242
   83SAPS   H4X 7835   2.629   1.997  10.536  0.6667 -1.2382  0.2849
   83SAPS   H4Y 7836   2.750   2.075  10.637 -0.6822 -1.2768  1.3903
   83SAPS   C35 7837   2.667   2.198  10.484 -0.0307 -0.3188  0.9602
   83SAPS   H5X 7838   2.757   2.259  10.509  1.1316 -1.7477  0.3865
   83SAPS   H5Y 7839   2.580   2.266  10.490  0.4344  0.9661 -3.2809
   83SAPS   C36 7840   2.689   2.149  10.344  0.3943 -0.4325  0.4892
   83SAPS   H6X 7841   2.596   2.100  10.306  0.1628  1.4657 -1.5884
   83SAPS   H6Y 7842   2.776   2.081  10.351  0.2620 -0.7446 -0.6956
   83SAPS   C37 7843   2.707   2.269  10.242  0.4552 -0.1183 -0.2779
   83SAPS   H7X 7844   2.789   2.333  10.281 -2.1127  2.7340  0.9477
   83SAPS   H7Y 7845   2.615   2.331  10.234  2.2565  2.7251 -0.6270
   83SAPS   C38 7846   2.731   2.225  10.093 -0.6300 -0.3864 -0.6995
   83SAPS   H8X 7847   2.646   2.160  10.063 -0.7437 -0.1287 -0.9346
   83SAPS   H8Y 7848   2.828   2.170  10.099 -0.3304 -0.2026 -2.9413
   83SAPS   C39 7849   2.765   2.340  10.008 -0.0462 -0.1660 -0.1981
   83SAPS   H9X 7850   2.863   2.390  10.026 -1.3850  1.7824  2.1963
   83SAPS   H9Y 7851   2.695   2.414  10.051  0.0874 -1.0202  1.5746
   83SAPS  C310 7852   2.730   2.319   9.861  0.4092 -0.2235  0.4788
   83SAPS  H10X 7853   2.652   2.395   9.840 -0.3041 -1.3233 -1.0170
   83SAPS  H10Y 7854   2.685   2.218   9.848 -0.7385  0.5160 -1.6297
   83SAPS  C311 7855   2.858   2.326   9.777 -0.2325 -0.1099  0.3015
   83SAPS  H11X 7856   2.934   2.247   9.796  1.3411  0.9902 -1.0567
   83SAPS  H11Y 7857   2.903   2.427   9.791  0.0059  0.0940 -1.7054
   83SAPS  C312 7858   2.816   2.322   9.631  0.3581  0.4412 -0.0740
   83SAPS  H12X 7859   2.765   2.414   9.597 -1.7769 -0.1521  1.3299
   83SAPS  H12Y 7860   2.740   2.241   9.623  0.0776  0.8169 -1.6846
   83SAPS  C313 7861   2.937   2.300   9.550  0.0955  0.1018 -0.1843
   83SAPS  H13X 7862   3.004   2.219   9.586 -0.3007 -0.6956 -1.1724
   83SAPS  H13Y 7863   2.998   2.393   9.549  2.8994 -1.6004 -2.4123
   83SAPS  C314 7864   2.898   2.287   9.401  0.5154  0.1776 -0.1055
   83SAPS  H14X 7865   2.836   2.372   9.365 -0.0787 -0.6208 -1.0227
   83SAPS  H14Y 7866   2.838   2.195   9.381 -1.2552  1.4234 -0.7811
   83SAPS  C315 7867   3.022   2.273   9.312 -0.2541 -0.1366  0.0929
   83SAPS  H15X 7868   3.087   2.184   9.323  1.2602  0.8960 -0.1259
   83SAPS  H15Y 7869   3.081   2.362   9.343  0.6559 -0.4159 -0.7657
   83SAPS  C316 7870   3.006   2.285   9.158  0.5408  0.4342  0.0425
   83SAPS  H16X 7871   2.960   2.386   9.146  0.6265  0.9216  2.9082
   83SAPS  H16Y 7872   2.946   2.198   9.128  0.9372  0.0035  0.4751
   83SAPS  C317 7873   3.138   2.283   9.080  0.0915 -0.0269  0.0731
   83SAPS  H17X 7874   3.211   2.201   9.098  1.0061  0.7038 -0.2083
   83SAPS  H17Y 7875   3.193   2.371   9.121 -3.1737  2.2962 -0.1879
   83SAPS  C318 7876   3.126   2.308   8.927 -0.3351 -0.2923 -0.4901
   83SAPS  H18X 7877   3.063   2.233   8.874 -0.2806  0.0732 -1.0825
   83SAPS  H18Y 7878   3.229   2.301   8.887  0.5617 -1.1301  1.8049
   83SAPS  H18Z 7879   3.082   2.409   8.910  1.0999  0.5346  0.5239
   84SAPS     N 7880   4.797   2.251  11.505  0.0210  0.5082 -0.3723
   84SAPS   HN1 7881   4.855   2.281  11.425 -0.5353  0.3005 -0.8612
   84SAPS   HN2 7882   4.853   2.278  11.588 -2.1290  2.2751  0.6229
   84SAPS   HN3 7883   4.798   2.147  11.511 -0.4049  0.3489 -2.3779
   84SAPS   C12 7884   4.671   2.331  11.483  0.3084  0.0809 -0.3320
   84SAPS  H12A 7885   4.607   2.321  11.569 -0.9411  2.2056 -0.9493
   84SAPS   C13 7886   4.684   2.486  11.480 -0.1065 -0.6920  0.2794
   84SAPS  O13A 7887   4.800   2.529  11.504 -0.1172 -0.3594  0.2095
   84SAPS  O13B 7888   4.587   2.553  11.531 -0.0042  0.2420 -0.0641
   84SAPS   C11 7889   4.606   2.288  11.344  0.4752 -0.7568 -0.6352
   84SAPS  H11A 7890   4.506   2.337  11.341  0.8665  0.0939 -0.3363
   84SAPS  H11B 7891   4.578   2.181  11.343  1.9881 -1.1712 -0.8254
   84SAPS     P 7892   4.643   2.407  11.105  0.1589  0.1104  0.0594
   84SAPS   O13 7893   4.580   2.538  11.138  0.3724 -0.3867 -0.2109
   84SAPS   O14 7894   4.760   2.414  11.024 -0.5179 -0.3687  0.3360
   84SAPS   O12 7895   4.687   2.320  11.230 -0.0746 -0.1951 -0.3969
   84SAPS   O11 7896   4.538   2.321  11.036 -0.0221  0.6917 -0.6692
   84SAPS    C1 7897   4.582   2.198  10.967  0.0801 -0.8742 -0.6986
   84SAPS    HA 7898   4.664   2.219  10.896  1.1486 -0.2791  0.6668
   84SAPS    HB 7899   4.629   2.133  11.045  1.2040  1.4840  0.7007
   84SAPS    C2 7900   4.466   2.121  10.901 -0.1181  0.2203  0.5698
   84SAPS    HS 7901   4.510   2.044  10.834  1.9598  0.6796  1.3259
   84SAPS   O21 7902   4.368   2.209  10.833  0.2354  0.6417 -0.6782
   84SAPS   C21 7903   4.418   2.251  10.721  0.3717  0.5284  0.0152
   84SAPS   O22 7904   4.529   2.231  10.685 -0.1148  0.4066  0.0286
   84SAPS   C22 7905   4.320   2.336  10.641  0.5674  0.8165 -0.0862
   84SAPS   H2R 7906   4.303   2.281  10.545  0.8963 -0.5246  0.6043
   84SAPS   H2S 7907   4.223   2.341  10.693  0.3769 -0.6871 -0.2288
   84SAPS    C3 7908   4.389   2.039  11.015 -0.0612 -0.3057  0.1744
   84SAPS    HX 7909   4.356   2.119  11.086  3.4573  2.6559 -1.2178
   84SAPS    HY 7910   4.455   1.968  11.068  2.5774 -0.8198 -3.4849
   84SAPS   O31 7911   4.287   1.958  10.952 -0.0259 -0.6909  0.0935
   84SAPS   C31 7912   4.169   2.027  10.948  0.2959 -0.5842  1.1671
   84SAPS   O32 7913   4.143   2.137  11.001  0.4704  0.4088 -0.3120
   84SAPS   C32 7914   4.081   1.965  10.828  0.8091 -0.1921 -0.7631
   84SAPS   H2X 7915   3.975   1.998  10.839 -0.0211 -2.3288 -1.6965
   84SAPS   H2Y 7916   4.076   1.858  10.857  0.7942  0.0804  0.2709
   84SAPS   C23 7917   4.381   2.473  10.612  0.2192 -0.1424 -0.6579
   84SAPS   H3R 7918   4.461   2.492  10.687  0.3059 -2.1889 -0.1553
   84SAPS   H3S 7919   4.299   2.548  10.609  0.4945  0.1436 -1.1555
   84SAPS   C24 7920   4.447   2.476  10.478  0.2173  0.9372 -0.0695
   84SAPS   H4R 7921   4.374   2.449  10.398  0.8282  3.3288 -1.5362
   84SAPS   H4S 7922   4.519   2.392  10.471  0.1049  0.7075  1.3079
   84SAPS   C25 7923   4.517   2.608  10.441 -0.3107  0.4158 -0.0326
   84SAPS   H5R 7924   4.572   2.664  10.519  2.1135  2.6775 -3.0992
   84SAPS   C26 7925   4.521   2.661  10.318  0.3772  0.6208 -0.2915
   84SAPS   H6R 7926   4.574   2.757  10.307  0.6710  0.3263 -1.6710
   84SAPS   C27 7927   4.469   2.610  10.193  0.3478  0.1149 -0.3350
   84SAPS   H7R 7928   4.396   2.529  10.217  1.6329 -2.1528 -3.3899
   84SAPS   H7S 7929   4.552   2.578  10.127  0.4642  0.8589 -0.5569
   84SAPS   C28 7930   4.375   2.706  10.131 -0.7467  0.1482 -0.4380
   84SAPS   H8R 7931   4.323   2.770  10.204 -1.1483  1.0451 -1.4724
   84SAPS   C29 7932   4.355   2.720  10.003 -0.6133 -0.4144  0.7108
   84SAPS   H9R 7933   4.291   2.801   9.965  1.0034  1.5735  1.9683
   84SAPS  C210 7934   4.418   2.639   9.888 -0.2933 -0.0938 -0.3808
   84SAPS  H10R 7935   4.335   2.582   9.841 -0.6768  0.8233 -0.8302
   84SAPS  H10S 7936   4.482   2.561   9.935 -1.8749  0.1914  2.4528
   84SAPS  C211 7937   4.496   2.717   9.788 -0.3856 -0.4967 -0.3351
   84SAPS  H11R 7938   4.587   2.764   9.826  0.3078 -1.3975 -0.8439
   84SAPS  C212 7939   4.464   2.750   9.664  0.6140  0.4983  0.7339
   84SAPS  H12R 7940   4.543   2.815   9.624  0.3082  0.4493  0.0217
   84SAPS  C213 7941   4.348   2.698   9.580 -0.6532  1.1941  1.3629
   84SAPS  H13R 7942   4.276   2.782   9.568 -2.8807 -0.8579 -0.8908
   84SAPS  H13S 7943   4.286   2.616   9.621  0.1152 -0.1640 -0.0846
   84SAPS  C214 7944   4.390   2.639   9.444  0.4995 -0.0406  0.2030
   84SAPS  H14R 7945   4.403   2.530   9.435 -0.1078 -0.1199  0.2577
   84SAPS  C215 7946   4.433   2.709   9.337  1.0354 -1.1133 -0.0466
   84SAPS  H15R 7947   4.465   2.657   9.245 -0.0505 -3.0526  0.6145
   84SAPS  C216 7948   4.445   2.863   9.323  0.5856  0.5724 -0.1551
   84SAPS  H16R 7949   4.555   2.881   9.312  0.4098  0.3829 -3.2158
   84SAPS  H16S 7950   4.411   2.901   9.422  1.2898  1.7860 -0.3533
   84SAPS  C217 7951   4.372   2.918   9.202  0.5795 -0.3207  0.6615
   84SAPS  H17R 7952   4.340   3.024   9.208  2.0707  0.0872  1.9344
   84SAPS  H17S 7953   4.283   2.852   9.187  1.7708 -2.0997  1.0367
   84SAPS  C218 7954   4.447   2.901   9.063  0.0918 -0.3642 -0.7197
   84SAPS  H18R 7955   4.443   2.797   9.026  0.2300 -1.3835  1.9009
   84SAPS  H18S 7956   4.553   2.924   9.086  0.1942 -1.0223 -0.5301
   84SAPS  C219 7957   4.394   2.997   8.954  0.4504  0.1858  0.0147
   84SAPS  H19R 7958   4.386   3.101   8.993  2.5393  0.4371 -0.1146
   84SAPS  H19S 7959   4.292   2.967   8.920  0.1922 -2.0830  2.4889
   84SAPS  C220 7960   4.493   2.993   8.838  0.0563 -0.4559 -0.3159
   84SAPS  H20R 7961   4.474   3.049   8.744  0.8798 -2.0339 -1.4608
   84SAPS  H20S 7962   4.502   2.890   8.797  1.1963 -1.5459  2.4710
   84SAPS  H20T 7963   4.591   3.023   8.881 -1.0511  2.2390  0.5486
   84SAPS   C33 7964   4.138   2.002  10.694 -0.6042 -0.3607  0.1299
   84SAPS   H3X 7965   4.232   1.943  10.690  0.1954  0.9319 -1.0176
   84SAPS   H3Y 7966   4.179   2.105  10.696  0.4839 -0.7751 -0.2856
   84SAPS   C34 7967   4.046   1.987  10.574  0.0132  0.4489  0.0832
   84SAPS   H4X 7968   3.958   2.053  10.588  0.0905  1.0487 -1.9025
   84SAPS   H4Y 7969   4.001   1.887  10.555 -2.5017  1.4390  0.4838
   84SAPS   C35 7970   4.109   2.038  10.446 -0.6376  0.1620 -0.7606
   84SAPS   H5X 7971   4.212   1.996  10.436  0.1248  1.8491 -0.3244
   84SAPS   H5Y 7972   4.129   2.147  10.453  1.4374 -0.2618  1.2180
   84SAPS   C36 7973   4.019   2.010  10.331 -0.1387  0.3200 -0.4629
   84SAPS   H6X 7974   3.918   2.053  10.351 -1.1524 -2.1802  0.1314
   84SAPS   H6Y 7975   4.011   1.900  10.320  1.6684  0.1626 -0.4658
   84SAPS   C37 7976   4.093   2.059  10.206  0.4757 -0.3138 -0.7247
   84SAPS   H7X 7977   4.194   2.013  10.208  1.2037  1.2415  0.2796
   84SAPS   H7Y 7978   4.118   2.167  10.201 -0.5931 -0.0425 -0.4801
   84SAPS   C38 7979   4.004   2.029  10.084  0.2036  0.1914 -0.4135
   84SAPS   H8X 7980   3.905   2.078  10.095 -0.4361 -1.1577  0.0102
   84SAPS   H8Y 7981   3.986   1.920  10.079 -0.4700 -0.2357  5.2002
   84SAPS   C39 7982   4.066   2.063   9.950 -0.1899  0.4743  0.5378
   84SAPS   H9X 7983   4.175   2.053   9.964 -0.4309 -0.7287  1.8012
   84SAPS   H9Y 7984   4.046   2.171   9.938  0.8511  0.7532  1.2632
   84SAPS  C310 7985   3.995   1.978   9.840  0.4275  0.1972 -0.9250
   84SAPS  H10X 7986   3.885   1.985   9.849  0.4196 -1.3493  0.8566
   84SAPS  H10Y 7987   4.015   1.869   9.844 -2.4353 -0.4303 -1.7786
   84SAPS  C311 7988   4.033   2.031   9.706  0.5803  0.0355  0.1396
   84SAPS  H11X 7989   4.142   2.046   9.695  0.5475 -0.8388 -1.8218
   84SAPS  H11Y 7990   3.993   2.134   9.689 -0.6381 -0.5957 -1.0076
   84SAPS  C312 7991   3.973   1.944   9.589 -0.0895 -0.5820 -0.3054
   84SAPS  H12X 7992   3.863   1.931   9.606 -0.2871  1.5542  0.2772
   84SAPS  H12Y 7993   4.015   1.841   9.600  0.7535 -0.1708  0.4728
   84SAPS  C313 7994   3.985   1.994   9.446 -0.1221 -0.2080 -0.4917
   84SAPS  H13X 7995   4.084   2.038   9.422 -1.2710  2.5724 -0.5588
   84SAPS  H13Y 7996   3.901   2.064   9.425  0.9819  0.8255 -1.6723
   84SAPS  C314 7997   3.961   1.890   9.332  0.5679 -0.0739  0.2715
   84SAPS  H14X 7998   3.860   1.847   9.347 -0.1250  1.9450  1.8594
   84SAPS  H14Y 7999   4.034   1.809   9.355 -0.1579 -0.9741 -0.5306
   84SAPS  C315 8000   3.971   1.931   9.182  0.5768  0.2641 -0.6817
   84SAPS  H15X 8001   4.074   1.963   9.154  0.5032  1.3912  0.2521
   84SAPS  H15Y 8002   3.907   2.022   9.186 -0.2604 -0.3332  2.7609
   84SAPS  C316 8003   3.923   1.827   9.086  0.2597 -0.1586  0.2855
   84SAPS  H16X 8004   3.827   1.784   9.121 -1.3463  1.0470 -2.3283
   84SAPS  H16Y 8005   4.003   1.753   9.066  0.2945  0.4256 -2.0236
   84SAPS  C317 8006   3.875   1.891   8.954 -0.3177 -0.2704  0.8142
   84SAPS  H17X 8007   3.952   1.938   8.890 -1.6568  2.3732  0.9975
   84SAPS  H17Y 8008   3.811   1.979   8.978  1.4858  1.8607 -1.6434
   84SAPS  C318 8009   3.794   1.798   8.859  0.0753 -0.2293 -0.1967
   84SAPS  H18X 8010   3.847   1.708   8.821  0.4915  0.1662 -0.5506
   84SAPS  H18Y 8011   3.773   1.860   8.770  0.2963  1.4845  0.8912
   84SAPS  H18Z 8012   3.696   1.778   8.908  0.1914  0.8050  0.4897
   85SAPS     N 8013   0.847   3.057  10.968  0.5771  0.0702  0.0417
   85SAPS   HN1 8014   0.850   3.157  10.998 -0.0291 -0.0445  0.4979
   85SAPS   HN2 8015   0.789   3.053  10.881 -0.1493 -0.2314  0.5260
   85SAPS   HN3 8016   0.811   3.000  11.047  0.2040 -0.2181 -0.3270
   85SAPS   C12 8017   0.986   3.019  10.936 -0.2370  0.3621 -0.1848
   85SAPS  H12A 8018   1.039   3.026  11.030 -1.9083 -1.2547  0.9563
   85SAPS   C13 8019   0.991   2.864  10.898  0.4357 -0.0266 -0.1187
   85SAPS  O13A 8020   0.876   2.804  10.882  0.4744 -0.0440 -0.5755
   85SAPS  O13B 8021   1.102   2.812  10.889  0.0443  0.3440 -0.0526
   85SAPS   C11 8022   1.035   3.103  10.813  0.0538  0.6076  0.4012
   85SAPS  H11A 8023   0.972   3.077  10.724  0.6396 -0.9414  0.4052
   85SAPS  H11B 8024   1.139   3.078  10.784 -0.0756  0.6396 -0.1120
   85SAPS     P 8025   1.132   3.355  10.857 -0.0221 -0.0023  0.1351
   85SAPS   O13 8026   1.109   3.413  10.988  0.2189  0.2283 -0.1211
   85SAPS   O14 8027   1.257   3.284  10.842 -0.2863  0.1729  0.4319
   85SAPS   O12 8028   1.019   3.243  10.829  0.0724  0.2413  0.0141
   85SAPS   O11 8029   1.111   3.461  10.740 -0.0822  0.6783  0.7328
   85SAPS    C1 8030   1.032   3.433  10.625  0.5714 -0.0650 -0.1712
   85SAPS    HA 8031   0.932   3.402  10.663  0.5780  2.4194  2.2093
   85SAPS    HB 8032   1.009   3.536  10.590 -2.8531 -1.1362 -1.5128
   85SAPS    C2 8033   1.098   3.337  10.534  0.0701 -0.4305  0.3023
   85SAPS    HS 8034   1.135   3.251  10.593 -0.2271 -1.8920 -1.5552
   85SAPS   O21 8035   1.204   3.395  10.456  0.2182 -0.4110 -0.6042
   85SAPS   C21 8036   1.302   3.323  10.403  0.1951  0.3033  0.2075
   85SAPS   O22 8037   1.334   3.213  10.438  0.1210 -0.2211  0.1344
   85SAPS   C22 8038   1.357   3.404  10.285  0.4605  0.1277  0.5201
   85SAPS   H2R 8039   1.316   3.507  10.275 -0.5725 -0.4321 -1.4494
   85SAPS   H2S 8040   1.465   3.409  10.308  0.0892  2.4868  2.1617
   85SAPS    C3 8041   1.000   3.280  10.428  0.1430 -0.0539 -0.1320
   85SAPS    HX 8042   0.977   3.368  10.365  0.2840 -0.1021 -0.2522
   85SAPS    HY 8043   0.901   3.256  10.473 -0.1754  2.3477  0.5578
   85SAPS   O31 8044   1.062   3.186  10.333  0.2598  0.3048 -0.9137
   85SAPS   C31 8045   1.053   3.060  10.370  0.1995  0.2203 -0.4886
   85SAPS   O32 8046   1.000   3.009  10.468  0.0200  0.0107 -0.1563
   85SAPS   C32 8047   1.094   2.968  10.255  0.0873  0.6838  0.3815
   85SAPS   H2X 8048   1.178   3.017  10.203  0.9556  0.2971  1.3821
   85SAPS   H2Y 8049   1.017   2.972  10.175 -0.7852 -0.7448  1.0944
   85SAPS   C23 8050   1.315   3.331  10.156 -0.0898 -0.4313 -0.3023
   85SAPS   H3R 8051   1.205   3.322  10.147 -0.1315 -0.8410  0.5558
   85SAPS   H3S 8052   1.350   3.226  10.161  0.5223 -0.2014  3.7415
   85SAPS   C24 8053   1.377   3.395  10.028  0.7466  0.7244 -0.6289
   85SAPS   H4R 8054   1.371   3.325   9.942 -0.6063 -0.6251  0.4971
   85SAPS   H4S 8055   1.485   3.408  10.049  1.5193 -0.6413 -3.2851
   85SAPS   C25 8056   1.313   3.523   9.990 -0.5765  0.1312  0.1834
   85SAPS   H5R 8057   1.210   3.522   9.950 -0.0117  2.0861 -1.4940
   85SAPS   C26 8058   1.379   3.634   9.976 -0.1839 -1.1686 -0.7940
   85SAPS   H6R 8059   1.323   3.720   9.936  0.1520  1.0673  2.9976
   85SAPS   C27 8060   1.522   3.659  10.003  0.1151 -0.3140  0.2359
   85SAPS   H7R 8061   1.571   3.684   9.907 -1.5733 -2.3519 -1.2299
   85SAPS   H7S 8062   1.579   3.576  10.051  1.0641 -0.0319 -0.3868
   85SAPS   C28 8063   1.523   3.781  10.089  0.2462 -0.2384 -0.3601
   85SAPS   H8R 8064   1.484   3.770  10.191  0.6442  1.3199 -0.0074
   85SAPS   C29 8065   1.559   3.909  10.052  0.2646 -0.1707  0.0871
   85SAPS   H9R 8066   1.556   3.987  10.129 -0.9378  1.6605 -1.7044
   85SAPS  C210 8067   1.618   3.945   9.922  0.4952  0.0222  0.0757
   85SAPS  H10R 8068   1.562   3.893   9.841 -1.5328 -0.8083  1.9441
   85SAPS  H10S 8069   1.720   3.901   9.934  0.4873  0.2508  1.0051
   85SAPS  C211 8070   1.631   4.092   9.896 -0.8593  0.0973  1.2219
   85SAPS  H11R 8071   1.575   4.165   9.957 -0.4936  2.7543 -1.3702
   85SAPS  C212 8072   1.669   4.136   9.774 -0.0118  0.4757  0.2915
   85SAPS  H12R 8073   1.684   4.243   9.756  2.2980 -0.1219 -1.7573
   85SAPS  C213 8074   1.710   4.059   9.647 -0.1047 -0.0414  0.6528
   85SAPS  H13R 8075   1.738   3.958   9.683  0.3480  0.2861  1.2585
   85SAPS  H13S 8076   1.802   4.096   9.597 -0.1941 -0.9565 -0.2082
   85SAPS  C214 8077   1.590   4.061   9.553 -1.0370 -0.2644 -0.2010
   85SAPS  H14R 8078   1.497   4.013   9.587 -1.4637  0.4487 -0.3561
   85SAPS  C215 8079   1.584   4.127   9.437  0.2710 -0.3489  0.1662
   85SAPS  H15R 8080   1.491   4.116   9.378  0.6574 -0.6229 -0.4047
   85SAPS  C216 8081   1.683   4.226   9.379 -0.7633  0.6299 -0.3280
   85SAPS  H16R 8082   1.785   4.201   9.416 -0.4022 -0.1579 -1.8035
   85SAPS  H16S 8083   1.665   4.333   9.403  0.7537  1.0956 -1.1089
   85SAPS  C217 8084   1.687   4.200   9.231  0.7602  0.3045  0.5331
   85SAPS  H17R 8085   1.597   4.249   9.187  0.5689  0.6913  1.3456
   85SAPS  H17S 8086   1.691   4.091   9.209  0.1624  0.4151 -0.1542
   85SAPS  C218 8087   1.811   4.268   9.161 -0.4417 -0.0406 -0.3499
   85SAPS  H18R 8088   1.896   4.215   9.209  0.4258 -0.1977 -1.9812
   85SAPS  H18S 8089   1.805   4.377   9.179 -3.3155 -0.1451 -0.1925
   85SAPS  C219 8090   1.828   4.238   9.008 -0.3495 -0.5091 -0.0043
   85SAPS  H19R 8091   1.731   4.239   8.955  0.0641  0.8255 -0.7884
   85SAPS  H19S 8092   1.872   4.137   8.998 -1.3510 -0.9964  0.4530
   85SAPS  C220 8093   1.933   4.328   8.938  0.2564  0.1960 -0.4930
   85SAPS  H20R 8094   1.899   4.434   8.945  0.4426  0.2552 -0.4855
   85SAPS  H20S 8095   1.952   4.289   8.836  0.8828 -0.3024 -0.1943
   85SAPS  H20T 8096   2.031   4.325   8.991 -0.6277  1.7679  1.3388
   85SAPS   C33 8097   1.133   2.826  10.288  0.4851 -0.4085 -0.8892
   85SAPS   H3X 8098   1.067   2.789  10.370  2.1223 -0.7826  0.3192
   85SAPS   H3Y 8099   1.234   2.832  10.333 -0.3192 -1.4229  1.1889
   85SAPS   C34 8100   1.153   2.731  10.166 -0.4486 -0.0197 -1.1684
   85SAPS   H4X 8101   1.197   2.794  10.086  0.6684 -0.4289 -0.8941
   85SAPS   H4Y 8102   1.054   2.686  10.144 -1.5261  1.5667  0.1573
   85SAPS   C35 8103   1.252   2.619  10.206  0.1081  1.0432  0.2498
   85SAPS   H5X 8104   1.204   2.573  10.295 -0.9029  1.8151  0.1199
   85SAPS   H5Y 8105   1.348   2.667  10.236  2.1790 -3.7570  2.2579
   85SAPS   C36 8106   1.284   2.527  10.088 -0.6687 -0.1958  0.5910
   85SAPS   H6X 8107   1.323   2.584  10.001  0.6460 -0.7251  0.7998
   85SAPS   H6Y 8108   1.198   2.467  10.051 -0.4201 -0.6953  0.8077
   85SAPS   C37 8109   1.398   2.428  10.124 -0.3686 -0.0644 -0.1114
   85SAPS   H7X 8110   1.351   2.341  10.175 -2.7671  1.4205  0.3742
   85SAPS   H7Y 8111   1.469   2.460  10.203  0.5573 -0.8866 -0.5846
   85SAPS   C38 8112   1.479   2.370  10.007  0.6000  0.1149 -0.4854
   85SAPS   H8X 8113   1.529   2.282  10.051  0.7768  1.7972  3.0092
   85SAPS   H8Y 8114   1.556   2.434   9.959  1.4687 -1.4324 -1.2368
   85SAPS   C39 8115   1.392   2.332   9.883  0.0484  0.6012 -0.2964
   85SAPS   H9X 8116   1.317   2.413   9.868  0.8292  1.7876  1.8303
   85SAPS   H9Y 8117   1.335   2.239   9.905 -0.3085  0.4516 -1.7247
   85SAPS  C310 8118   1.470   2.307   9.749 -0.2284 -0.0037  0.2679
   85SAPS  H10X 8119   1.535   2.217   9.748  1.4353  1.1497 -0.3658
   85SAPS  H10Y 8120   1.532   2.395   9.720  0.6261 -1.2760 -1.9719
   85SAPS  C311 8121   1.358   2.312   9.641 -0.0433 -0.6020  0.1846
   85SAPS  H11X 8122   1.266   2.267   9.683  0.6737 -1.6265  0.6787
   85SAPS  H11Y 8123   1.393   2.256   9.552 -2.4029 -0.7328 -0.7463
   85SAPS  C312 8124   1.323   2.452   9.585 -0.0046 -0.3803  0.5314
   85SAPS  H12X 8125   1.301   2.525   9.665  1.4296 -1.9383  2.4450
   85SAPS  H12Y 8126   1.234   2.447   9.519  0.4237 -0.0479 -0.0857
   85SAPS  C313 8127   1.424   2.516   9.496  0.1890  0.5086  0.6277
   85SAPS  H13X 8128   1.515   2.532   9.557 -0.1033  0.1548  1.1554
   85SAPS  H13Y 8129   1.399   2.621   9.472  1.9599  0.9566  0.5684
   85SAPS  C314 8130   1.455   2.437   9.363 -0.5305 -0.2667 -0.2684
   85SAPS  H14X 8131   1.362   2.421   9.304 -1.6802  3.1965  0.4049
   85SAPS  H14Y 8132   1.506   2.342   9.389 -3.1086 -0.9970  2.6217
   85SAPS  C315 8133   1.543   2.518   9.259 -0.6307 -0.1666 -1.1528
   85SAPS  H15X 8134   1.633   2.565   9.303 -2.1030  1.3221  0.4211
   85SAPS  H15Y 8135   1.477   2.602   9.227 -2.2639 -1.8609 -2.5177
   85SAPS  C316 8136   1.575   2.447   9.129 -0.1554 -0.2474  0.6972
   85SAPS  H16X 8137   1.493   2.423   9.058  0.3973 -0.9782  0.2945
   85SAPS  H16Y 8138   1.619   2.347   9.151 -0.8771 -0.6643  0.2848
   85SAPS  C317 8139   1.666   2.533   9.028  0.9212 -0.4002  0.1786
   85SAPS  H17X 8140   1.760   2.554   9.083 -0.8890  0.6972  3.0684
   85SAPS  H17Y 8141   1.607   2.622   8.998 -0.4635 -1.5741 -0.6862
   85SAPS  C318 8142   1.693   2.450   8.899  0.3321 -0.2917 -0.9558
   85SAPS  H18X 8143   1.596   2.436   8.845 -2.0018  1.5009  2.3831
   85SAPS  H18Y 8144   1.730   2.351   8.931 -1.7282 -0.3599  1.5441
   85SAPS  H18Z 8145   1.775   2.495   8.838 -0.9715  1.7055 -1.3556
   86SAPS     N 8146   3.797   1.677  11.261 -0.5357  0.1393  0.1578
   86SAPS   HN1 8147   3.812   1.628  11.171 -4.1842 -2.5535  0.8242
   86SAPS   HN2 8148   3.825   1.607  11.333 -2.5742 -2.5790 -1.5168
   86SAPS   HN3 8149   3.694   1.690  11.270 -0.7354 -0.6598 -0.9034
   86SAPS   C12 8150   3.864   1.806  11.271 -0.3393  0.0609  0.1626
   86SAPS  H12A 8151   3.811   1.868  11.341  0.9642 -0.7521  1.9344
   86SAPS   C13 8152   4.016   1.791  11.310 -0.5551  0.0965  0.3207
   86SAPS  O13A 8153   4.067   1.675  11.335  0.0791  0.1363 -0.4525
   86SAPS  O13B 8154   4.090   1.895  11.318 -0.4311  0.4036 -0.0478
   86SAPS   C11 8155   3.863   1.873  11.127 -0.2060 -0.0993  0.2335
   86SAPS  H11A 8156   3.924   1.817  11.053  2.2791  1.8005  0.7033
   86SAPS  H11B 8157   3.913   1.972  11.137 -0.1981 -0.0831  0.0465
   86SAPS     P 8158   3.650   2.022  11.120  0.5431  0.2866  0.0674
   86SAPS   O13 8159   3.502   1.995  11.122  0.3137  0.1879  0.4729
   86SAPS   O14 8160   3.706   2.093  11.236 -0.0881  0.2178 -0.5682
   86SAPS   O12 8161   3.727   1.884  11.095  0.0637  0.2879 -0.4779
   86SAPS   O11 8162   3.689   2.105  10.996  0.8593  0.1252 -0.1791
   86SAPS    C1 8163   3.668   2.055  10.866  0.1100  0.3447  1.1181
   86SAPS    HA 8164   3.763   2.033  10.813 -0.8644 -0.8139 -0.2294
   86SAPS    HB 8165   3.597   1.969  10.867 -0.4562  0.7382 -0.8000
   86SAPS    C2 8166   3.587   2.156  10.769 -0.1158 -0.4906 -0.7326
   86SAPS    HS 8167   3.534   2.101  10.689  0.7685  1.6001 -2.8479
   86SAPS   O21 8168   3.680   2.253  10.722  0.1010  0.1753  0.1555
   86SAPS   C21 8169   3.730   2.211  10.604 -0.5983  0.1373  0.6155
   86SAPS   O22 8170   3.717   2.098  10.557 -0.3570 -0.2566 -0.2376
   86SAPS   C22 8171   3.807   2.322  10.534  0.1978  0.4058 -0.9003
   86SAPS   H2R 8172   3.899   2.268  10.501 -0.9942  0.1817 -4.2009
   86SAPS   H2S 8173   3.758   2.339  10.436  1.1101 -3.0801 -2.1009
   86SAPS    C3 8174   3.479   2.238  10.848  0.5271  0.4865 -0.1620
   86SAPS    HX 8175   3.525   2.288  10.935 -1.8236  1.2695  0.7070
   86SAPS    HY 8176   3.407   2.162  10.884  0.8999  0.0705 -0.2993
   86SAPS   O31 8177   3.418   2.331  10.770 -0.1019  0.2891 -0.0412
   86SAPS   C31 8178   3.416   2.464  10.796 -0.1725  1.0023 -0.5133
   86SAPS   O32 8179   3.477   2.516  10.884 -0.8942  0.3829 -0.1466
   86SAPS   C32 8180   3.332   2.539  10.687  0.1272  0.6874 -0.1564
   86SAPS   H2X 8181   3.256   2.591  10.749  0.0084 -0.0802  0.3502
   86SAPS   H2Y 8182   3.280   2.461  10.628  0.4289 -0.3307  0.8972
   86SAPS   C23 8183   3.845   2.438  10.631  0.0979  0.3637 -0.0479
   86SAPS   H3R 8184   3.858   2.397  10.733 -0.1938  0.9704  0.2312
   86SAPS   H3S 8185   3.754   2.500  10.641 -0.8081 -1.1530  1.6216
   86SAPS   C24 8186   3.971   2.509  10.590 -0.3555  0.8273  0.1291
   86SAPS   H4R 8187   4.050   2.433  10.573  0.3938  0.6898  3.6211
   86SAPS   H4S 8188   4.009   2.582  10.665 -0.9365 -0.1956  1.4490
   86SAPS   C25 8189   3.941   2.598  10.474  0.0262 -0.4956  0.4094
   86SAPS   H5R 8190   3.881   2.687  10.495 -0.0999 -0.4052 -0.3218
   86SAPS   C26 8191   3.970   2.571  10.344  0.0583  0.0802  0.0242
   86SAPS   H6R 8192   3.956   2.648  10.267 -0.4476 -0.5062 -0.4737
   86SAPS   C27 8193   4.034   2.438  10.294  0.1448 -0.5571  0.1779
   86SAPS   H7R 8194   4.049   2.353  10.364  1.0102 -0.9326 -0.4376
   86SAPS   H7S 8195   4.135   2.463  10.254  0.8867 -1.0104  1.6657
   86SAPS   C28 8196   3.947   2.386  10.183  0.1824  0.4576  0.0713
   86SAPS   H8R 8197   3.855   2.333  10.213 -0.3405  0.8780 -0.7617
   86SAPS   C29 8198   3.969   2.404  10.051  0.2601  0.2738 -0.0347
   86SAPS   H9R 8199   3.886   2.364   9.989 -1.1846 -0.5308  2.2765
   86SAPS  C210 8200   4.085   2.468   9.978 -0.4567  0.1855 -0.2592
   86SAPS  H10R 8201   4.151   2.390   9.935 -2.6917 -0.2957 -3.1833
   86SAPS  H10S 8202   4.143   2.526  10.053 -1.7401  0.7986  0.2931
   86SAPS  C211 8203   4.032   2.556   9.865 -0.0012  0.0678  0.5204
   86SAPS  H11R 8204   3.984   2.650   9.896  0.0426  1.6132 -3.4049
   86SAPS  C212 8205   4.032   2.529   9.730 -0.0610 -0.4802 -0.3683
   86SAPS  H12R 8206   4.005   2.612   9.663  1.2483  0.0669 -0.2493
   86SAPS  C213 8207   4.076   2.403   9.655 -0.1713  0.2636 -0.1485
   86SAPS  H13R 8208   4.070   2.320   9.729  0.4159 -1.7603 -2.2254
   86SAPS  H13S 8209   4.184   2.406   9.630  0.0436  1.1617  0.8519
   86SAPS  C214 8210   3.997   2.381   9.533  0.1656  0.3115 -0.2695
   86SAPS  H14R 8211   3.892   2.368   9.562  0.8298 -1.9015  1.3799
   86SAPS  C215 8212   4.038   2.363   9.404 -0.3595  0.1646  0.6430
   86SAPS  H15R 8213   3.960   2.353   9.327 -2.5273  1.9060  2.4420
   86SAPS  C216 8214   4.175   2.365   9.350 -0.0394  0.0261 -0.0245
   86SAPS  H16R 8215   4.237   2.313   9.426 -0.6180 -0.3432  0.2006
   86SAPS  H16S 8216   4.202   2.472   9.339 -1.6895  0.6750  1.6591
   86SAPS  C217 8217   4.193   2.283   9.224  0.4689  0.1677  0.7979
   86SAPS  H17R 8218   4.133   2.191   9.214 -0.8503  1.1922 -1.8562
   86SAPS  H17S 8219   4.302   2.262   9.223  0.7080  1.3099 -0.2817
   86SAPS  C218 8220   4.174   2.354   9.087  0.1442  0.4669 -0.3103
   86SAPS  H18R 8221   4.070   2.390   9.074  0.1244  0.3742 -0.4006
   86SAPS  H18S 8222   4.194   2.288   9.000  0.7810  0.0186  0.1694
   86SAPS  C219 8223   4.272   2.467   9.078  0.5926  0.1322 -0.1576
   86SAPS  H19R 8224   4.378   2.436   9.094  0.4871  0.0727  0.4533
   86SAPS  H19S 8225   4.261   2.535   9.165  1.1232 -0.7112  0.6015
   86SAPS  C220 8226   4.253   2.535   8.939 -0.0857  0.2568 -0.4535
   86SAPS  H20R 8227   4.147   2.556   8.913 -0.0934  0.2625 -0.4169
   86SAPS  H20S 8228   4.298   2.477   8.856  2.8206 -1.6933  2.2499
   86SAPS  H20T 8229   4.310   2.630   8.937  1.9770 -0.9134 -1.5929
   86SAPS   C33 8230   3.409   2.637  10.603 -0.5891 -0.6734  0.7711
   86SAPS   H3X 8231   3.493   2.684  10.661  1.3959 -4.5144  1.3374
   86SAPS   H3Y 8232   3.339   2.720  10.581 -1.3380 -1.5139 -0.0367
   86SAPS   C34 8233   3.457   2.579  10.473 -0.0019 -0.2567  0.2182
   86SAPS   H4X 8234   3.379   2.534  10.408 -1.0985 -0.5475  1.6864
   86SAPS   H4Y 8235   3.538   2.505  10.489  1.4823  1.4843  1.2280
   86SAPS   C35 8236   3.528   2.684  10.382  0.2609 -0.5177 -0.4733
   86SAPS   H5X 8237   3.620   2.721  10.432  0.3751  0.4814 -1.3757
   86SAPS   H5Y 8238   3.457   2.769  10.374  0.5388 -0.0035  1.9373
   86SAPS   C36 8239   3.552   2.616  10.251  0.4293 -0.4179  0.8535
   86SAPS   H6X 8240   3.453   2.598  10.203  0.7466 -0.4905  0.2185
   86SAPS   H6Y 8241   3.600   2.518  10.272  1.6420  0.0050  0.1567
   86SAPS   C37 8242   3.638   2.708  10.159  0.7339  0.5133 -0.2288
   86SAPS   H7X 8243   3.741   2.724  10.199 -0.1260  3.4102  1.0784
   86SAPS   H7Y 8244   3.586   2.806  10.165  0.4255  0.3212  0.3791
   86SAPS   C38 8245   3.648   2.655  10.019 -0.4167  0.5569  0.4270
   86SAPS   H8X 8246   3.549   2.611   9.995 -0.0097 -0.6239  0.8413
   86SAPS   H8Y 8247   3.714   2.566  10.016 -2.6384 -1.2001 -3.7281
   86SAPS   C39 8248   3.682   2.753   9.903 -0.2602 -0.2147 -0.6594
   86SAPS   H9X 8249   3.782   2.798   9.918 -1.0840  1.4565  0.0508
   86SAPS   H9Y 8250   3.605   2.828   9.875  0.6497 -0.3192 -3.8736
   86SAPS  C310 8251   3.666   2.674   9.772  0.7567  0.0050 -0.2706
   86SAPS  H10X 8252   3.568   2.622   9.766  0.4832  0.1424  1.9152
   86SAPS  H10Y 8253   3.742   2.593   9.779 -0.5025 -1.1690  0.3373
   86SAPS  C311 8254   3.695   2.761   9.648  0.0498 -0.7832 -0.0154
   86SAPS  H11X 8255   3.801   2.788   9.666  0.6334 -2.0926 -1.2477
   86SAPS  H11Y 8256   3.644   2.859   9.650  1.2415 -0.0560 -2.1283
   86SAPS  C312 8257   3.679   2.682   9.518 -0.3524 -0.5812 -0.3179
   86SAPS  H12X 8258   3.573   2.679   9.484 -0.6556  0.4105  0.4957
   86SAPS  H12Y 8259   3.701   2.576   9.545  1.2215 -0.1893  0.0060
   86SAPS  C313 8260   3.778   2.728   9.406 -0.4455  0.3143 -0.5823
   86SAPS  H13X 8261   3.880   2.734   9.450 -0.9129  1.6280  0.3806
   86SAPS  H13Y 8262   3.755   2.833   9.377 -0.4143  0.6282  0.4994
   86SAPS  C314 8263   3.767   2.645   9.282 -0.3982  0.4406  0.8516
   86SAPS  H14X 8264   3.665   2.651   9.238 -0.2804 -0.8979  0.3445
   86SAPS  H14Y 8265   3.787   2.537   9.298 -0.4386  0.3181  0.1260
   86SAPS  C315 8266   3.867   2.682   9.172  0.1790  0.1133  0.1856
   86SAPS  H15X 8267   3.888   2.600   9.100  3.4646  0.4035  0.6866
   86SAPS  H15Y 8268   3.969   2.690   9.214  0.3787 -2.3708  0.3145
   86SAPS  C316 8269   3.822   2.806   9.091  0.4058 -0.0075 -0.1571
   86SAPS  H16X 8270   3.840   2.899   9.149  0.9578  0.5067 -1.1277
   86SAPS  H16Y 8271   3.714   2.806   9.063 -0.5380  0.3935  3.0637
   86SAPS  C317 8272   3.900   2.819   8.959  0.4469  0.0383  0.1965
   86SAPS  H17X 8273   4.007   2.826   8.988  0.9467  0.0849 -1.5671
   86SAPS  H17Y 8274   3.871   2.917   8.914 -0.3561  0.0591  0.7298
   86SAPS  C318 8275   3.877   2.705   8.854 -1.4524 -0.4278  0.6695
   86SAPS  H18X 8276   3.893   2.603   8.895 -1.0295 -0.4055  0.5719
   86SAPS  H18Y 8277   3.951   2.719   8.772 -1.7697 -2.7075 -0.0425
   86SAPS  H18Z 8278   3.775   2.709   8.811 -0.4889  0.4352 -1.6829
   87SAPS     N 8279   3.386   3.344  11.208 -0.0703 -0.3941  0.4244
   87SAPS   HN1 8280   3.413   3.253  11.252  2.3413  0.2180  0.3114
   87SAPS   HN2 8281   3.297   3.391  11.235 -1.1634 -0.3991 -2.7277
   87SAPS   HN3 8282   3.381   3.325  11.106 -2.2091  2.3291 -0.1010
   87SAPS   C12 8283   3.490   3.437  11.230 -0.4959  0.2213  0.1704
   87SAPS  H12A 8284   3.467   3.521  11.166  0.6429  0.9267  0.6570
   87SAPS   C13 8285   3.512   3.487  11.375 -0.6736  1.1978  0.5856
   87SAPS  O13A 8286   3.478   3.404  11.471  0.3255  0.2623 -0.2921
   87SAPS  O13B 8287   3.593   3.578  11.393  0.0256  0.4611  0.0028
   87SAPS   C11 8288   3.620   3.367  11.178 -0.4473 -0.9633  0.2319
   87SAPS  H11A 8289   3.653   3.298  11.258  1.6589  0.3726  0.5895
   87SAPS  H11B 8290   3.693   3.450  11.169 -0.8361 -0.7353 -1.0295
   87SAPS     P 8291   3.686   3.183  11.008 -0.4061 -0.1964  0.4823
   87SAPS   O13 8292   3.790   3.146  11.104  0.3274  0.1981  0.1708
   87SAPS   O14 8293   3.585   3.077  10.978  0.2204  0.7163 -0.6345
   87SAPS   O12 8294   3.610   3.308  11.051  0.0514 -0.5595  0.5354
   87SAPS   O11 8295   3.751   3.236  10.882 -0.0018  0.6321 -0.0586
   87SAPS    C1 8296   3.716   3.185  10.754  0.0035  0.0252 -0.1841
   87SAPS    HA 8297   3.755   3.081  10.761  2.0571  0.8144  1.3669
   87SAPS    HB 8298   3.606   3.181  10.735  0.0182 -0.5580 -0.1734
   87SAPS    C2 8299   3.774   3.257  10.634 -0.4131  0.2251 -0.2789
   87SAPS    HS 8300   3.735   3.361  10.627  0.9454  1.0077  2.4525
   87SAPS   O21 8301   3.741   3.179  10.516 -0.9357 -0.3196  0.1360
   87SAPS   C21 8302   3.629   3.221  10.453  0.3204  0.6411  0.0561
   87SAPS   O22 8303   3.544   3.290  10.497  0.1427  0.1511 -0.1832
   87SAPS   C22 8304   3.623   3.144  10.323 -0.3390 -0.3966  0.4107
   87SAPS   H2R 8305   3.702   3.180  10.254 -1.5387  2.3704  0.3330
   87SAPS   H2S 8306   3.613   3.036  10.346  0.3968 -0.7029 -0.6397
   87SAPS    C3 8307   3.930   3.274  10.650  0.3682  0.5327  0.3351
   87SAPS    HX 8308   3.972   3.172  10.664 -0.4226  0.1398 -0.1172
   87SAPS    HY 8309   3.955   3.336  10.738 -0.4742  0.6678  0.4829
   87SAPS   O31 8310   3.986   3.320  10.526  0.3633 -0.3469  0.4072
   87SAPS   C31 8311   4.119   3.321  10.525  0.3596  0.6611 -0.1026
   87SAPS   O32 8312   4.198   3.301  10.613  0.3333 -0.0556 -0.6175
   87SAPS   C32 8313   4.150   3.347  10.384 -0.0840  0.1350  0.6261
   87SAPS   H2X 8314   4.085   3.421  10.333 -0.6672 -1.1789 -0.5899
   87SAPS   H2Y 8315   4.135   3.251  10.331  0.6160  1.6018 -2.4289
   87SAPS   C23 8316   3.498   3.171  10.243  0.0200 -0.1599  0.4471
   87SAPS   H3R 8317   3.477   3.280  10.228  1.1775 -0.2707 -2.6503
   87SAPS   H3S 8318   3.405   3.128  10.288  0.0766  0.6625  1.3949
   87SAPS   C24 8319   3.511   3.119  10.102  0.0159 -0.4643  0.6370
   87SAPS   H4R 8320   3.407   3.116  10.065 -0.0091 -0.0433  0.6582
   87SAPS   H4S 8321   3.543   3.013  10.107 -2.0674 -1.1124  1.0548
   87SAPS   C25 8322   3.592   3.201  10.005 -0.1436  0.5727 -0.2076
   87SAPS   H5R 8323   3.668   3.267  10.048 -0.1218  0.2179  0.3043
   87SAPS   C26 8324   3.584   3.199   9.868  0.5392  0.5837 -0.2308
   87SAPS   H6R 8325   3.643   3.262   9.801  1.7803  0.8422  1.0423
   87SAPS   C27 8326   3.498   3.103   9.789 -0.4559 -0.0872  0.6260
   87SAPS   H7R 8327   3.454   3.027   9.857  1.5904 -0.2249  1.8750
   87SAPS   H7S 8328   3.565   3.026   9.746 -1.6090 -0.2694 -0.9116
   87SAPS   C28 8329   3.403   3.161   9.687  0.0295  0.2778 -0.0053
   87SAPS   H8R 8330   3.314   3.208   9.730 -0.5505 -0.8731  0.0949
   87SAPS   C29 8331   3.407   3.151   9.551  0.4885 -0.3815 -0.1320
   87SAPS   H9R 8332   3.321   3.195   9.498  0.1434 -0.3729  0.4362
   87SAPS  C210 8333   3.509   3.084   9.466  0.7913  0.2823  0.1856
   87SAPS  H10R 8334   3.566   3.011   9.528  0.6552  0.0670  0.0595
   87SAPS  H10S 8335   3.571   3.170   9.436 -1.8993  2.5667  0.7457
   87SAPS  C211 8336   3.446   3.006   9.351  0.4570  0.4987 -0.7742
   87SAPS  H11R 8337   3.377   2.926   9.382 -0.1070  0.9116 -0.9408
   87SAPS  C212 8338   3.448   3.045   9.226 -0.7810  0.6731  0.4938
   87SAPS  H12R 8339   3.396   2.985   9.150 -0.2846 -0.4535  1.0255
   87SAPS  C213 8340   3.515   3.165   9.162  0.2307 -0.0442 -0.4148
   87SAPS  H13R 8341   3.561   3.234   9.236  3.4329 -0.4129 -1.9163
   87SAPS  H13S 8342   3.437   3.223   9.108 -0.4681 -1.7970 -1.3817
   87SAPS  C214 8343   3.622   3.120   9.070 -0.3006 -0.1942  0.6581
   87SAPS  H14R 8344   3.717   3.115   9.125 -0.0033  1.2245  0.3317
   87SAPS  C215 8345   3.614   3.099   8.935 -0.2713  0.1258 -0.7152
   87SAPS  H15R 8346   3.707   3.087   8.878 -0.5022 -0.5051 -0.9698
   87SAPS  C216 8347   3.493   3.094   8.854  0.3435  0.2250  0.3877
   87SAPS  H16R 8348   3.405   3.127   8.913 -0.6468 -1.8265  0.1380
   87SAPS  H16S 8349   3.463   2.998   8.808 -0.7745 -0.1124  1.7574
   87SAPS  C217 8350   3.488   3.197   8.727  0.0125  0.8249 -0.7249
   87SAPS  H17R 8351   3.382   3.193   8.694 -0.6436 -0.9315  1.3190
   87SAPS  H17S 8352   3.548   3.146   8.649  2.0288 -0.0589  1.2706
   87SAPS  C218 8353   3.525   3.343   8.748 -0.0347  0.1952  0.1169
   87SAPS  H18R 8354   3.512   3.390   8.648  0.5933 -2.7482 -1.4703
   87SAPS  H18S 8355   3.633   3.346   8.775 -0.1351 -1.6005  0.8688
   87SAPS  C219 8356   3.445   3.414   8.850  0.3449  0.0159 -0.6885
   87SAPS  H19R 8357   3.471   3.522   8.857  1.3152 -0.2264 -0.3718
   87SAPS  H19S 8358   3.455   3.363   8.948  1.6261  0.1350 -0.7465
   87SAPS  C220 8359   3.297   3.415   8.817 -0.4728  1.2002  0.7812
   87SAPS  H20R 8360   3.256   3.311   8.819 -0.2781  1.1115  0.2675
   87SAPS  H20S 8361   3.273   3.460   8.719  0.5165  0.8738  0.3759
   87SAPS  H20T 8362   3.244   3.473   8.896 -1.0531  0.0563  1.2653
   87SAPS   C33 8363   4.298   3.384  10.359  0.1959 -0.1929 -0.1226
   87SAPS   H3X 8364   4.327   3.438  10.451 -2.6158  1.8108 -0.3000
   87SAPS   H3Y 8365   4.310   3.461  10.280  2.2581 -1.5322 -1.2188
   87SAPS   C34 8366   4.392   3.270  10.317  0.0821 -0.4962 -0.1346
   87SAPS   H4X 8367   4.367   3.177  10.374 -0.6096  0.0961  0.5459
   87SAPS   H4Y 8368   4.499   3.294  10.333 -0.3113  3.3336 -2.1202
   87SAPS   C35 8369   4.381   3.245  10.169  1.0008 -0.3928  0.6775
   87SAPS   H5X 8370   4.406   3.339  10.115 -1.9075  1.8145  2.8288
   87SAPS   H5Y 8371   4.274   3.245  10.140  1.2413 -1.4177 -0.2341
   87SAPS   C36 8372   4.463   3.127  10.121 -0.2122 -0.1645 -0.5810
   87SAPS   H6X 8373   4.425   3.047  10.188  0.4237  0.8977  1.1082
   87SAPS   H6Y 8374   4.571   3.142  10.140 -0.8521  0.7627  2.9163
   87SAPS   C37 8375   4.451   3.086   9.971  0.0966 -0.1940  0.4963
   87SAPS   H7X 8376   4.344   3.077   9.942  0.7732  1.2121 -3.0345
   87SAPS   H7Y 8377   4.495   2.985   9.955  1.6983  0.4400  0.6319
   87SAPS   C38 8378   4.523   3.179   9.874  0.6942 -0.2649 -0.2340
   87SAPS   H8X 8379   4.628   3.153   9.898  0.2959 -0.9320  0.8509
   87SAPS   H8Y 8380   4.488   3.278   9.908 -0.6475 -0.5846 -0.6073
   87SAPS   C39 8381   4.494   3.143   9.731  0.2841  0.1731  0.0247
   87SAPS   H9X 8382   4.387   3.154   9.704  0.6001  1.9709 -0.6929
   87SAPS   H9Y 8383   4.523   3.040   9.704  2.6209  1.2464 -2.0212
   87SAPS  C310 8384   4.568   3.230   9.627  0.3172  0.7118  0.4815
   87SAPS  H10X 8385   4.678   3.230   9.644  0.5439 -0.2743 -0.8516
   87SAPS  H10Y 8386   4.514   3.327   9.628 -2.0899 -0.5435 -0.2861
   87SAPS  C311 8387   4.518   3.190   9.481  0.1852  0.0458 -0.3812
   87SAPS  H11X 8388   4.408   3.198   9.467 -0.3505 -1.3394  2.3357
   87SAPS  H11Y 8389   4.545   3.086   9.452  0.0375 -0.0803 -0.0782
   87SAPS  C312 8390   4.579   3.296   9.383  0.0534  0.9694 -0.0974
   87SAPS  H12X 8391   4.683   3.320   9.416 -0.3928  0.5771  1.6805
   87SAPS  H12Y 8392   4.534   3.396   9.400  1.0618  1.4731 -0.3211
   87SAPS  C313 8393   4.579   3.265   9.232 -0.4787 -0.4961  0.2888
   87SAPS  H13X 8394   4.475   3.242   9.201 -1.3876  0.2131  2.6409
   87SAPS  H13Y 8395   4.642   3.177   9.206 -0.4272 -0.0218 -1.3193
   87SAPS  C314 8396   4.613   3.391   9.148  0.2462 -0.3440  0.1207
   87SAPS  H14X 8397   4.722   3.416   9.148  0.3655 -0.6665 -2.0552
   87SAPS  H14Y 8398   4.555   3.479   9.184 -0.5425 -1.2920  1.2093
   87SAPS  C315 8399   4.575   3.367   9.002 -0.0562  0.3235  0.4914
   87SAPS  H15X 8400   4.465   3.377   9.002  0.0428  1.5980  0.5558
   87SAPS  H15Y 8401   4.600   3.260   8.983 -0.5908  0.2619  0.0992
   87SAPS  C316 8402   4.653   3.434   8.892  0.3620 -0.2368  0.2275
   87SAPS  H16X 8403   4.630   3.542   8.901 -0.5862 -0.4918  1.1526
   87SAPS  H16Y 8404   4.602   3.405   8.797  1.0244  1.3486 -0.6447
   87SAPS  C317 8405   4.801   3.407   8.877 -0.0422  0.1308 -0.3149
   87SAPS  H17X 8406   4.806   3.297   8.863  0.4248 -0.3690  2.8931
   87SAPS  H17Y 8407   4.863   3.425   8.968  0.3788  0.8333 -0.7349
   87SAPS  C318 8408   4.856   3.474   8.752 -0.4948  0.3775 -0.3354
   87SAPS  H18X 8409   4.800   3.453   8.658 -0.8807  1.5348 -0.3746
   87SAPS  H18Y 8410   4.965   3.455   8.740 -0.8023 -1.5918 -0.4087
   87SAPS  H18Z 8411   4.846   3.584   8.760  2.2980  0.8262 -1.7297
   88SAPS     N 8412   5.381   1.381  11.016  1.4143  0.4665  0.1440
   88SAPS   HN1 8413   5.309   1.371  10.941 -0.4674 -1.7031  2.1046
   88SAPS   HN2 8414   5.461   1.439  10.983  1.3881 -0.2552 -1.2688
   88SAPS   HN3 8415   5.410   1.289  11.053 -2.2373  0.0227  2.4201
   88SAPS   C12 8416   5.309   1.456  11.125 -1.0969 -0.6725 -0.0259
   88SAPS  H12A 8417   5.241   1.526  11.080 -0.5833  0.4767  0.9312
   88SAPS   C13 8418   5.244   1.366  11.222 -0.3858  0.3560  0.4034
   88SAPS  O13A 8419   5.220   1.242  11.201  0.7882 -0.5468 -0.1272
   88SAPS  O13B 8420   5.172   1.427  11.310 -0.7905 -0.2195 -0.6807
   88SAPS   C11 8421   5.412   1.547  11.203  0.4947  0.2219  0.0050
   88SAPS  H11A 8422   5.493   1.484  11.247  0.5646  0.3209  0.0177
   88SAPS  H11B 8423   5.363   1.606  11.283 -0.6902  0.6754 -1.0344
   88SAPS     P 8424   5.429   1.772  11.062 -0.2030  0.2841  0.6553
   88SAPS   O13 8425   5.296   1.799  11.121 -0.1774  0.1362  0.4608
   88SAPS   O14 8426   5.535   1.873  11.095  0.3272  0.9430 -0.2589
   88SAPS   O12 8427   5.481   1.630  11.109 -0.0039  0.5341 -0.3522
   88SAPS   O11 8428   5.414   1.759  10.908 -0.1725  0.3489 -0.9484
   88SAPS    C1 8429   5.510   1.683  10.833 -0.9243  0.1497  0.1461
   88SAPS    HA 8430   5.605   1.660  10.886 -0.6463  1.6745  0.3559
   88SAPS    HB 8431   5.469   1.582  10.814 -0.0747  0.1695 -2.0360
   88SAPS    C2 8432   5.561   1.741  10.702 -0.0516 -0.0654  0.2781
   88SAPS    HS 8433   5.605   1.839  10.731  0.4303 -0.4509  0.8849
   88SAPS   O21 8434   5.455   1.745  10.610  0.3835  0.4301 -0.7843
   88SAPS   C21 8435   5.436   1.860  10.559  0.9758 -0.7901 -0.1638
   88SAPS   O22 8436   5.479   1.968  10.603 -0.0710  0.3593  0.1707
   88SAPS   C22 8437   5.335   1.855  10.440 -0.0306  0.2907  1.1952
   88SAPS   H2R 8438   5.240   1.813  10.481 -0.2661 -1.2973 -0.7895
   88SAPS   H2S 8439   5.321   1.957  10.398 -3.2041 -0.9997 -1.3271
   88SAPS    C3 8440   5.685   1.663  10.631  0.0384 -0.0475  0.4065
   88SAPS    HX 8441   5.658   1.558  10.606  2.7121 -0.6453 -0.2004
   88SAPS    HY 8442   5.775   1.654  10.695 -0.2882 -1.3897  0.6977
   88SAPS   O31 8443   5.729   1.720  10.506  0.5856 -0.4270  0.3752
   88SAPS   C31 8444   5.796   1.834  10.500  0.1547 -0.8058 -0.3855
   88SAPS   O32 8445   5.814   1.913  10.596  0.2639  0.0146  0.2364
   88SAPS   C32 8446   5.851   1.861  10.365 -0.1867  0.0307  0.1310
   88SAPS   H2X 8447   5.886   1.766  10.320  2.4111  0.3146  1.3549
   88SAPS   H2Y 8448   5.946   1.916  10.380 -0.4875 -0.0968  3.4437
   88SAPS   C23 8449   5.367   1.761  10.325 -0.6554  0.1620  0.2619
   88SAPS   H3R 8450   5.396   1.665  10.372  0.9650  1.7494  2.7691
   88SAPS   H3S 8451   5.456   1.797  10.270 -1.2641  0.9459 -0.2399
   88SAPS   C24 8452   5.257   1.745  10.215  0.1097 -0.2766 -0.3879
   88SAPS   H4R 8453   5.163   1.719  10.268  0.2857 -0.7950 -0.3302
   88SAPS   H4S 8454   5.278   1.658  10.150  0.2623  0.2871 -1.1150
   88SAPS   C25 8455   5.241   1.867  10.132 -0.1992  0.2267 -0.0211
   88SAPS   H5R 8456   5.179   1.948  10.174 -0.2225  0.6087 -0.7812
   88SAPS   C26 8457   5.277   1.890  10.004 -0.6723 -0.2818  0.7863
   88SAPS   H6R 8458   5.262   1.991   9.962 -1.3865 -0.6328  0.1633
   88SAPS   C27 8459   5.351   1.807   9.903 -0.3653  0.1488  0.1246
   88SAPS   H7R 8460   5.298   1.827   9.808  1.1012 -0.8615 -0.9562
   88SAPS   H7S 8461   5.355   1.698   9.926  0.7836  0.4610  1.5796
   88SAPS   C28 8462   5.495   1.856   9.901  0.1899 -0.8783  0.4052
   88SAPS   H8R 8463   5.554   1.837   9.992 -1.5495 -0.0953  1.7451
   88SAPS   C29 8464   5.566   1.913   9.795 -0.1601  0.9725 -1.0848
   88SAPS   H9R 8465   5.672   1.941   9.800  0.3710 -0.5877 -2.6208
   88SAPS  C210 8466   5.519   1.939   9.659 -0.2164  0.2141 -0.0509
   88SAPS  H10R 8467   5.521   2.048   9.638  1.5124  0.5470  1.4750
   88SAPS  H10S 8468   5.418   1.898   9.640  1.1333 -1.9869 -3.4032
   88SAPS  C211 8469   5.596   1.870   9.552 -0.2696  1.1540 -0.5316
   88SAPS  H11R 8470   5.660   1.790   9.590 -1.2824 -0.2105 -1.5823
   88SAPS  C212 8471   5.597   1.907   9.421  0.0634 -0.5204  0.2944
   88SAPS  H12R 8472   5.653   1.852   9.344  0.2108  0.3486 -0.2403
   88SAPS  C213 8473   5.514   2.025   9.373  0.0623  0.0473 -0.3238
   88SAPS  H13R 8474   5.584   2.111   9.372  1.4165 -0.9189  2.0494
   88SAPS  H13S 8475   5.431   2.049   9.442 -0.0729 -2.1415  0.3552
   88SAPS  C214 8476   5.462   2.012   9.239 -0.0207 -0.4174  0.5087
   88SAPS  H14R 8477   5.353   1.993   9.241 -0.3186  0.9264 -0.8351
   88SAPS  C215 8478   5.515   2.040   9.115 -0.5924  0.1725  0.0412
   88SAPS  H15R 8479   5.465   1.993   9.029  1.9679 -0.2190 -1.3076
   88SAPS  C216 8480   5.653   2.103   9.082 -0.3723  0.0945 -0.1599
   88SAPS  H16R 8481   5.739   2.034   9.072  1.2971  1.8482  1.1178
   88SAPS  H16S 8482   5.687   2.160   9.171 -1.3760 -0.6492  0.7268
   88SAPS  C217 8483   5.655   2.216   8.970  0.1499  0.2062  0.0356
   88SAPS  H17R 8484   5.743   2.280   8.991  0.1670 -0.1665  1.1742
   88SAPS  H17S 8485   5.574   2.289   8.991 -1.8218 -2.0287  0.7022
   88SAPS  C218 8486   5.654   2.150   8.832 -0.2139 -0.6028 -0.3849
   88SAPS  H18R 8487   5.653   2.041   8.852 -4.3994 -0.2798  2.6395
   88SAPS  H18S 8488   5.750   2.194   8.797 -0.7876  0.1909 -0.9929
   88SAPS  C219 8489   5.534   2.194   8.746  0.0395 -0.1562  0.3273
   88SAPS  H19R 8490   5.539   2.303   8.726 -2.3025  0.5015  2.6863
   88SAPS  H19S 8491   5.446   2.177   8.812 -0.2337  1.1055  0.3070
   88SAPS  C220 8492   5.525   2.110   8.619  0.1977 -0.0886  0.1064
   88SAPS  H20R 8493   5.429   2.119   8.563  0.3874 -0.4023 -0.2694
   88SAPS  H20S 8494   5.535   2.002   8.643  0.3606  0.1150  0.9849
   88SAPS  H20T 8495   5.597   2.137   8.540 -0.7601 -0.0616 -0.7776
   88SAPS   C33 8496   5.752   1.949  10.285 -0.1234  0.0012  0.0740
   88SAPS   H3X 8497   5.737   2.040  10.347  0.0058  0.6293 -0.7988
   88SAPS   H3Y 8498   5.658   1.892  10.266  1.2634 -1.3879 -3.4047
   88SAPS   C34 8499   5.811   1.982  10.142 -0.4158  0.4135  0.5190
   88SAPS   H4X 8500   5.744   2.047  10.082 -1.0171 -1.7694 -1.3202
   88SAPS   H4Y 8501   5.827   1.884  10.093 -0.4720  1.6329 -2.0875
   88SAPS   C35 8502   5.948   2.047  10.145  1.0348 -0.2754  0.1698
   88SAPS   H5X 8503   6.030   1.981  10.180  2.5858  2.1046  1.3126
   88SAPS   H5Y 8504   5.947   2.142  10.202 -0.3593  1.6225 -2.7239
   88SAPS   C36 8505   6.005   2.072  10.005 -0.1500  0.1309 -0.3124
   88SAPS   H6X 8506   5.987   1.988   9.935 -0.9892  0.8020 -0.9377
   88SAPS   H6Y 8507   6.115   2.081  10.019 -0.0978 -0.3734 -0.3793
   88SAPS   C37 8508   5.953   2.192   9.926  0.5267  0.7337  0.3802
   88SAPS   H7X 8509   5.974   2.280   9.990 -2.6790  1.3679  0.7027
   88SAPS   H7Y 8510   5.843   2.193   9.911  0.5561 -1.8882 -0.6718
   88SAPS   C38 8511   6.033   2.200   9.798 -0.0783 -0.3590  0.6027
   88SAPS   H8X 8512   6.132   2.154   9.819 -0.5459 -0.3892  3.0713
   88SAPS   H8Y 8513   6.052   2.305   9.767  0.8104 -0.6848  0.0072
   88SAPS   C39 8514   5.964   2.142   9.676  0.2928  0.3284  0.2282
   88SAPS   H9X 8515   5.911   2.048   9.702 -0.1329  1.1441  2.6098
   88SAPS   H9Y 8516   6.043   2.134   9.598  0.4182  0.0854  0.3781
   88SAPS  C310 8517   5.860   2.241   9.616  0.0637  0.0545  0.3594
   88SAPS  H10X 8518   5.824   2.294   9.707  0.1555  0.7312  0.0112
   88SAPS  H10Y 8519   5.785   2.181   9.561 -0.4811 -1.1439  2.3399
   88SAPS  C311 8520   5.914   2.351   9.524  0.4113 -0.1396 -0.0935
   88SAPS  H11X 8521   5.996   2.406   9.575  0.4203  1.9669 -2.2413
   88SAPS  H11Y 8522   5.826   2.419   9.524  0.1980 -0.2846  2.7459
   88SAPS  C312 8523   5.950   2.295   9.388 -0.2207 -0.6004 -0.5066
   88SAPS  H12X 8524   5.869   2.235   9.340 -1.9927 -1.0976  2.8420
   88SAPS  H12Y 8525   6.026   2.217   9.407  0.5140  0.2785  0.2272
   88SAPS  C313 8526   6.019   2.402   9.300 -0.0211  0.0477 -1.0043
   88SAPS  H13X 8527   6.100   2.439   9.367  0.6363 -1.8497 -0.7017
   88SAPS  H13Y 8528   5.948   2.483   9.274 -1.3468 -0.6180  0.3695
   88SAPS  C314 8529   6.086   2.337   9.174 -0.1658  0.3828  0.1083
   88SAPS  H14X 8530   6.017   2.284   9.104 -1.3209  0.3157  1.2656
   88SAPS  H14Y 8531   6.164   2.271   9.218  1.2249  1.8137 -0.1018
   88SAPS  C315 8532   6.144   2.450   9.087 -0.0665  0.1501 -0.9796
   88SAPS  H15X 8533   6.227   2.496   9.144  0.8870 -2.1672 -0.3661
   88SAPS  H15Y 8534   6.068   2.531   9.078  0.2500  0.4200 -1.2253
   88SAPS  C316 8535   6.176   2.400   8.950 -0.2591 -0.2780  0.8904
   88SAPS  H16X 8536   6.083   2.396   8.889 -0.4285 -0.1561  1.1444
   88SAPS  H16Y 8537   6.232   2.304   8.958  0.2360  0.0617  1.5397
   88SAPS  C317 8538   6.275   2.492   8.870  0.1727 -0.1733  0.3111
   88SAPS  H17X 8539   6.224   2.589   8.856  1.0015  0.1634 -0.5143
   88SAPS  H17Y 8540   6.289   2.439   8.773  2.3210 -1.0939  1.0438
   88SAPS  C318 8541   6.409   2.509   8.941  0.4468 -0.3252  0.3786
   88SAPS  H18X 8542   6.402   2.557   9.041  2.0027 -0.5377  0.6234
   88SAPS  H18Y 8543   6.475   2.576   8.881  0.1901 -0.4586 -0.0492
   88SAPS  H18Z 8544   6.471   2.417   8.950 -0.3271 -1.0421 -1.2297
   89SAPS     N 8545   4.587   4.417  10.709 -0.4124 -0.1369  0.2694
   89SAPS   HN1 8546   4.494   4.394  10.667 -1.1545 -0.7079  2.1069
   89SAPS   HN2 8547   4.633   4.486  10.647  0.6733 -0.6551  0.4848
   89SAPS   HN3 8548   4.643   4.329  10.706  0.1744  0.1367  2.0943
   89SAPS   C12 8549   4.598   4.472  10.845  0.1651  0.2080 -0.1312
   89SAPS  H12A 8550   4.574   4.577  10.841 -2.5290 -0.1839  2.5467
   89SAPS   C13 8551   4.492   4.425  10.950  0.6299  0.7734  1.1221
   89SAPS  O13A 8552   4.404   4.352  10.908  0.0671  0.3745  0.1573
   89SAPS  O13B 8553   4.486   4.491  11.052 -0.3188 -0.1320  0.1689
   89SAPS   C11 8554   4.740   4.447  10.904 -0.1231 -0.1576  0.5030
   89SAPS  H11A 8555   4.764   4.340  10.918  2.2543  0.4845  1.8523
   89SAPS  H11B 8556   4.757   4.499  11.001  1.3809 -2.9178  1.8319
   89SAPS     P 8557   4.977   4.451  10.789 -0.2832 -0.2147  0.2868
   89SAPS   O13 8558   5.051   4.487  10.911  0.2950 -0.0697  0.0785
   89SAPS   O14 8559   4.965   4.309  10.751  0.2004 -0.6269  0.0940
   89SAPS   O12 8560   4.826   4.500  10.801 -0.1522  0.0422 -0.1067
   89SAPS   O11 8561   5.041   4.527  10.666  1.1231  0.4189  0.9025
   89SAPS    C1 8562   4.966   4.563  10.552  0.0582  0.0987  0.8877
   89SAPS    HA 8563   5.029   4.571  10.461 -1.8440 -1.8252 -0.6919
   89SAPS    HB 8564   4.897   4.479  10.527 -1.1545  1.6353 -1.1843
   89SAPS    C2 8565   4.901   4.709  10.572  0.6397  0.3985 -0.4812
   89SAPS    HS 8566   4.838   4.702  10.663 -3.1898 -0.9509 -2.9699
   89SAPS   O21 8567   4.820   4.749  10.457 -0.1537  0.1413  0.1301
   89SAPS   C21 8568   4.715   4.674  10.433  0.1428  0.2669 -0.6078
   89SAPS   O22 8569   4.681   4.580  10.502 -0.0459  0.3020  0.2549
   89SAPS   C22 8570   4.650   4.716  10.312  0.1422 -0.3832 -0.5547
   89SAPS   H2R 8571   4.571   4.640  10.293 -2.2068  1.1182  2.2665
   89SAPS   H2S 8572   4.599   4.812  10.337  1.9861  0.9244 -1.5340
   89SAPS    C3 8573   5.010   4.813  10.595  0.3096 -0.3970  0.1231
   89SAPS    HX 8574   5.040   4.775  10.695 -0.5775 -1.4677 -0.0006
   89SAPS    HY 8575   4.963   4.914  10.602  1.5574  0.0879  2.3270
   89SAPS   O31 8576   5.101   4.809  10.485  0.2155  0.1139 -0.2225
   89SAPS   C31 8577   5.219   4.855  10.522 -0.2798 -0.5826  0.5778
   89SAPS   O32 8578   5.251   4.894  10.634 -0.4185  0.7498  0.6281
   89SAPS   C32 8579   5.305   4.844  10.400  0.5882 -1.2013 -0.2497
   89SAPS   H2X 8580   5.297   4.740  10.361  0.6985 -1.4830  0.4556
   89SAPS   H2Y 8581   5.407   4.865  10.440  0.7371  1.6943 -1.9206
   89SAPS   C23 8582   4.747   4.730  10.192  0.4217 -0.3711  0.5132
   89SAPS   H3R 8583   4.797   4.632  10.173 -0.5849 -0.7458 -0.3283
   89SAPS   H3S 8584   4.823   4.804  10.224 -2.3656  3.0467 -0.2078
   89SAPS   C24 8585   4.680   4.773  10.059 -0.4049  0.0091  0.2107
   89SAPS   H4R 8586   4.618   4.861  10.085  0.2485  0.1158  1.5147
   89SAPS   H4S 8587   4.609   4.694  10.026  0.9239 -1.6924  1.2186
   89SAPS   C25 8588   4.783   4.786   9.943  0.2764 -0.4257  0.0864
   89SAPS   H5R 8589   4.880   4.806   9.991 -1.0454  2.0742  1.9784
   89SAPS   C26 8590   4.771   4.750   9.812 -0.1864 -0.2766 -0.3069
   89SAPS   H6R 8591   4.858   4.765   9.747 -0.0583  0.6105  0.0530
   89SAPS   C27 8592   4.642   4.707   9.742  0.4417 -0.3210 -0.8855
   89SAPS   H7R 8593   4.589   4.802   9.722  0.8057 -0.2740 -1.6548
   89SAPS   H7S 8594   4.596   4.635   9.813  1.6868 -0.1134  0.1698
   89SAPS   C28 8595   4.676   4.643   9.608 -0.0310 -0.1204 -0.6960
   89SAPS   H8R 8596   4.773   4.591   9.607 -0.3590 -0.7517 -0.3989
   89SAPS   C29 8597   4.598   4.638   9.496 -0.5259 -0.4189 -0.3858
   89SAPS   H9R 8598   4.641   4.575   9.417 -1.5675 -1.7015  0.0189
   89SAPS  C210 8599   4.458   4.688   9.472 -0.9777 -0.0164 -0.5258
   89SAPS  H10R 8600   4.461   4.799   9.463 -1.7441  0.1905  1.3887
   89SAPS  H10S 8601   4.401   4.668   9.565  0.5085  1.5568  0.7884
   89SAPS  C211 8602   4.400   4.615   9.352 -0.1225 -0.8916 -0.0646
   89SAPS  H11R 8603   4.353   4.522   9.387 -1.1584  0.1447  1.4099
   89SAPS  C212 8604   4.391   4.653   9.224  0.5236 -0.7899  0.1405
   89SAPS  H12R 8605   4.334   4.591   9.153  0.7653  0.2023 -0.9586
   89SAPS  C213 8606   4.439   4.785   9.177  0.4387 -0.2982  0.0711
   89SAPS  H13R 8607   4.523   4.812   9.244  0.8157  0.6728 -0.7612
   89SAPS  H13S 8608   4.360   4.858   9.204  0.0071 -0.2165 -1.3124
   89SAPS  C214 8609   4.448   4.794   9.021 -0.3380  0.3865 -0.1497
   89SAPS  H14R 8610   4.375   4.742   8.958 -1.5157  0.0852  1.4053
   89SAPS  C215 8611   4.538   4.863   8.945 -0.5138 -0.2508 -0.0862
   89SAPS  H15R 8612   4.545   4.852   8.836  0.4589  2.3241 -0.3386
   89SAPS  C216 8613   4.645   4.947   9.010  0.3454 -0.6328  0.2734
   89SAPS  H16R 8614   4.659   4.923   9.118  1.7256  1.4448  0.6245
   89SAPS  H16S 8615   4.604   5.050   9.002  1.1070 -0.4002 -0.7473
   89SAPS  C217 8616   4.779   4.920   8.942 -0.3188 -0.2935 -0.2617
   89SAPS  H17R 8617   4.794   4.810   8.934 -3.1395 -0.7811  0.0018
   89SAPS  H17S 8618   4.863   4.951   9.008 -0.7574 -0.8946  0.5928
   89SAPS  C218 8619   4.800   4.973   8.796 -0.8644  0.3056  0.0144
   89SAPS  H18R 8620   4.755   4.911   8.716  0.5112  1.9770 -2.1927
   89SAPS  H18S 8621   4.909   4.981   8.775 -0.9282  0.0273 -0.4395
   89SAPS  C219 8622   4.754   5.117   8.781  0.1039 -0.5122 -0.7109
   89SAPS  H19R 8623   4.806   5.183   8.854 -0.7372  0.1726 -0.7176
   89SAPS  H19S 8624   4.646   5.135   8.801  0.6326 -0.3753  2.5768
   89SAPS  C220 8625   4.797   5.182   8.643 -0.1368 -0.5824 -0.3434
   89SAPS  H20R 8626   4.755   5.285   8.644  0.6781 -0.2473 -0.1699
   89SAPS  H20S 8627   4.755   5.123   8.559  0.7020  0.8927 -1.8602
   89SAPS  H20T 8628   4.903   5.207   8.622 -0.8183  0.6367 -2.6921
   89SAPS   C33 8629   5.267   4.954  10.299 -0.6310 -0.8976 -0.3229
   89SAPS   H3X 8630   5.277   5.057  10.339  0.6324 -1.3378  0.5590
   89SAPS   H3Y 8631   5.165   4.938  10.259 -0.0711 -3.1337 -1.0322
   89SAPS   C34 8632   5.353   4.940  10.171  0.3604 -0.0555 -1.3501
   89SAPS   H4X 8633   5.373   4.832  10.151  0.0289  0.2256 -3.4153
   89SAPS   H4Y 8634   5.447   4.994  10.195  0.3438 -1.2856  1.9753
   89SAPS   C35 8635   5.292   5.005  10.044 -0.3852  0.4098 -0.3304
   89SAPS   H5X 8636   5.305   5.115  10.048  0.5694  0.3101 -0.3765
   89SAPS   H5Y 8637   5.182   4.988  10.050 -0.5409  1.3265 -0.5155
   89SAPS   C36 8638   5.345   4.944   9.913 -0.2612 -0.4955 -0.0693
   89SAPS   H6X 8639   5.340   4.834   9.924 -1.9297 -0.2595  2.3250
   89SAPS   H6Y 8640   5.446   4.982   9.887 -0.1973 -0.8640 -0.3670
   89SAPS   C37 8641   5.246   4.977   9.801 -0.8146 -0.0013  0.5898
   89SAPS   H7X 8642   5.238   5.088   9.802 -1.4373 -0.0397  0.2001
   89SAPS   H7Y 8643   5.148   4.930   9.826 -0.0279 -2.0892 -0.0067
   89SAPS   C38 8644   5.285   4.934   9.657 -0.1934  0.4962 -0.3025
   89SAPS   H8X 8645   5.393   4.959   9.647 -0.6947  2.1025 -2.2123
   89SAPS   H8Y 8646   5.223   4.981   9.578  2.8185  0.9741 -2.5579
   89SAPS   C39 8647   5.266   4.778   9.648  0.1511 -0.2178  0.4259
   89SAPS   H9X 8648   5.296   4.747   9.750 -0.0312 -0.4249  0.4175
   89SAPS   H9Y 8649   5.331   4.731   9.571  1.0685 -2.4099  2.4172
   89SAPS  C310 8650   5.119   4.743   9.621  0.0480 -0.6787  0.4227
   89SAPS  H10X 8651   5.089   4.794   9.527  0.7495 -2.0098 -0.5767
   89SAPS  H10Y 8652   5.054   4.783   9.701 -0.0513 -0.2518  0.1300
   89SAPS  C311 8653   5.080   4.590   9.618 -0.0290 -0.0079 -0.0220
   89SAPS  H11X 8654   5.115   4.542   9.525  3.1713 -1.3495  1.7326
   89SAPS  H11Y 8655   4.970   4.573   9.624  0.0295 -3.1424 -4.0491
   89SAPS  C312 8656   5.134   4.504   9.726  0.3640 -0.0464 -0.8190
   89SAPS  H12X 8657   5.244   4.500   9.715  0.2798  0.0572 -1.8008
   89SAPS  H12Y 8658   5.094   4.402   9.707 -0.4653  0.4695 -2.0080
   89SAPS  C313 8659   5.093   4.557   9.865 -0.2098  0.7205 -0.3600
   89SAPS  H13X 8660   4.983   4.567   9.878 -0.3451 -2.5490  2.4061
   89SAPS  H13Y 8661   5.135   4.657   9.891  0.6193 -0.3041  2.7137
   89SAPS  C314 8662   5.135   4.457   9.976  0.0710 -0.1615  0.6621
   89SAPS  H14X 8663   5.237   4.426   9.945  1.0646  2.6670  0.8321
   89SAPS  H14Y 8664   5.072   4.365   9.969  3.5446 -2.6050 -3.2088
   89SAPS  C315 8665   5.149   4.520  10.113 -0.1086  0.0504 -0.7594
   89SAPS  H15X 8666   5.063   4.586  10.137  0.3154  0.2399  0.3021
   89SAPS  H15Y 8667   5.230   4.594  10.100 -0.3657  0.6080  0.6050
   89SAPS  C316 8668   5.188   4.421  10.229  0.0705 -0.3091  0.0208
   89SAPS  H16X 8669   5.193   4.473  10.327 -1.0158 -2.0337  1.0426
   89SAPS  H16Y 8670   5.290   4.381  10.211 -0.2497 -0.7257 -0.8857
   89SAPS  C317 8671   5.078   4.312  10.258 -0.5480 -0.5034 -0.0374
   89SAPS  H17X 8672   4.975   4.342  10.227 -0.1587 -0.1232 -1.0168
   89SAPS  H17Y 8673   5.078   4.299  10.368  0.9876 -0.4882 -0.0239
   89SAPS  C318 8674   5.114   4.170  10.212 -0.0549  0.3267  0.2998
   89SAPS  H18X 8675   5.157   4.168  10.110 -1.9268 -1.3469 -0.5154
   89SAPS  H18Y 8676   5.022   4.108  10.211 -3.9522  5.4439 -2.3657
   89SAPS  H18Z 8677   5.182   4.119  10.284  2.2481 -1.1956 -2.7210
   90SAPS     N 8678   6.576   3.712  10.867  0.1177  0.4840 -0.0269
   90SAPS   HN1 8679   6.599   3.618  10.905  0.7312  1.4928  2.3162
   90SAPS   HN2 8680   6.512   3.756  10.936 -0.1719  2.0007 -1.2005
   90SAPS   HN3 8681   6.523   3.713  10.778  1.0673  2.0593 -0.6222
   90SAPS   C12 8682   6.702   3.795  10.862  0.1339  0.0939 -0.7127
   90SAPS  H12A 8683   6.665   3.896  10.851 -1.3655 -0.1385  1.5021
   90SAPS   C13 8684   6.794   3.791  10.989  0.0373 -0.4734 -0.1163
   90SAPS  O13A 8685   6.750   3.727  11.087  0.4906 -0.2023 -0.1173
   90SAPS  O13B 8686   6.899   3.867  10.992  0.1187 -0.2984 -0.3549
   90SAPS   C11 8687   6.792   3.762  10.740  0.4670  0.1990 -0.4327
   90SAPS  H11A 8688   6.867   3.844  10.730 -0.9838  1.5596 -0.4115
   90SAPS  H11B 8689   6.729   3.766  10.648  0.7001  0.5224 -0.5829
   90SAPS     P 8690   6.966   3.574  10.663  0.9189  0.1447  0.0562
   90SAPS   O13 8691   7.086   3.655  10.691  0.2188  0.0517  0.5984
   90SAPS   O14 8692   6.986   3.429  10.679  0.4556 -0.2792 -0.1259
   90SAPS   O12 8693   6.850   3.632  10.755  0.1527 -0.3152 -0.1363
   90SAPS   O11 8694   6.924   3.587  10.513 -0.1166  0.4671  0.1220
   90SAPS    C1 8695   6.790   3.585  10.461 -0.3470  0.2844 -0.5973
   90SAPS    HA 8696   6.722   3.549  10.541 -0.4806 -1.1718 -1.3475
   90SAPS    HB 8697   6.774   3.692  10.437  0.1694  0.6143  0.4328
   90SAPS    C2 8698   6.774   3.480  10.348 -0.0350  0.4298 -0.8414
   90SAPS    HS 8699   6.788   3.380  10.393  0.1327  1.1200  0.7451
   90SAPS   O21 8700   6.855   3.511  10.231 -0.1683  0.1673  0.0589
   90SAPS   C21 8701   6.972   3.459  10.245 -0.3850  0.1953 -0.1141
   90SAPS   O22 8702   7.013   3.369  10.319  0.4655  0.2338 -0.1965
   90SAPS   C22 8703   7.065   3.516  10.136  0.4474  0.2110  0.6632
   90SAPS   H2R 8704   7.069   3.627  10.148  1.4004  0.2003  0.4878
   90SAPS   H2S 8705   7.167   3.473  10.134  0.0867 -0.6469  0.1523
   90SAPS    C3 8706   6.633   3.483  10.311  0.0445  0.2529 -0.1521
   90SAPS    HX 8707   6.563   3.491  10.396 -1.4421  0.7321 -1.3877
   90SAPS    HY 8708   6.618   3.381  10.268 -0.8137  0.3146 -0.0010
   90SAPS   O31 8709   6.599   3.582  10.207 -0.5290 -0.4469  0.4446
   90SAPS   C31 8710   6.547   3.694  10.254  0.8215  0.3798  0.3989
   90SAPS   O32 8711   6.507   3.726  10.366  0.3580 -0.2598  0.6097
   90SAPS   C32 8712   6.527   3.779  10.131  0.5524  0.0588  0.6786
   90SAPS   H2X 8713   6.440   3.734  10.079  0.7393 -1.4302  1.6066
   90SAPS   H2Y 8714   6.614   3.780  10.062 -0.8475 -2.2192 -1.2909
   90SAPS   C23 8715   6.991   3.501  10.003 -0.1404  0.1124  0.3040
   90SAPS   H3R 8716   6.881   3.517  10.002  0.0627  1.7215 -1.0771
   90SAPS   H3S 8717   7.011   3.395   9.979 -1.3048  0.4579 -2.5386
   90SAPS   C24 8718   7.042   3.584   9.881  0.1523 -1.0099 -0.0792
   90SAPS   H4R 8719   6.998   3.541   9.789 -0.5404 -0.2190 -0.1279
   90SAPS   H4S 8720   7.153   3.584   9.872  0.1628 -1.3599  0.0092
   90SAPS   C25 8721   6.982   3.726   9.891  0.4108  0.9748 -0.8157
   90SAPS   H5R 8722   6.929   3.744   9.985 -0.1376 -0.1306 -0.9020
   90SAPS   C26 8723   6.979   3.810   9.787  0.2200 -0.1807  0.5281
   90SAPS   H6R 8724   6.917   3.901   9.791  0.2465 -0.2015  2.5934
   90SAPS   C27 8725   7.046   3.782   9.654  0.2256  0.5195 -0.3534
   90SAPS   H7R 8726   7.155   3.764   9.660  0.3629  1.3480 -0.1992
   90SAPS   H7S 8727   7.045   3.885   9.611 -0.1925  1.4962  1.8892
   90SAPS   C28 8728   6.977   3.679   9.563 -0.0834  0.0351  0.0591
   90SAPS   H8R 8729   6.982   3.572   9.586 -0.6357 -0.5249 -2.1547
   90SAPS   C29 8730   6.903   3.712   9.457 -0.2571  0.3622 -0.3301
   90SAPS   H9R 8731   6.871   3.631   9.390 -1.2234  0.6071 -0.1880
   90SAPS  C210 8732   6.884   3.854   9.399 -0.1742  0.0517  1.1450
   90SAPS  H10R 8733   6.867   3.930   9.478 -0.6686 -1.2241  2.2998
   90SAPS  H10S 8734   6.798   3.866   9.330  0.3993  0.5306  0.4840
   90SAPS  C211 8735   7.012   3.905   9.333 -0.0973 -0.0100 -0.3460
   90SAPS  H11R 8736   7.103   3.883   9.392  0.0569  0.2966 -0.4662
   90SAPS  C212 8737   7.029   3.953   9.205 -0.0926  0.4138  0.0580
   90SAPS  H12R 8738   7.128   3.992   9.178 -0.1583 -0.0483 -0.9125
   90SAPS  C213 8739   6.919   3.965   9.103  0.5846 -0.1088  0.0284
   90SAPS  H13R 8740   6.859   4.054   9.130 -1.9199 -1.3575 -1.0715
   90SAPS  H13S 8741   6.856   3.874   9.107 -0.2274  0.4313 -0.3025
   90SAPS  C214 8742   6.944   3.984   8.957 -0.5521  0.2173  0.0955
   90SAPS  H14R 8743   6.876   3.911   8.911 -0.7835 -1.5489  2.9956
   90SAPS  C215 8744   7.015   4.080   8.896  0.2471  0.1836 -0.0370
   90SAPS  H15R 8745   7.030   4.072   8.788 -3.7216  0.8902 -0.7972
   90SAPS  C216 8746   7.093   4.185   8.971  0.2745 -0.1210 -0.6506
   90SAPS  H16R 8747   7.145   4.156   9.065 -0.9401  0.5282  0.2495
   90SAPS  H16S 8748   7.024   4.257   9.020  1.0193 -1.0055  1.8864
   90SAPS  C217 8749   7.193   4.257   8.874  0.3832 -0.2679 -0.5422
   90SAPS  H17R 8750   7.256   4.178   8.828  0.5301  0.1453 -1.0526
   90SAPS  H17S 8751   7.268   4.310   8.937  1.2234 -1.3935 -0.5507
   90SAPS  C218 8752   7.126   4.341   8.763 -0.0966 -0.2933 -0.6716
   90SAPS  H18R 8753   7.075   4.419   8.823  2.1151  0.1363  0.7563
   90SAPS  H18S 8754   7.052   4.280   8.706 -1.7962  0.0948  0.9838
   90SAPS  C219 8755   7.216   4.409   8.667 -0.0788  0.6857  0.3188
   90SAPS  H19R 8756   7.238   4.344   8.580  1.1599  0.8354  0.4994
   90SAPS  H19S 8757   7.314   4.431   8.715  0.4673  0.7553 -0.7716
   90SAPS  C220 8758   7.144   4.533   8.607 -0.7465 -0.1658 -0.3823
   90SAPS  H20R 8759   7.202   4.571   8.520  1.1281  0.7471  1.1713
   90SAPS  H20S 8760   7.128   4.612   8.683 -0.0342 -0.1529 -0.2366
   90SAPS  H20T 8761   7.044   4.503   8.570 -0.4506  0.3218 -1.6298
   90SAPS   C33 8762   6.486   3.933  10.149 -0.4809  0.5049 -0.5092
   90SAPS   H3X 8763   6.554   3.973  10.227  0.6172 -1.7657 -0.1995
   90SAPS   H3Y 8764   6.384   3.931  10.194  0.1837 -1.1600  1.0543
   90SAPS   C34 8765   6.489   3.999  10.018 -0.8573 -0.3525  0.0961
   90SAPS   H4X 8766   6.592   4.026   9.988 -0.7559  0.5950  1.1907
   90SAPS   H4Y 8767   6.448   4.099  10.043 -3.1314 -1.3704  0.6591
   90SAPS   C35 8768   6.400   3.941   9.912 -0.7892  0.1632  0.5945
   90SAPS   H5X 8769   6.308   3.899   9.958 -0.7857 -0.6849 -0.1614
   90SAPS   H5Y 8770   6.456   3.864   9.855 -0.3068  1.0460 -0.1578
   90SAPS   C36 8771   6.361   4.058   9.817  0.7525 -0.1956 -0.3493
   90SAPS   H6X 8772   6.295   4.129   9.871  1.3923  0.7052 -0.7213
   90SAPS   H6Y 8773   6.306   4.009   9.734  1.4439  0.8164 -1.4422
   90SAPS   C37 8774   6.472   4.125   9.740 -0.5536 -0.2313  0.4764
   90SAPS   H7X 8775   6.553   4.164   9.805  0.8850 -0.4552 -1.1092
   90SAPS   H7Y 8776   6.449   4.219   9.686  1.0425 -0.9873 -1.6599
   90SAPS   C38 8777   6.545   4.040   9.630 -1.1865  0.4897 -0.1417
   90SAPS   H8X 8778   6.466   3.980   9.580 -0.0221 -0.3948 -0.9986
   90SAPS   H8Y 8779   6.611   3.972   9.688 -0.3391  1.7260  0.3843
   90SAPS   C39 8780   6.612   4.116   9.519 -1.2593  0.6364  0.3507
   90SAPS   H9X 8781   6.526   4.158   9.462 -3.2381 -1.1835  1.8475
   90SAPS   H9Y 8782   6.667   4.046   9.452 -0.5524  0.1516  1.4171
   90SAPS  C310 8783   6.703   4.222   9.576  0.1851 -0.1665 -0.4652
   90SAPS  H10X 8784   6.773   4.180   9.651 -0.5564 -1.0283 -0.2442
   90SAPS  H10Y 8785   6.638   4.301   9.619  0.6082 -0.1489  0.1575
   90SAPS  C311 8786   6.795   4.279   9.464  0.4070  0.4098  0.5911
   90SAPS  H11X 8787   6.877   4.215   9.425  1.5132  0.7810  2.2058
   90SAPS  H11Y 8788   6.844   4.366   9.512 -0.5727  0.7182  1.0716
   90SAPS  C312 8789   6.718   4.309   9.331  0.2149 -0.5726 -0.0402
   90SAPS  H12X 8790   6.630   4.372   9.353  1.3804  1.4881 -0.9548
   90SAPS  H12Y 8791   6.674   4.213   9.296 -2.0971  0.3857  0.0627
   90SAPS  C313 8792   6.807   4.374   9.219  0.2069 -0.6067 -0.1716
   90SAPS  H13X 8793   6.904   4.323   9.203  0.3342 -0.0017 -1.4759
   90SAPS  H13Y 8794   6.820   4.477   9.260  0.1134 -0.0586 -1.4716
   90SAPS  C314 8795   6.735   4.391   9.084 -0.2934 -0.4581 -0.6406
   90SAPS  H14X 8796   6.636   4.438   9.101 -0.4875 -0.8638 -0.6481
   90SAPS  H14Y 8797   6.724   4.290   9.039 -1.4579  0.2461 -2.0083
   90SAPS  C315 8798   6.821   4.471   8.987  0.1688 -0.2056 -0.0353
   90SAPS  H15X 8799   6.923   4.434   8.965  1.2752  1.2299  2.2791
   90SAPS  H15Y 8800   6.827   4.575   9.026  0.5012 -1.1032  2.4677
   90SAPS  C316 8801   6.743   4.501   8.854  0.3268  0.3696 -0.2820
   90SAPS  H16X 8802   6.765   4.411   8.791  0.0695 -0.6559  1.0509
   90SAPS  H16Y 8803   6.792   4.589   8.808 -0.8800 -0.4731 -3.5214
   90SAPS  C317 8804   6.585   4.521   8.865 -0.2797 -0.3043 -0.6038
   90SAPS  H17X 8805   6.577   4.603   8.939  0.6224 -1.2495  0.5673
   90SAPS  H17Y 8806   6.549   4.424   8.905 -0.7483 -0.0076 -0.3002
   90SAPS  C318 8807   6.515   4.560   8.738  0.5426 -0.3416  0.0435
   90SAPS  H18X 8808   6.584   4.591   8.658 -1.1590 -0.7497 -1.6498
   90SAPS  H18Y 8809   6.433   4.633   8.756  1.2110  0.1230  1.3451
   90SAPS  H18Z 8810   6.470   4.466   8.700 -0.8873  0.0182  0.7469
   91SAPS     N 8811   4.883   1.372   6.010  0.6350  0.3045 -0.0537
   91SAPS   HN1 8812   4.871   1.435   5.928 -1.0478  0.5371  0.3430
   91SAPS   HN2 8813   4.967   1.324   5.973 -0.0179 -1.6135  0.8040
   91SAPS   HN3 8814   4.800   1.309   6.017  1.1545 -0.3138  0.7118
   91SAPS   C12 8815   4.901   1.449   6.137  0.0751 -0.3342  1.4347
   91SAPS  H12A 8816   4.958   1.534   6.103 -0.3967 -1.2178 -1.8909
   91SAPS   C13 8817   4.769   1.505   6.197 -0.8041 -0.2388 -0.3290
   91SAPS  O13A 8818   4.658   1.495   6.138  0.6812  0.4489 -0.2336
   91SAPS  O13B 8819   4.777   1.596   6.282  0.2049 -0.0015  0.2231
   91SAPS   C11 8820   4.975   1.356   6.240 -0.6249 -0.1966  0.2216
   91SAPS  H11A 8821   4.913   1.267   6.264  0.4125 -0.5672  1.7246
   91SAPS  H11B 8822   4.979   1.413   6.335  0.4160  1.9741 -1.0550
   91SAPS     P 8823   5.232   1.400   6.215  0.1914 -0.4454 -0.1292
   91SAPS   O13 8824   5.352   1.317   6.175  0.2172  0.5748  0.5587
   91SAPS   O14 8825   5.214   1.536   6.171 -0.4138 -0.1467 -0.5634
   91SAPS   O12 8826   5.100   1.313   6.186  0.2034 -0.2563 -0.0856
   91SAPS   O11 8827   5.243   1.401   6.367 -0.1030 -0.6254  0.1392
   91SAPS    C1 8828   5.227   1.294   6.461  0.0577  0.3595  0.0487
   91SAPS    HA 8829   5.140   1.230   6.434 -1.3367 -0.1158  4.7570
   91SAPS    HB 8830   5.311   1.221   6.457 -0.4045 -0.2544  1.2101
   91SAPS    C2 8831   5.198   1.338   6.613 -0.0904  0.3072  0.3221
   91SAPS    HS 8832   5.100   1.389   6.599 -0.8578 -1.7937 -3.3893
   91SAPS   O21 8833   5.306   1.416   6.664  0.0330  0.7360  0.1914
   91SAPS   C21 8834   5.315   1.539   6.632 -0.4153  0.3504  0.0833
   91SAPS   O22 8835   5.229   1.606   6.577 -0.1289  0.3215 -0.1737
   91SAPS   C22 8836   5.455   1.586   6.686 -0.0644 -0.8510 -0.0455
   91SAPS   H2R 8837   5.502   1.512   6.753  0.1706 -0.2130  0.4999
   91SAPS   H2S 8838   5.511   1.575   6.591 -2.9023 -2.3254 -1.7016
   91SAPS    C3 8839   5.178   1.207   6.700  0.1930  0.1244 -0.0867
   91SAPS    HX 8840   5.201   1.111   6.648 -0.6728 -0.7038  1.0099
   91SAPS    HY 8841   5.072   1.196   6.730  0.2825 -3.1667 -0.6007
   91SAPS   O31 8842   5.241   1.203   6.828  0.2240  0.1618 -0.3942
   91SAPS   C31 8843   5.345   1.127   6.844 -0.3023  0.7836 -0.1211
   91SAPS   O32 8844   5.388   1.053   6.756 -0.0108  0.4426 -0.3799
   91SAPS   C32 8845   5.379   1.115   6.994  0.3484  0.5378 -0.0720
   91SAPS   H2X 8846   5.296   1.047   7.025  1.3340 -0.3054  0.8118
   91SAPS   H2Y 8847   5.366   1.217   7.034 -0.4134  0.1696  0.6511
   91SAPS   C23 8848   5.452   1.739   6.722 -0.6728  0.1071 -0.2396
   91SAPS   H3R 8849   5.397   1.784   6.637 -0.5280  1.1840  0.2274
   91SAPS   H3S 8850   5.558   1.771   6.724 -1.2289  2.0831 -0.7034
   91SAPS   C24 8851   5.398   1.775   6.859  0.7656  0.2297  0.5922
   91SAPS   H4R 8852   5.448   1.716   6.939  2.5467  1.4091  0.4006
   91SAPS   H4S 8853   5.293   1.741   6.851  0.7976 -0.0404  1.2274
   91SAPS   C25 8854   5.385   1.920   6.890 -1.1025 -0.5201  0.0156
   91SAPS   H5R 8855   5.315   1.974   6.824 -1.4368 -1.2470 -0.2387
   91SAPS   C26 8856   5.422   1.990   7.004 -0.0222 -0.2649 -0.1772
   91SAPS   H6R 8857   5.400   2.097   6.992  1.5125 -0.0555 -1.5108
   91SAPS   C27 8858   5.501   1.936   7.120  0.4829  0.3481 -0.1251
   91SAPS   H7R 8859   5.560   2.017   7.166 -1.4738  1.3617  0.7010
   91SAPS   H7S 8860   5.564   1.853   7.081 -2.0142 -0.4479 -2.8236
   91SAPS   C28 8861   5.403   1.866   7.218  0.8482 -0.4152 -0.2707
   91SAPS   H8R 8862   5.325   1.805   7.171 -1.1796  0.9928  1.1032
   91SAPS   C29 8863   5.409   1.883   7.354  0.3600 -0.2497  0.2429
   91SAPS   H9R 8864   5.328   1.830   7.405 -1.3160 -0.4850 -2.4773
   91SAPS  C210 8865   5.507   1.972   7.426  0.5849  0.3438 -0.4667
   91SAPS  H10R 8866   5.583   2.025   7.364  1.0775  2.1323  1.5366
   91SAPS  H10S 8867   5.575   1.907   7.485  1.6830  0.5746 -1.4337
   91SAPS  C211 8868   5.428   2.071   7.505 -0.3941 -0.0245 -0.3849
   91SAPS  H11R 8869   5.398   2.164   7.455 -3.1405 -0.3736  0.4455
   91SAPS  C212 8870   5.395   2.064   7.632  1.0396 -0.6359 -0.1090
   91SAPS  H12R 8871   5.325   2.139   7.671 -1.3609 -2.8823  0.1596
   91SAPS  C213 8872   5.421   1.955   7.729  0.1550  0.2122 -0.7914
   91SAPS  H13R 8873   5.469   1.988   7.824 -0.7197 -0.7046 -0.0099
   91SAPS  H13S 8874   5.494   1.881   7.690 -1.0567 -1.5338  0.0945
   91SAPS  C214 8875   5.294   1.879   7.756  0.1907  0.0768 -0.2036
   91SAPS  H14R 8876   5.260   1.808   7.679  1.7720  0.9666 -1.8235
   91SAPS  C215 8877   5.220   1.862   7.865  0.5088  0.0746 -0.4709
   91SAPS  H15R 8878   5.135   1.792   7.867 -0.5617  1.2253 -2.5486
   91SAPS  C216 8879   5.246   1.923   7.995  0.1274 -0.4800  1.3459
   91SAPS  H16R 8880   5.152   1.965   8.036 -0.4423 -0.1511 -0.2111
   91SAPS  H16S 8881   5.310   2.011   7.979  0.5852 -1.1500 -0.8877
   91SAPS  C217 8882   5.306   1.834   8.090  0.6320 -0.4790 -0.2263
   91SAPS  H17R 8883   5.401   1.796   8.045  0.3164  0.1363 -1.4314
   91SAPS  H17S 8884   5.247   1.744   8.117 -2.0837  1.6053  1.2370
   91SAPS  C218 8885   5.350   1.880   8.234 -0.2135 -0.3839  0.1684
   91SAPS  H18R 8886   5.262   1.923   8.286  0.1403  1.3658 -0.6264
   91SAPS  H18S 8887   5.424   1.962   8.228  1.0103 -1.4846 -0.2885
   91SAPS  C219 8888   5.407   1.764   8.322  0.0462 -0.2036  0.3793
   91SAPS  H19R 8889   5.482   1.709   8.260  0.0146  0.0964  0.0746
   91SAPS  H19S 8890   5.319   1.697   8.335  0.4881 -0.8198  0.2696
   91SAPS  C220 8891   5.462   1.802   8.460  0.2616 -0.1185  0.8332
   91SAPS  H20R 8892   5.386   1.861   8.515  1.2756  2.3622 -0.2534
   91SAPS  H20S 8893   5.552   1.865   8.444 -1.9626  3.4626  1.3159
   91SAPS  H20T 8894   5.487   1.720   8.530 -1.0675 -1.7005 -0.4789
   91SAPS   C33 8895   5.505   1.029   7.030  0.2092 -0.2526 -0.1002
   91SAPS   H3X 8896   5.599   1.068   6.987  0.4123  0.9922  1.3985
   91SAPS   H3Y 8897   5.492   0.924   6.994 -1.7936 -0.6964  1.6994
   91SAPS   C34 8898   5.529   1.030   7.183  0.5015  0.5942 -0.1646
   91SAPS   H4X 8899   5.500   1.129   7.226 -0.3089  0.7566 -1.0568
   91SAPS   H4Y 8900   5.637   1.006   7.189  0.9036  2.3210  0.1825
   91SAPS   C35 8901   5.447   0.914   7.240 -0.1140 -0.0257 -0.0407
   91SAPS   H5X 8902   5.480   0.820   7.192  1.4096 -0.1146  1.0763
   91SAPS   H5Y 8903   5.340   0.920   7.214 -0.7947 -3.4093  1.4128
   91SAPS   C36 8904   5.465   0.887   7.387  0.3953 -0.2365 -0.3570
   91SAPS   H6X 8905   5.407   0.960   7.447  0.7669 -0.1749 -0.0722
   91SAPS   H6Y 8906   5.569   0.910   7.418  0.4360 -0.1526 -0.5557
   91SAPS   C37 8907   5.425   0.747   7.441  0.1384 -0.0745  0.8428
   91SAPS   H7X 8908   5.511   0.679   7.419  0.6541  0.5832  0.8030
   91SAPS   H7Y 8909   5.333   0.705   7.396  1.7115 -3.7734  0.7129
   91SAPS   C38 8910   5.416   0.747   7.590 -0.1076  0.4551 -0.1394
   91SAPS   H8X 8911   5.384   0.649   7.633  0.2034  0.1215 -0.6605
   91SAPS   H8Y 8912   5.336   0.818   7.621 -0.5435 -0.2461  0.3883
   91SAPS   C39 8913   5.553   0.789   7.663  0.3739  0.2329 -1.2155
   91SAPS   H9X 8914   5.610   0.877   7.626  1.3006  0.1955  0.0445
   91SAPS   H9Y 8915   5.622   0.705   7.644 -0.9488 -1.3493  0.5613
   91SAPS  C310 8916   5.539   0.800   7.814  0.4667 -0.6802 -0.5140
   91SAPS  H10X 8917   5.464   0.730   7.856  1.5986 -1.9970 -0.6400
   91SAPS  H10Y 8918   5.519   0.906   7.842  2.0990 -0.0742 -1.4824
   91SAPS  C311 8919   5.675   0.764   7.886 -0.3811  0.6392 -0.2655
   91SAPS  H11X 8920   5.754   0.822   7.833 -1.5482  1.7597 -0.8170
   91SAPS  H11Y 8921   5.691   0.654   7.886 -0.7642  0.5435  1.6652
   91SAPS  C312 8922   5.690   0.818   8.030 -0.8324  0.0943  0.8301
   91SAPS  H12X 8923   5.673   0.928   8.024 -5.3237 -0.4663 -0.9344
   91SAPS  H12Y 8924   5.791   0.799   8.072  0.3615  0.8913 -1.5392
   91SAPS  C313 8925   5.585   0.766   8.121 -0.3503 -0.0806  0.1557
   91SAPS  H13X 8926   5.609   0.658   8.106  1.4531  0.4509 -1.1505
   91SAPS  H13Y 8927   5.481   0.801   8.103 -0.6323 -0.3239  1.2729
   91SAPS  C314 8928   5.609   0.807   8.268 -0.2731  0.1180 -0.4193
   91SAPS  H14X 8929   5.601   0.916   8.287 -1.5387 -0.1176  0.5849
   91SAPS  H14Y 8930   5.714   0.776   8.289 -0.8968 -2.6876 -1.0570
   91SAPS  C315 8931   5.509   0.731   8.359  0.0974 -0.0757  0.5464
   91SAPS  H15X 8932   5.504   0.622   8.342  0.6113 -0.4292  2.4676
   91SAPS  H15Y 8933   5.406   0.770   8.341 -1.0188 -2.0318  2.2286
   91SAPS  C316 8934   5.547   0.752   8.508 -0.3717  0.2959  0.3889
   91SAPS  H16X 8935   5.556   0.859   8.537  3.8936  0.1083  0.4477
   91SAPS  H16Y 8936   5.646   0.702   8.516 -0.0731  0.2230 -2.6837
   91SAPS  C317 8937   5.434   0.693   8.584 -0.3087 -0.2623  0.3140
   91SAPS  H17X 8938   5.418   0.586   8.557 -0.0605 -0.4225  0.7908
   91SAPS  H17Y 8939   5.340   0.740   8.546  0.8919  0.3400 -2.1361
   91SAPS  C318 8940   5.456   0.696   8.740  0.0199 -0.5490 -0.3331
   91SAPS  H18X 8941   5.363   0.692   8.800  1.6527 -0.3987  2.4191
   91SAPS  H18Y 8942   5.489   0.799   8.767 -2.4866  0.0707  0.6529
   91SAPS  H18Z 8943   5.532   0.633   8.791  1.0301  0.1012 -0.9814
   92SAPS     N 8944   4.170   0.615   6.343  0.7711  0.1434 -0.2033
   92SAPS   HN1 8945   4.185   0.629   6.241  1.5952  0.4411 -0.0538
   92SAPS   HN2 8946   4.253   0.572   6.390  0.5760  1.2609  1.2106
   92SAPS   HN3 8947   4.088   0.552   6.354  1.9659 -1.1243  2.2326
   92SAPS   C12 8948   4.143   0.755   6.395  0.2080 -0.0312 -0.3971
   92SAPS  H12A 8949   4.147   0.751   6.503 -0.8853  0.5040 -0.3194
   92SAPS   C13 8950   4.241   0.869   6.348  0.0586  0.7514 -0.0031
   92SAPS  O13A 8951   4.325   0.841   6.257 -0.3417 -0.0933  0.1213
   92SAPS  O13B 8952   4.229   0.987   6.381  0.0419 -0.1046  0.3279
   92SAPS   C11 8953   3.998   0.791   6.355  0.2136 -0.1997 -1.0397
   92SAPS  H11A 8954   3.968   0.791   6.248  0.3435 -0.4499 -1.0766
   92SAPS  H11B 8955   3.983   0.894   6.394  0.1269 -1.3555  2.2795
   92SAPS     P 8956   3.822   0.740   6.551  0.2164  0.2311 -0.0457
   92SAPS   O13 8957   3.809   0.885   6.569 -0.0133 -0.4020 -0.0258
   92SAPS   O14 8958   3.703   0.650   6.553 -0.3795  0.4176 -0.4695
   92SAPS   O12 8959   3.910   0.698   6.421 -0.7939 -0.1676  0.1754
   92SAPS   O11 8960   3.924   0.691   6.655  0.0305  0.0094 -0.5250
   92SAPS    C1 8961   3.942   0.554   6.683 -0.3718  0.2099 -0.5499
   92SAPS    HA 8962   3.879   0.484   6.624  1.2511 -3.0667  1.3472
   92SAPS    HB 8963   4.046   0.521   6.660  0.7369  2.0212  1.5232
   92SAPS    C2 8964   3.918   0.516   6.831 -0.8506  0.1417  0.3471
   92SAPS    HS 8965   3.903   0.406   6.830 -0.7617  0.1147  1.3291
   92SAPS   O21 8966   3.805   0.591   6.885  0.0157 -0.3196 -0.1396
   92SAPS   C21 8967   3.691   0.533   6.865  0.0146 -0.5251  0.2634
   92SAPS   O22 8968   3.666   0.434   6.801  0.6658  0.5608  0.1248
   92SAPS   C22 8969   3.587   0.611   6.949  0.3594 -0.8697  0.1808
   92SAPS   H2R 8970   3.580   0.713   6.905  1.8159 -1.6454 -1.9727
   92SAPS   H2S 8971   3.485   0.571   6.931  0.6248 -0.9959 -1.1049
   92SAPS    C3 8972   4.042   0.552   6.922 -0.3344 -0.2766  0.8113
   92SAPS    HX 8973   4.072   0.657   6.906  0.7883 -0.6224  0.5091
   92SAPS    HY 8974   4.130   0.496   6.882 -0.8797 -1.0900  0.7159
   92SAPS   O31 8975   4.018   0.535   7.062 -0.0898 -0.2967 -0.0997
   92SAPS   C31 8976   4.042   0.412   7.106  0.3589 -0.9374  0.3740
   92SAPS   O32 8977   4.084   0.315   7.047  0.0086 -0.0493  0.4989
   92SAPS   C32 8978   3.990   0.415   7.252 -0.7148 -0.1446  0.1525
   92SAPS   H2X 8979   3.890   0.460   7.236  0.9086  2.7274 -3.5082
   92SAPS   H2Y 8980   4.043   0.499   7.302 -0.9478  0.1622 -0.1108
   92SAPS   C23 8981   3.604   0.603   7.099  0.3322 -0.3965  0.5270
   92SAPS   H3R 8982   3.516   0.647   7.152 -1.7778 -2.5763 -0.9541
   92SAPS   H3S 8983   3.694   0.661   7.129 -0.9023  2.3166 -0.5886
   92SAPS   C24 8984   3.605   0.466   7.156 -0.6667 -0.2833 -0.2348
   92SAPS   H4R 8985   3.644   0.471   7.260 -2.4422  1.4061  0.4019
   92SAPS   H4S 8986   3.673   0.398   7.100 -2.7777 -2.0252 -0.8289
   92SAPS   C25 8987   3.474   0.395   7.140 -0.4605  0.3199  0.5641
   92SAPS   H5R 8988   3.421   0.410   7.045 -0.8912  2.0624  1.0437
   92SAPS   C26 8989   3.420   0.308   7.229 -0.8292  0.1872  0.9155
   92SAPS   H6R 8990   3.317   0.272   7.211 -1.3773  0.7020  2.7756
   92SAPS   C27 8991   3.479   0.276   7.359 -0.5665 -0.0061 -0.3417
   92SAPS   H7R 8992   3.442   0.349   7.434  2.4251  0.4038  0.8561
   92SAPS   H7S 8993   3.588   0.296   7.354 -0.3105 -1.5556 -1.9916
   92SAPS   C28 8994   3.449   0.132   7.400 -0.2674 -0.8153  0.0965
   92SAPS   H8R 8995   3.419   0.061   7.321 -0.2101 -1.1179  0.3448
   92SAPS   C29 8996   3.464   0.085   7.523 -0.1535 -0.3371  0.0043
   92SAPS   H9R 8997   3.442  -0.022   7.536  0.8773 -0.6712 -0.8843
   92SAPS  C210 8998   3.515   0.157   7.640  0.0167 -0.5895 -0.5339
   92SAPS  H10R 8999   3.529   0.264   7.615 -1.7677 -0.1628  0.1398
   92SAPS  H10S 9000   3.616   0.125   7.676  0.2295  0.7273  0.0846
   92SAPS  C211 9001   3.414   0.155   7.756 -0.8482  0.2110 -0.6452
   92SAPS  H11R 9002   3.327   0.221   7.746 -0.2204  1.1723  0.0679
   92SAPS  C212 9003   3.412   0.078   7.867 -0.2866 -0.5497 -1.0645
   92SAPS  H12R 9004   3.330   0.093   7.940 -0.5385 -0.7844 -1.2970
   92SAPS  C213 9005   3.520  -0.019   7.892 -0.0055  0.3834  0.0213
   92SAPS  H13R 9006   3.618   0.031   7.877  0.0240  0.0197 -1.0831
   92SAPS  H13S 9007   3.511  -0.101   7.817  2.1425 -1.9860  2.1282
   92SAPS  C214 9008   3.507  -0.089   8.027 -0.1504 -0.0107  0.5228
   92SAPS  H14R 9009   3.474  -0.194   8.020 -0.5984  0.1889 -0.6581
   92SAPS  C215 9010   3.529  -0.042   8.150  0.1121  0.2824 -0.3310
   92SAPS  H15R 9011   3.531  -0.120   8.229  0.9241  0.2008 -0.4241
   92SAPS  C216 9012   3.590   0.094   8.187 -0.6521  0.0180  0.3470
   92SAPS  H16R 9013   3.631   0.151   8.100  3.0590 -2.2202  0.3989
   92SAPS  H16S 9014   3.669   0.075   8.263 -1.4099 -1.3695  0.8245
   92SAPS  C217 9015   3.497   0.190   8.265  0.6278  0.3649  0.8797
   92SAPS  H17R 9016   3.442   0.133   8.342  0.7577  1.3108  1.7045
   92SAPS  H17S 9017   3.426   0.218   8.184  1.8270  0.4635 -0.1765
   92SAPS  C218 9018   3.566   0.310   8.335 -0.3183 -0.1332 -0.1905
   92SAPS  H18R 9019   3.604   0.381   8.258  1.9887 -0.8327  0.2406
   92SAPS  H18S 9020   3.650   0.276   8.398 -1.5972 -1.4491  0.8724
   92SAPS  C219 9021   3.469   0.394   8.425  0.2854  0.3180  0.6356
   92SAPS  H19R 9022   3.427   0.332   8.508 -1.2842 -1.0560 -1.0984
   92SAPS  H19S 9023   3.387   0.427   8.359 -0.7409  1.7862  2.5270
   92SAPS  C220 9024   3.536   0.519   8.493 -0.5392  0.2701  0.0968
   92SAPS  H20R 9025   3.456   0.577   8.544 -0.8534 -0.5168  0.5182
   92SAPS  H20S 9026   3.575   0.581   8.410  0.4447  0.4759  0.7008
   92SAPS  H20T 9027   3.618   0.484   8.559 -0.4814 -0.7156 -0.4766
   92SAPS   C33 9028   4.002   0.283   7.330  0.0494  0.1290 -0.2121
   92SAPS   H3X 9029   4.104   0.240   7.318  0.1361  0.7389 -1.8005
   92SAPS   H3Y 9030   3.929   0.207   7.296  0.9404 -0.5271 -0.7170
   92SAPS   C34 9031   3.978   0.318   7.480  0.4787  0.1419  0.0356
   92SAPS   H4X 9032   4.071   0.376   7.501  2.5731 -3.0695  0.4057
   92SAPS   H4Y 9033   3.973   0.226   7.542 -0.8237 -1.3099 -2.1104
   92SAPS   C35 9034   3.852   0.401   7.517 -0.2879  0.2545  0.4529
   92SAPS   H5X 9035   3.771   0.330   7.491  0.5681 -1.2629  1.6733
   92SAPS   H5Y 9036   3.842   0.497   7.462 -2.1424 -0.8332 -1.2352
   92SAPS   C36 9037   3.833   0.424   7.670  0.3445 -0.1573  0.6850
   92SAPS   H6X 9038   3.928   0.473   7.702 -0.1086  1.7177 -0.6230
   92SAPS   H6Y 9039   3.819   0.325   7.718 -0.2386 -0.1285  0.5811
   92SAPS   C37 9040   3.716   0.512   7.710  0.6732 -0.3405 -0.9014
   92SAPS   H7X 9041   3.620   0.467   7.676  0.1839  0.3380 -0.4401
   92SAPS   H7Y 9042   3.730   0.614   7.667  2.8748  0.4805  1.5113
   92SAPS   C38 9043   3.714   0.510   7.860 -0.0732  0.4988  0.7085
   92SAPS   H8X 9044   3.800   0.570   7.895 -0.2418  0.4914  1.1379
   92SAPS   H8Y 9045   3.721   0.412   7.912  1.5385  0.7646  1.0557
   92SAPS   C39 9046   3.585   0.570   7.921 -0.1305  0.1644 -0.0723
   92SAPS   H9X 9047   3.516   0.487   7.949  0.6681 -1.1727 -1.8322
   92SAPS   H9Y 9048   3.545   0.639   7.844  0.2426 -0.3659 -0.7580
   92SAPS  C310 9049   3.606   0.665   8.044  0.1322 -0.0949 -0.9838
   92SAPS  H10X 9050   3.640   0.609   8.134 -0.6819 -1.0907 -1.2725
   92SAPS  H10Y 9051   3.496   0.677   8.055  0.0917  0.5683 -1.9559
   92SAPS  C311 9052   3.680   0.794   8.011  0.4342  0.5447 -1.0006
   92SAPS  H11X 9053   3.635   0.853   7.929  1.5039  1.9516 -0.6218
   92SAPS  H11Y 9054   3.783   0.766   7.981  0.6314  0.1143  0.0123
   92SAPS  C312 9055   3.685   0.889   8.137  0.0076  0.5689  0.2714
   92SAPS  H12X 9056   3.576   0.909   8.149 -0.2434 -0.4502 -0.1376
   92SAPS  H12Y 9057   3.745   0.979   8.114  0.0361  0.0319 -1.9534
   92SAPS  C313 9058   3.736   0.830   8.268  0.5532  0.1386 -0.1868
   92SAPS  H13X 9059   3.838   0.791   8.252 -0.5229 -2.3791 -1.5038
   92SAPS  H13Y 9060   3.673   0.745   8.305 -0.5850  0.9847 -0.1105
   92SAPS  C314 9061   3.733   0.925   8.391 -0.1102  0.3087 -0.1263
   92SAPS  H14X 9062   3.815   0.997   8.367  1.8724 -1.0427  2.2172
   92SAPS  H14Y 9063   3.772   0.868   8.478 -1.7309 -0.2253  0.2759
   92SAPS  C315 9064   3.600   0.997   8.425 -0.1028  0.0488 -0.1053
   92SAPS  H15X 9065   3.518   0.933   8.386  1.1927 -2.6088  1.2977
   92SAPS  H15Y 9066   3.586   1.097   8.378 -0.7725  0.7059  1.4164
   92SAPS  C316 9067   3.568   1.002   8.579  0.5132 -0.2221  0.4233
   92SAPS  H16X 9068   3.637   1.078   8.622  0.5643 -0.7560  1.3094
   92SAPS  H16Y 9069   3.592   0.900   8.617 -0.5725  0.1200  2.1472
   92SAPS  C317 9070   3.417   1.023   8.609 -0.5832 -0.0131  0.3569
   92SAPS  H17X 9071   3.356   0.956   8.545 -1.2943  0.3393  0.6600
   92SAPS  H17Y 9072   3.386   1.125   8.577  0.0642 -0.3669 -1.5381
   92SAPS  C318 9073   3.375   0.988   8.748 -0.4443 -0.1472 -0.3918
   92SAPS  H18X 9074   3.387   1.083   8.804  1.6400  0.4572 -1.7332
   92SAPS  H18Y 9075   3.428   0.901   8.793  0.2063 -0.5700 -1.9065
   92SAPS  H18Z 9076   3.269   0.958   8.755 -0.4020  0.0310  1.3958
   93SAPS     N 9077   4.470   0.045   6.370 -0.0516  0.4143 -0.0315
   93SAPS   HN1 9078   4.382  -0.004   6.396  1.3649 -1.6837  1.1054
   93SAPS   HN2 9079   4.522  -0.012   6.301  2.0223  1.0486  0.9258
   93SAPS   HN3 9080   4.535   0.067   6.448 -0.6868 -0.7950  0.8874
   93SAPS   C12 9081   4.445   0.179   6.302  0.4966  0.5804  0.6837
   93SAPS  H12A 9082   4.537   0.233   6.288 -0.6946  2.9511  1.3851
   93SAPS   C13 9083   4.377   0.151   6.161  0.7872 -0.1049 -0.2151
   93SAPS  O13A 9084   4.377   0.038   6.105  0.6640  0.2663  0.1619
   93SAPS  O13B 9085   4.357   0.254   6.089 -0.1334  0.0294 -0.0666
   93SAPS   C11 9086   4.355   0.262   6.391  0.7823 -0.2411 -0.2539
   93SAPS  H11A 9087   4.263   0.206   6.418 -0.8582  1.7254 -1.4374
   93SAPS  H11B 9088   4.317   0.349   6.333  0.6985 -1.2594 -1.8057
   93SAPS     P 9089   4.370   0.398   6.615 -0.4740 -0.3685 -0.1697
   93SAPS   O13 9090   4.449   0.394   6.737 -0.2264 -0.4687 -0.0571
   93SAPS   O14 9091   4.359   0.527   6.544  0.0528 -0.0161 -0.7063
   93SAPS   O12 9092   4.428   0.298   6.508  0.4244 -0.3161 -0.3322
   93SAPS   O11 9093   4.229   0.333   6.632  0.1978  0.5327 -0.0640
   93SAPS    C1 9094   4.210   0.249   6.746  0.1302  0.0938 -0.0882
   93SAPS    HA 9095   4.251   0.299   6.836  1.1167  0.2798 -0.6212
   93SAPS    HB 9096   4.100   0.248   6.763  0.2084 -0.8371  0.4090
   93SAPS    C2 9097   4.248   0.106   6.715  0.0962 -0.2448 -0.2186
   93SAPS    HS 9098   4.265   0.089   6.606  0.5591  2.9992 -0.7462
   93SAPS   O21 9099   4.143   0.020   6.763  0.2419  0.3339  0.4233
   93SAPS   C21 9100   4.040   0.020   6.681  0.4932  0.4357 -0.5123
   93SAPS   O22 9101   4.038   0.077   6.573  0.1925  0.1288  0.3826
   93SAPS   C22 9102   3.920  -0.036   6.757  0.2255 -0.3508  0.0185
   93SAPS   H2R 9103   3.833  -0.019   6.691 -0.9303  0.0422  1.5799
   93SAPS   H2S 9104   3.940  -0.142   6.784  1.9898 -0.0080  0.1662
   93SAPS    C3 9105   4.386   0.062   6.787 -0.0188 -0.1779 -0.5423
   93SAPS    HX 9106   4.464   0.115   6.729 -1.6601 -0.2351 -2.9423
   93SAPS    HY 9107   4.405  -0.045   6.763  0.3653 -0.3817  0.5716
   93SAPS   O31 9108   4.377   0.087   6.928 -0.0729 -0.2534  0.0752
   93SAPS   C31 9109   4.325  -0.001   7.005 -0.1252 -0.0477 -0.2782
   93SAPS   O32 9110   4.303  -0.116   6.972  0.1176  0.0833 -0.3917
   93SAPS   C32 9111   4.302   0.073   7.135  0.5281 -0.0973 -0.6652
   93SAPS   H2X 9112   4.224   0.149   7.113 -0.4460 -0.1843  2.1127
   93SAPS   H2Y 9113   4.397   0.123   7.163 -0.0183 -0.3795  2.0412
   93SAPS   C23 9114   3.890   0.044   6.883 -0.5588  0.1647  0.9587
   93SAPS   H3R 9115   3.871   0.147   6.847  2.4806  0.2885 -0.6395
   93SAPS   H3S 9116   3.982   0.034   6.945  1.2557 -0.1358 -1.6384
   93SAPS   C24 9117   3.760  -0.017   6.937  0.4714 -0.4237 -0.5836
   93SAPS   H4R 9118   3.774  -0.126   6.922  0.0869 -0.4910 -0.4636
   93SAPS   H4S 9119   3.678   0.017   6.870 -0.3429  3.2980  1.9757
   93SAPS   C25 9120   3.724   0.028   7.077 -0.1002 -0.4334 -0.0949
   93SAPS   H5R 9121   3.722   0.137   7.085  0.6391 -0.4473  0.3028
   93SAPS   C26 9122   3.715  -0.045   7.188 -0.3527 -0.1606 -0.5326
   93SAPS   H6R 9123   3.686   0.008   7.280  0.3644 -0.5545 -0.0687
   93SAPS   C27 9124   3.732  -0.190   7.213  0.5682  0.6647 -0.3256
   93SAPS   H7R 9125   3.800  -0.193   7.301  1.4555  0.8710 -0.9888
   93SAPS   H7S 9126   3.797  -0.231   7.133  0.9542  0.3039  0.1654
   93SAPS   C28 9127   3.607  -0.277   7.221 -0.2998  0.2286  0.0917
   93SAPS   H8R 9128   3.561  -0.298   7.124 -2.4829  0.2812  1.0727
   93SAPS   C29 9129   3.556  -0.320   7.334  0.2114 -0.3241 -0.5052
   93SAPS   H9R 9130   3.460  -0.375   7.333 -0.5747  0.9741  0.1944
   93SAPS  C210 9131   3.607  -0.306   7.477  0.0415  0.1174 -0.1876
   93SAPS  H10R 9132   3.511  -0.293   7.532  0.2430  1.0613 -0.0300
   93SAPS  H10S 9133   3.674  -0.218   7.488 -0.8545  0.8043 -0.1527
   93SAPS  C211 9134   3.665  -0.433   7.524  0.4094 -0.2679  0.0511
   93SAPS  H11R 9135   3.742  -0.473   7.455 -0.6915 -0.9050 -0.8420
   93SAPS  C212 9136   3.644  -0.497   7.640  0.6603 -0.0981 -0.2939
   93SAPS  H12R 9137   3.694  -0.591   7.666  0.3374  0.0790  1.0947
   93SAPS  C213 9138   3.556  -0.454   7.753  0.1927 -0.7063  0.6313
   93SAPS  H13R 9139   3.475  -0.524   7.782  0.7146 -0.6483  2.3872
   93SAPS  H13S 9140   3.499  -0.361   7.731 -0.6835 -0.5357  3.2359
   93SAPS  C214 9141   3.645  -0.436   7.874  0.2838 -0.3812  0.3952
   93SAPS  H14R 9142   3.738  -0.389   7.839 -1.9490  1.1340 -4.6093
   93SAPS  C215 9143   3.612  -0.470   7.999  0.1778 -0.6300 -0.0180
   93SAPS  H15R 9144   3.680  -0.438   8.080 -2.1096  0.9825  1.4011
   93SAPS  C216 9145   3.480  -0.527   8.050  0.3485  0.2883  0.0086
   93SAPS  H16R 9146   3.454  -0.609   7.980 -0.0765  1.9459 -1.8536
   93SAPS  H16S 9147   3.391  -0.460   8.049 -0.6760 -1.0381 -0.2469
   93SAPS  C217 9148   3.505  -0.577   8.190 -0.0796 -0.3302 -0.6947
   93SAPS  H17R 9149   3.533  -0.490   8.254 -0.4099 -0.6468 -0.1097
   93SAPS  H17S 9150   3.588  -0.651   8.185  0.4393 -0.0231  1.7592
   93SAPS  C218 9151   3.399  -0.652   8.272  0.1538 -0.1483 -0.0054
   93SAPS  H18R 9152   3.335  -0.715   8.208  0.9983 -1.7046  0.6341
   93SAPS  H18S 9153   3.330  -0.589   8.333 -0.5336  2.8076 -3.4675
   93SAPS  C219 9154   3.464  -0.747   8.375 -0.3781 -0.1287 -0.2726
   93SAPS  H19R 9155   3.536  -0.690   8.438 -2.1881 -0.6282  2.4500
   93SAPS  H19S 9156   3.516  -0.830   8.324 -0.1102  0.3958 -0.8634
   93SAPS  C220 9157   3.367  -0.815   8.471  0.0495  0.4988 -0.1089
   93SAPS  H20R 9158   3.300  -0.884   8.415  0.6669  0.2583 -0.5675
   93SAPS  H20S 9159   3.298  -0.738   8.512  0.7807  1.6057 -0.9081
   93SAPS  H20T 9160   3.424  -0.859   8.555 -1.2500  0.2445  0.6653
   93SAPS   C33 9161   4.264  -0.011   7.258  0.0229  0.3807  0.0363
   93SAPS   H3X 9162   4.239   0.053   7.345 -0.1776 -2.3361  2.0937
   93SAPS   H3Y 9163   4.346  -0.078   7.289  0.6548  0.5467 -1.1920
   93SAPS   C34 9164   4.129  -0.090   7.233 -0.6404 -1.0854 -0.1204
   93SAPS   H4X 9165   4.140  -0.170   7.156 -1.6563 -2.0170  0.6663
   93SAPS   H4Y 9166   4.046  -0.023   7.201  0.8594  1.0580  0.2908
   93SAPS   C35 9167   4.091  -0.162   7.360 -0.0187  0.7611 -0.4399
   93SAPS   H5X 9168   4.179  -0.218   7.399 -0.0729  1.1362  0.2278
   93SAPS   H5Y 9169   4.013  -0.235   7.328  0.5128  0.3377 -0.8029
   93SAPS   C36 9170   4.020  -0.076   7.471 -0.5141 -0.1465 -0.7076
   93SAPS   H6X 9171   3.932  -0.018   7.434 -0.3160 -0.0420 -1.0153
   93SAPS   H6Y 9172   4.092  -0.014   7.529 -0.6526  0.5528 -1.2590
   93SAPS   C37 9173   3.970  -0.180   7.576 -0.6505 -0.1268  0.2432
   93SAPS   H7X 9174   4.057  -0.247   7.593  0.6959  1.4235 -0.3376
   93SAPS   H7Y 9175   3.886  -0.242   7.537 -1.5652  2.1943 -1.7635
   93SAPS   C38 9176   3.919  -0.116   7.698  0.4547  0.3708 -0.1430
   93SAPS   H8X 9177   3.875  -0.202   7.752  2.5350 -1.3970 -1.1055
   93SAPS   H8Y 9178   3.843  -0.038   7.676 -2.0472 -1.4542  1.4859
   93SAPS   C39 9179   4.017  -0.058   7.801 -0.2744 -0.0303 -0.4967
   93SAPS   H9X 9180   4.075   0.018   7.744 -0.2414 -0.8119 -1.5341
   93SAPS   H9Y 9181   4.084  -0.142   7.831 -1.9631 -0.8908  1.0630
   93SAPS  C310 9182   3.945  -0.012   7.923  0.2453  0.5260 -0.1273
   93SAPS  H10X 9183   3.865  -0.082   7.955 -1.1149  2.2205  0.3085
   93SAPS  H10Y 9184   3.889   0.080   7.896 -0.5898 -0.4553 -1.8794
   93SAPS  C311 9185   4.035   0.015   8.036  0.1959 -0.0768  0.4907
   93SAPS  H11X 9186   4.106   0.082   7.983  1.6500 -2.0766 -0.2020
   93SAPS  H11Y 9187   4.091  -0.070   8.080  0.8159  0.3830  0.6124
   93SAPS  C312 9188   3.967   0.081   8.155  0.2740 -0.6498  0.3257
   93SAPS  H12X 9189   4.037   0.068   8.240  1.4048 -0.5025 -0.5692
   93SAPS  H12Y 9190   3.871   0.029   8.177 -0.9066  1.5053  0.5644
   93SAPS  C313 9191   3.960   0.235   8.124 -0.6846 -0.1866 -0.4642
   93SAPS  H13X 9192   3.913   0.250   8.025 -1.8019 -1.2437 -0.1222
   93SAPS  H13Y 9193   4.067   0.263   8.120 -0.6311 -0.0600  1.2806
   93SAPS  C314 9194   3.905   0.312   8.249 -0.1822  0.9193  0.1763
   93SAPS  H14X 9195   3.860   0.231   8.311  1.6131  0.1437  0.5363
   93SAPS  H14Y 9196   3.815   0.357   8.204 -0.3904 -0.3267 -0.7004
   93SAPS  C315 9197   3.998   0.416   8.303 -0.2163  0.2933 -0.2630
   93SAPS  H15X 9198   4.010   0.495   8.227 -0.0122 -0.7450 -1.3450
   93SAPS  H15Y 9199   4.092   0.359   8.322 -1.1755 -1.5249 -0.7145
   93SAPS  C316 9200   3.950   0.456   8.440 -0.5738 -0.5601  0.5517
   93SAPS  H16X 9201   3.902   0.368   8.487 -2.2428 -1.2681 -2.2371
   93SAPS  H16Y 9202   3.867   0.527   8.420  1.4151  1.3340 -1.7495
   93SAPS  C317 9203   4.055   0.529   8.522 -0.2251 -0.0531 -0.4246
   93SAPS  H17X 9204   4.001   0.588   8.598 -0.0348  0.1502 -0.4468
   93SAPS  H17Y 9205   4.103   0.610   8.463 -1.2408  0.4327 -0.5985
   93SAPS  C318 9206   4.165   0.449   8.602 -0.0243 -0.6733 -0.1013
   93SAPS  H18X 9207   4.122   0.378   8.676  1.2401 -2.5290 -1.0742
   93SAPS  H18Y 9208   4.243   0.515   8.646 -1.1026  1.5673 -1.3609
   93SAPS  H18Z 9209   4.217   0.392   8.522  0.0485 -1.2137  0.3232
   94SAPS     N 9210   4.755   3.134   6.057  0.1907  0.6183 -0.3206
   94SAPS   HN1 9211   4.792   3.040   6.079  2.2157  1.9722  2.8379
   94SAPS   HN2 9212   4.834   3.199   6.078  1.0412 -0.1578 -1.0459
   94SAPS   HN3 9213   4.674   3.164   6.115  1.6268  1.3829  1.3730
   94SAPS   C12 9214   4.706   3.134   5.917 -0.2398 -0.6440  0.5511
   94SAPS  H12A 9215   4.692   3.238   5.888 -0.7462 -1.4321 -2.3325
   94SAPS   C13 9216   4.806   3.076   5.814 -0.0766  0.4135  0.0570
   94SAPS  O13A 9217   4.911   3.027   5.862 -0.5457  0.0093  0.0459
   94SAPS  O13B 9218   4.763   3.035   5.703  0.1719 -0.3860  0.0846
   94SAPS   C11 9219   4.568   3.072   5.899  0.7667  0.1689  0.0018
   94SAPS  H11A 9220   4.577   2.966   5.930 -0.3157 -0.1857 -0.8465
   94SAPS  H11B 9221   4.543   3.071   5.791 -1.9757 -0.9616  0.5694
   94SAPS     P 9222   4.308   3.098   5.941  0.2315  0.6174 -0.3409
   94SAPS   O13 9223   4.221   3.212   5.981 -0.3739  0.5485 -0.1264
   94SAPS   O14 9224   4.289   3.048   5.804  0.2998 -0.7202 -0.6165
   94SAPS   O12 9225   4.459   3.130   5.968 -0.0389  0.1148 -0.2134
   94SAPS   O11 9226   4.282   2.977   6.036  0.1359 -0.0217 -0.2018
   94SAPS    C1 9227   4.363   2.945   6.152  0.9237 -0.0901  0.3123
   94SAPS    HA 9228   4.343   2.842   6.189  1.0166  0.1182  0.9670
   94SAPS    HB 9229   4.472   2.952   6.129  0.5376  0.4589 -1.4503
   94SAPS    C2 9230   4.317   3.031   6.278  0.0456 -0.0666  0.2195
   94SAPS    HS 9231   4.304   3.140   6.260 -0.0458  0.0302  0.8305
   94SAPS   O21 9232   4.412   3.004   6.381  0.1836 -0.7381 -0.0235
   94SAPS   C21 9233   4.526   3.074   6.378 -0.1199  0.3444  0.4057
   94SAPS   O22 9234   4.574   3.130   6.282 -0.3048  0.1390 -0.4118
   94SAPS   C22 9235   4.581   3.072   6.525 -0.9747  0.2793  0.3714
   94SAPS   H2R 9236   4.520   3.132   6.595 -0.8430  1.9831 -0.9149
   94SAPS   H2S 9237   4.593   2.966   6.556  0.5679 -0.2373 -1.7489
   94SAPS    C3 9238   4.170   2.994   6.327 -0.8783 -0.6719 -0.0537
   94SAPS    HX 9239   4.175   2.891   6.369 -0.4585 -1.8503 -2.7604
   94SAPS    HY 9240   4.100   2.981   6.241 -2.6616  1.1093  1.0491
   94SAPS   O31 9241   4.104   3.092   6.410  0.4008 -0.0082  0.1692
   94SAPS   C31 9242   4.099   3.062   6.537  0.5039  0.1532  0.4440
   94SAPS   O32 9243   4.116   2.948   6.584  0.3080  0.1759 -0.0187
   94SAPS   C32 9244   4.069   3.189   6.617  0.2348  0.0015  0.2007
   94SAPS   H2X 9245   3.984   3.226   6.557 -1.9820 -2.5658  1.5319
   94SAPS   H2Y 9246   4.159   3.253   6.627  1.6707 -1.5881 -1.7985
   94SAPS   C23 9247   4.724   3.137   6.512  0.2900 -0.5724 -0.1278
   94SAPS   H3R 9248   4.722   3.223   6.441  0.4941 -2.8824 -3.1033
   94SAPS   H3S 9249   4.797   3.065   6.469  0.5756  0.4303 -1.3687
   94SAPS   C24 9250   4.792   3.182   6.647  0.1541 -0.3114 -0.6353
   94SAPS   H4R 9251   4.802   3.102   6.725 -1.1768  0.6547  0.5818
   94SAPS   H4S 9252   4.727   3.255   6.701  0.5188  0.8985 -1.7909
   94SAPS   C25 9253   4.915   3.261   6.623 -0.0830  0.2689 -1.0505
   94SAPS   H5R 9254   4.988   3.198   6.570  1.8706  0.6868  1.0165
   94SAPS   C26 9255   4.958   3.372   6.684 -0.8681  0.1192 -0.1965
   94SAPS   H6R 9256   5.059   3.406   6.656 -0.7131  0.3652  0.6269
   94SAPS   C27 9257   4.887   3.448   6.792  0.4061 -1.0847 -0.6631
   94SAPS   H7R 9258   4.822   3.375   6.846  0.4660  0.2576  1.2952
   94SAPS   H7S 9259   4.815   3.519   6.746  1.8369 -0.3103 -1.8035
   94SAPS   C28 9260   4.961   3.533   6.891 -0.1660  0.7385  0.0122
   94SAPS   H8R 9261   4.962   3.639   6.860 -0.6167  0.6368 -0.3661
   94SAPS   C29 9262   5.018   3.487   7.007 -0.0479 -0.7282 -0.7003
   94SAPS   H9R 9263   5.067   3.562   7.071 -2.3251 -0.4870  0.8575
   94SAPS  C210 9264   5.017   3.344   7.061 -0.4742 -0.3898  0.5747
   94SAPS  H10R 9265   5.025   3.272   6.976  2.1245 -0.2346  0.6088
   94SAPS  H10S 9266   4.920   3.327   7.113  0.2007 -0.2098  1.9048
   94SAPS  C211 9267   5.131   3.312   7.146 -0.2025 -0.3716  0.1054
   94SAPS  H11R 9268   5.210   3.387   7.156  1.0525 -1.7112  0.6875
   94SAPS  C212 9269   5.144   3.198   7.210  0.1998  0.5558 -0.4055
   94SAPS  H12R 9270   5.235   3.184   7.271 -0.4051  1.4682  0.7618
   94SAPS  C213 9271   5.053   3.081   7.224  0.7031  0.0766  0.3413
   94SAPS  H13R 9272   4.991   3.081   7.132  0.2888  0.8427  0.6186
   94SAPS  H13S 9273   4.977   3.099   7.302  0.3492  1.4901 -0.3018
   94SAPS  C214 9274   5.124   2.950   7.230  0.4589 -0.2817 -0.1054
   94SAPS  H14R 9275   5.160   2.919   7.131  1.3252  0.6308 -0.0999
   94SAPS  C215 9276   5.116   2.864   7.338 -0.7670 -0.3569  0.1917
   94SAPS  H15R 9277   5.173   2.770   7.346  3.3066  2.0318  2.3612
   94SAPS  C216 9278   5.044   2.894   7.465 -0.4056  0.4714 -0.9223
   94SAPS  H16R 9279   4.936   2.870   7.460  0.0642 -1.8756 -1.3079
   94SAPS  H16S 9280   5.059   2.995   7.508 -1.0515  0.2651 -0.1859
   94SAPS  C217 9281   5.113   2.797   7.567 -0.3983  0.5546 -0.6886
   94SAPS  H17R 9282   5.223   2.793   7.579 -0.4854 -1.0583 -0.1248
   94SAPS  H17S 9283   5.085   2.693   7.540 -0.4692  0.5978 -0.7833
   94SAPS  C218 9284   5.043   2.800   7.708 -0.1118 -0.3402  0.7908
   94SAPS  H18R 9285   4.933   2.791   7.700 -0.0421 -0.1393 -0.6724
   94SAPS  H18S 9286   5.058   2.905   7.741  2.1222  0.4605 -2.3085
   94SAPS  C219 9287   5.098   2.700   7.814 -0.0388 -0.8368  0.4252
   94SAPS  H19R 9288   5.205   2.722   7.833  0.2884  0.0302 -1.9832
   94SAPS  H19S 9289   5.088   2.590   7.797 -0.0849 -1.2143  2.6163
   94SAPS  C220 9290   5.044   2.738   7.961 -0.2402 -0.6821  0.3178
   94SAPS  H20R 9291   4.935   2.720   7.971 -0.5553  0.1390 -1.2103
   94SAPS  H20S 9292   5.079   2.836   8.001  0.5386 -1.7600  2.3999
   94SAPS  H20T 9293   5.105   2.673   8.027 -1.5819 -1.9591  0.3542
   94SAPS   C33 9294   4.024   3.163   6.763  0.4715  1.0957  0.4481
   94SAPS   H3X 9295   4.105   3.110   6.817  0.9961  2.1484  0.7317
   94SAPS   H3Y 9296   3.935   3.096   6.767  1.9642 -1.0687 -0.4158
   94SAPS   C34 9297   4.013   3.295   6.842 -0.0575 -0.2695 -0.0664
   94SAPS   H4X 9298   3.923   3.348   6.803  0.7608  0.6026 -0.8105
   94SAPS   H4Y 9299   4.102   3.357   6.822 -0.4419  0.4475  0.3946
   94SAPS   C35 9300   3.995   3.266   6.988  0.7129  0.1119  0.2600
   94SAPS   H5X 9301   4.080   3.199   7.014  0.9778  0.7379  1.0805
   94SAPS   H5Y 9302   3.903   3.207   7.008  1.1088 -1.5604 -2.4677
   94SAPS   C36 9303   4.005   3.391   7.078  0.3410 -0.6621  0.1410
   94SAPS   H6X 9304   3.907   3.442   7.085  0.1471 -0.9841 -0.1700
   94SAPS   H6Y 9305   4.086   3.459   7.043 -0.4885  0.3704  0.1906
   94SAPS   C37 9306   4.027   3.343   7.222  0.1563 -0.4612  0.4538
   94SAPS   H7X 9307   4.107   3.266   7.224 -1.5416 -2.4187 -1.4644
   94SAPS   H7Y 9308   3.935   3.281   7.228 -0.3576  0.2620  0.2326
   94SAPS   C38 9309   4.022   3.445   7.335  0.1559  0.4859 -0.5862
   94SAPS   H8X 9310   3.937   3.511   7.308  0.7815  1.2455 -0.7322
   94SAPS   H8Y 9311   4.118   3.500   7.322  0.8958 -1.0350 -2.0082
   94SAPS   C39 9312   4.018   3.369   7.468  0.7103 -0.2034 -0.4472
   94SAPS   H9X 9313   4.112   3.309   7.469  0.6225 -0.3718 -1.5132
   94SAPS   H9Y 9314   3.936   3.294   7.468  0.3787  0.1387  0.4977
   94SAPS  C310 9315   4.012   3.461   7.590  0.5716 -0.3415 -0.1182
   94SAPS  H10X 9316   3.920   3.523   7.592 -0.2240 -1.5114  0.9361
   94SAPS  H10Y 9317   4.094   3.536   7.585 -0.2470  0.6141  0.4947
   94SAPS  C311 9318   4.022   3.394   7.728 -0.4445 -0.6293  0.2111
   94SAPS  H11X 9319   4.113   3.332   7.743 -1.6677 -2.7779 -0.8129
   94SAPS  H11Y 9320   3.942   3.321   7.749 -2.0741  1.4452  1.6650
   94SAPS  C312 9321   4.009   3.493   7.844 -0.1314  0.0811 -0.6167
   94SAPS  H12X 9322   3.905   3.528   7.859  0.8560  2.4008  1.7285
   94SAPS  H12Y 9323   4.068   3.583   7.816 -0.5396 -0.3909 -3.2275
   94SAPS  C313 9324   4.058   3.438   7.980  0.7688 -0.2703 -0.4405
   94SAPS  H13X 9325   4.166   3.454   8.003  0.3862  0.7900  0.7402
   94SAPS  H13Y 9326   4.037   3.329   7.987 -0.0772 -0.1356 -0.7851
   94SAPS  C314 9327   3.970   3.492   8.102 -0.6482  0.1521 -0.3416
   94SAPS  H14X 9328   3.952   3.602   8.103 -0.3530  0.2001 -0.0171
   94SAPS  H14Y 9329   4.024   3.461   8.194 -2.5662  2.1410  1.5643
   94SAPS  C315 9330   3.832   3.422   8.108  0.1509  0.6721  0.3164
   94SAPS  H15X 9331   3.861   3.316   8.089  1.4077  1.0157  0.2076
   94SAPS  H15Y 9332   3.774   3.462   8.023 -0.2178  2.1084  1.2093
   94SAPS  C316 9333   3.750   3.426   8.240 -0.8076 -0.4285 -0.3838
   94SAPS  H16X 9334   3.749   3.534   8.267  0.1518 -0.2683 -0.9539
   94SAPS  H16Y 9335   3.796   3.360   8.316 -0.4638  0.3213  0.0700
   94SAPS  C317 9336   3.613   3.379   8.203 -0.0742 -0.0053  0.1607
   94SAPS  H17X 9337   3.623   3.277   8.160  0.2599  2.4490 -6.8223
   94SAPS  H17Y 9338   3.575   3.444   8.121  0.2873 -1.7442 -1.4366
   94SAPS  C318 9339   3.518   3.373   8.315  0.7670 -0.2461  0.1891
   94SAPS  H18X 9340   3.452   3.284   8.309 -1.9692  1.7500 -2.7634
   94SAPS  H18Y 9341   3.452   3.462   8.311 -0.0353 -0.8005  0.8147
   94SAPS  H18Z 9342   3.571   3.368   8.413  1.0660 -0.6591  0.0063
   95SAPS     N 9343   1.937   6.449   6.120  0.0273 -0.4196 -0.0170
   95SAPS   HN1 9344   2.038   6.450   6.092 -0.3386 -0.3175 -1.3952
   95SAPS   HN2 9345   1.906   6.355   6.150 -2.0144  0.3690  0.5172
   95SAPS   HN3 9346   1.874   6.474   6.041  1.4321 -0.2036 -1.1136
   95SAPS   C12 9347   1.924   6.542   6.233 -0.0716 -0.8043 -0.1555
   95SAPS  H12A 9348   1.986   6.504   6.313 -0.6383 -0.8007  0.2875
   95SAPS   C13 9349   1.978   6.675   6.215  0.2954  0.1183 -0.0209
   95SAPS  O13A 9350   2.048   6.702   6.115 -0.3864 -0.2232 -0.2535
   95SAPS  O13B 9351   1.961   6.757   6.309  0.0513  0.6746 -0.0756
   95SAPS   C11 9352   1.781   6.549   6.283 -0.1133  0.6204  0.3128
   95SAPS  H11A 9353   1.715   6.586   6.202  1.1768 -0.6074 -1.3646
   95SAPS  H11B 9354   1.782   6.616   6.372  0.9314  1.8157 -0.5493
   95SAPS     P 9355   1.748   6.357   6.450 -0.0294 -0.0371 -0.1965
   95SAPS   O13 9356   1.657   6.419   6.554 -0.2362 -0.1607 -0.4332
   95SAPS   O14 9357   1.740   6.208   6.438  0.1576  0.3274  0.2718
   95SAPS   O12 9358   1.719   6.424   6.311  0.6028  0.0573  0.7393
   95SAPS   O11 9359   1.892   6.397   6.488 -1.0834  0.0395  0.0045
   95SAPS    C1 9360   1.977   6.294   6.538  0.2090 -0.2159  0.3747
   95SAPS    HA 9361   1.975   6.199   6.481  1.1291 -1.3597  2.1604
   95SAPS    HB 9362   2.078   6.332   6.509 -0.1445  1.0307  0.7046
   95SAPS    C2 9363   1.952   6.249   6.689 -0.4082  0.0590  0.2137
   95SAPS    HS 9364   1.844   6.222   6.687 -0.1876 -0.8669  0.4266
   95SAPS   O21 9365   1.977   6.362   6.778 -0.1190  0.5345  0.1356
   95SAPS   C21 9366   1.875   6.403   6.853  0.4346  0.7384 -0.3006
   95SAPS   O22 9367   1.768   6.347   6.860  0.2338 -0.0326  0.7492
   95SAPS   C22 9368   1.913   6.529   6.925 -0.4768  0.1167 -0.2296
   95SAPS   H2R 9369   2.018   6.510   6.956 -1.6468 -0.7432  3.7654
   95SAPS   H2S 9370   1.912   6.612   6.851  0.5350 -0.0925 -0.4869
   95SAPS    C3 9371   2.026   6.119   6.720 -0.2001 -1.0832  0.3936
   95SAPS    HX 9372   2.136   6.109   6.711 -0.1305 -1.2471  1.3321
   95SAPS    HY 9373   1.990   6.043   6.647  0.9129  2.0333 -3.7741
   95SAPS   O31 9374   1.978   6.069   6.851 -0.0825 -0.0361 -0.0282
   95SAPS   C31 9375   2.052   6.102   6.951  0.1413 -0.7549  0.0036
   95SAPS   O32 9376   2.161   6.155   6.942 -0.0285  0.4395 -0.7135
   95SAPS   C32 9377   1.988   6.080   7.088  0.6928 -0.1710  0.1031
   95SAPS   H2X 9378   1.963   5.973   7.097 -0.8513  0.0841 -0.8081
   95SAPS   H2Y 9379   1.892   6.136   7.085 -0.0366 -1.4030  0.0271
   95SAPS   C23 9380   1.839   6.554   7.053 -0.4133 -0.3651 -0.3395
   95SAPS   H3R 9381   1.732   6.527   7.048 -0.1447 -1.2570 -1.6308
   95SAPS   H3S 9382   1.837   6.662   7.080 -1.7949 -0.6135  0.6833
   95SAPS   C24 9383   1.909   6.489   7.168  0.5495  0.3488 -0.5420
   95SAPS   H4R 9384   1.994   6.558   7.187 -0.1743  1.1991 -0.3269
   95SAPS   H4S 9385   1.961   6.394   7.142 -0.1310 -0.2121  0.1012
   95SAPS   C25 9386   1.817   6.470   7.288  0.1034 -0.0162  0.7445
   95SAPS   H5R 9387   1.728   6.406   7.273 -0.2265  0.6740 -0.3836
   95SAPS   C26 9388   1.849   6.503   7.415  0.3792  0.3008  0.3454
   95SAPS   H6R 9389   1.770   6.492   7.491  2.1900  0.2883  2.3208
   95SAPS   C27 9390   1.967   6.574   7.467 -0.4651  0.9614  0.0160
   95SAPS   H7R 9391   1.923   6.664   7.516 -2.0976  0.3480 -0.2357
   95SAPS   H7S 9392   2.028   6.600   7.379  0.1647 -0.6061 -0.0456
   95SAPS   C28 9393   2.048   6.490   7.563  0.2059  0.2540 -0.1132
   95SAPS   H8R 9394   2.144   6.455   7.522 -0.1428 -2.0774  0.8592
   95SAPS   C29 9395   2.021   6.468   7.690  0.6960  0.3934 -0.5890
   95SAPS   H9R 9396   2.100   6.417   7.747 -0.2704  0.9999  1.4011
   95SAPS  C210 9397   1.907   6.520   7.768  0.1932  0.2150 -0.2968
   95SAPS  H10R 9398   1.855   6.596   7.705  1.8456 -0.0573 -2.0587
   95SAPS  H10S 9399   1.933   6.585   7.854  2.1258  0.0776 -0.7386
   95SAPS  C211 9400   1.812   6.406   7.788 -0.0049 -0.3800 -0.4801
   95SAPS  H11R 9401   1.787   6.356   7.693  0.0825 -2.0294  0.3301
   95SAPS  C212 9402   1.756   6.359   7.902 -0.3260  0.5015  0.4792
   95SAPS  H12R 9403   1.678   6.282   7.907  0.4636 -0.3288  0.3599
   95SAPS  C213 9404   1.789   6.415   8.033 -1.0031 -0.9697  0.1662
   95SAPS  H13R 9405   1.734   6.510   8.047  1.4585  0.8720 -1.7758
   95SAPS  H13S 9406   1.894   6.450   8.028 -0.8707 -1.5207 -1.6906
   95SAPS  C214 9407   1.796   6.316   8.148  0.3198 -0.0992 -0.1383
   95SAPS  H14R 9408   1.848   6.226   8.114 -0.1182 -1.1047  1.7043
   95SAPS  C215 9409   1.743   6.332   8.272  0.0167 -0.0632  0.6071
   95SAPS  H15R 9410   1.738   6.241   8.334 -2.8467  0.8629  1.9279
   95SAPS  C216 9411   1.661   6.449   8.314 -0.0635  0.6595 -0.0563
   95SAPS  H16R 9412   1.566   6.410   8.357  0.8490 -1.3482  0.2826
   95SAPS  H16S 9413   1.629   6.522   8.237  1.4252  1.5436  0.1174
   95SAPS  C217 9414   1.724   6.534   8.424 -0.4585  0.0535 -0.1118
   95SAPS  H17R 9415   1.747   6.476   8.516  0.6436 -0.5066 -0.7274
   95SAPS  H17S 9416   1.662   6.624   8.446  0.3765  0.4102  0.8975
   95SAPS  C218 9417   1.865   6.593   8.398 -0.4236  0.0025  0.1806
   95SAPS  H18R 9418   1.926   6.512   8.352 -0.0753  0.2788  0.1546
   95SAPS  H18S 9419   1.918   6.625   8.490 -3.3834 -0.0521  2.0129
   95SAPS  C219 9420   1.867   6.715   8.305 -0.0419 -0.2471  0.4531
   95SAPS  H19R 9421   1.794   6.690   8.225 -0.3374  0.8434  0.3676
   95SAPS  H19S 9422   1.972   6.710   8.268  0.2918  0.6557  1.2306
   95SAPS  C220 9423   1.837   6.852   8.368 -0.4570  0.5353 -0.4921
   95SAPS  H20R 9424   1.751   6.843   8.437  1.6221 -0.7976  2.0920
   95SAPS  H20S 9425   1.825   6.935   8.294  1.2024  2.9528  1.7685
   95SAPS  H20T 9426   1.928   6.875   8.427 -0.7245  0.0556  0.1182
   95SAPS   C33 9427   2.061   6.120   7.213 -0.5073 -0.1855 -0.4933
   95SAPS   H3X 9428   2.106   6.222   7.211  0.7978 -0.7427 -1.1575
   95SAPS   H3Y 9429   2.145   6.052   7.240  0.2101  0.2162 -1.6275
   95SAPS   C34 9430   1.965   6.124   7.335 -0.0517  0.0377  0.5831
   95SAPS   H4X 9431   1.929   6.019   7.344 -0.9441  0.4167  1.5343
   95SAPS   H4Y 9432   1.876   6.183   7.307 -1.6160 -2.7998 -0.8520
   95SAPS   C35 9433   2.019   6.170   7.471 -0.3710 -0.7215 -0.4425
   95SAPS   H5X 9434   1.934   6.195   7.538  0.8397 -0.9107  1.2374
   95SAPS   H5Y 9435   2.080   6.260   7.450 -0.5095 -0.8752 -1.5765
   95SAPS   C36 9436   2.111   6.070   7.539 -0.9817  0.1001  0.4027
   95SAPS   H6X 9437   2.185   6.035   7.464 -1.3093  1.6545 -0.6887
   95SAPS   H6Y 9438   2.053   5.976   7.552 -1.3379  0.2812  0.1253
   95SAPS   C37 9439   2.160   6.101   7.683  0.5047  0.4128 -0.5324
   95SAPS   H7X 9440   2.066   6.127   7.737 -0.9886 -3.6613 -0.8177
   95SAPS   H7Y 9441   2.226   6.191   7.683  0.3448  0.6326  2.5822
   95SAPS   C38 9442   2.238   5.984   7.739  0.3488 -0.0306 -0.3643
   95SAPS   H8X 9443   2.183   5.887   7.740 -0.5124  0.4301  1.9858
   95SAPS   H8Y 9444   2.265   6.006   7.844 -2.3001 -0.4185  0.4654
   95SAPS   C39 9445   2.377   5.950   7.674 -0.3664  0.0918  0.7253
   95SAPS   H9X 9446   2.415   6.050   7.643 -1.6025  0.5067  0.5123
   95SAPS   H9Y 9447   2.361   5.887   7.584  0.3886 -1.4503  1.6200
   95SAPS  C310 9448   2.474   5.869   7.765  0.5768 -0.5978  0.2845
   95SAPS  H10X 9449   2.570   5.849   7.714  0.6798 -0.8692  0.5834
   95SAPS  H10Y 9450   2.416   5.776   7.781  0.6841 -0.6985  0.0835
   95SAPS  C311 9451   2.519   5.930   7.896  0.5592 -0.7261 -0.1989
   95SAPS  H11X 9452   2.427   5.934   7.957  1.2166 -1.7407  0.9203
   95SAPS  H11Y 9453   2.552   6.034   7.877  0.0439 -0.6178 -0.5088
   95SAPS  C312 9454   2.630   5.844   7.961  0.0334  0.3569  0.4221
   95SAPS  H12X 9455   2.734   5.875   7.938  0.8620  0.7742  4.1278
   95SAPS  H12Y 9456   2.605   5.744   7.919 -0.2728  0.7294 -0.3141
   95SAPS  C313 9457   2.603   5.827   8.111  0.1469  0.1613 -0.1227
   95SAPS  H13X 9458   2.665   5.757   8.170  0.5650 -0.0440 -0.7963
   95SAPS  H13Y 9459   2.501   5.786   8.122 -0.0630  0.2133 -1.6868
   95SAPS  C314 9460   2.607   5.962   8.179 -0.4131  0.4616  0.2860
   95SAPS  H14X 9461   2.524   6.025   8.140 -0.3461 -0.8612 -2.1719
   95SAPS  H14Y 9462   2.704   6.009   8.152 -0.8914  1.2092 -0.1564
   95SAPS  C315 9463   2.611   5.961   8.337  0.1565  0.2023 -0.5646
   95SAPS  H15X 9464   2.598   6.068   8.362 -2.2220 -0.4345  1.2646
   95SAPS  H15Y 9465   2.713   5.927   8.366 -0.0108 -0.7104 -1.0138
   95SAPS  C316 9466   2.501   5.884   8.407  0.8573  0.0107  0.6167
   95SAPS  H16X 9467   2.494   5.778   8.376 -1.1267 -0.5624  2.7074
   95SAPS  H16Y 9468   2.408   5.939   8.383  0.4777 -1.5342 -1.7365
   95SAPS  C317 9469   2.522   5.880   8.560 -0.2535  0.3314  0.2109
   95SAPS  H17X 9470   2.513   5.984   8.599 -0.6429 -0.0274  1.1044
   95SAPS  H17Y 9471   2.629   5.852   8.578  0.8979  3.1486 -1.5757
   95SAPS  C318 9472   2.433   5.805   8.653  0.0728  0.8019 -0.3754
   95SAPS  H18X 9473   2.329   5.841   8.638 -0.1720  1.1331  1.7311
   95SAPS  H18Y 9474   2.452   5.822   8.761 -1.1459  0.5190 -0.0978
   95SAPS  H18Z 9475   2.435   5.700   8.616 -2.0586 -0.1363  1.8579
   96SAPS     N 9476   2.607   1.618   6.229  0.6020 -0.0593 -0.3579
   96SAPS   HN1 9477   2.600   1.689   6.305 -5.0537  0.4666 -0.9627
   96SAPS   HN2 9478   2.611   1.523   6.270 -0.7906  0.3017  0.6758
   96SAPS   HN3 9479   2.692   1.649   6.178  1.3310  0.0357  0.8695
   96SAPS   C12 9480   2.485   1.642   6.152  0.2457 -0.5342  0.2593
   96SAPS  H12A 9481   2.473   1.743   6.114  0.6312 -1.1957 -1.7034
   96SAPS   C13 9482   2.464   1.547   6.027  0.1213 -0.4870  0.1204
   96SAPS  O13A 9483   2.527   1.438   6.012  0.6181 -0.4255  0.6568
   96SAPS  O13B 9484   2.362   1.567   5.960 -0.5983 -0.3058  0.3947
   96SAPS   C11 9485   2.359   1.623   6.252 -0.3325  0.3588  1.1012
   96SAPS  H11A 9486   2.362   1.525   6.304 -2.7595 -0.9984 -1.0700
   96SAPS  H11B 9487   2.262   1.632   6.199 -0.1335 -1.3516  0.3630
   96SAPS     P 9488   2.254   1.767   6.440 -0.1056  0.3023  0.1805
   96SAPS   O13 9489   2.287   1.885   6.523  0.4157  0.1935  0.1519
   96SAPS   O14 9490   2.132   1.772   6.361  0.2636 -0.1273  0.3440
   96SAPS   O12 9491   2.377   1.725   6.344 -0.0962 -0.2674 -0.4292
   96SAPS   O11 9492   2.251   1.645   6.537 -0.2201  0.4351 -0.5842
   96SAPS    C1 9493   2.377   1.581   6.587  0.6051 -0.1276 -0.2446
   96SAPS    HA 9494   2.354   1.473   6.592  1.7673 -0.3492  0.7092
   96SAPS    HB 9495   2.474   1.604   6.537  2.7591 -1.7060  2.8880
   96SAPS    C2 9496   2.394   1.609   6.742 -0.1645 -0.5578 -0.5698
   96SAPS    HS 9497   2.475   1.544   6.781 -0.0893 -0.6716 -0.9073
   96SAPS   O21 9498   2.269   1.599   6.818  0.4995 -0.5143 -0.3194
   96SAPS   C21 9499   2.236   1.478   6.846  0.7570  0.4653  0.1899
   96SAPS   O22 9500   2.303   1.377   6.830  0.3353 -0.1968 -0.4162
   96SAPS   C22 9501   2.095   1.473   6.906 -0.6935 -0.2023  0.8048
   96SAPS   H2R 9502   2.094   1.553   6.983  0.2564  1.1184 -0.4995
   96SAPS   H2S 9503   2.014   1.508   6.839 -2.9089 -1.2744  2.7652
   96SAPS    C3 9504   2.466   1.742   6.759  0.4130  0.1538 -0.4086
   96SAPS    HX 9505   2.414   1.830   6.715  0.5637  0.8836  0.8439
   96SAPS    HY 9506   2.568   1.733   6.715  0.9340  1.0083  0.5802
   96SAPS   O31 9507   2.480   1.769   6.899 -0.0489  0.2055 -0.3683
   96SAPS   C31 9508   2.508   1.901   6.932  0.6552  0.2183 -0.7167
   96SAPS   O32 9509   2.516   1.997   6.857  0.4432 -0.7543  0.3859
   96SAPS   C32 9510   2.519   1.903   7.091 -0.9674 -0.2161 -0.1877
   96SAPS   H2X 9511   2.604   1.838   7.119 -0.0290  1.4606  1.0588
   96SAPS   H2Y 9512   2.419   1.864   7.120 -0.4178 -2.8014 -1.4967
   96SAPS   C23 9513   2.057   1.338   6.963  0.3774  0.4907 -0.1427
   96SAPS   H3R 9514   2.127   1.291   7.036  0.4390 -1.7054 -1.5326
   96SAPS   H3S 9515   2.058   1.260   6.884  0.9230  1.1036 -0.7510
   96SAPS   C24 9516   1.913   1.346   7.020  0.2539  0.4767  0.3302
   96SAPS   H4R 9517   1.877   1.243   7.037 -0.5685  0.8338  0.8176
   96SAPS   H4S 9518   1.852   1.391   6.939  0.6189 -1.5162 -1.1082
   96SAPS   C25 9519   1.888   1.438   7.136 -0.3640 -0.8703 -0.3036
   96SAPS   H5R 9520   1.854   1.540   7.115 -1.6336 -1.0247  0.8482
   96SAPS   C26 9521   1.901   1.400   7.264  0.2169 -0.2689 -0.4581
   96SAPS   H6R 9522   1.879   1.476   7.340  1.2426 -0.2743 -0.1415
   96SAPS   C27 9523   1.943   1.271   7.318 -0.2506 -0.4724  0.2366
   96SAPS   H7R 9524   1.939   1.190   7.242  1.0869  0.5645 -0.9951
   96SAPS   H7S 9525   1.873   1.246   7.401  0.6820  1.0794  1.5502
   96SAPS   C28 9526   2.080   1.300   7.366  0.6762  0.0699 -0.6898
   96SAPS   H8R 9527   2.155   1.316   7.287  1.4678  1.5123  0.3052
   96SAPS   C29 9528   2.128   1.301   7.495  0.4736  0.0291 -0.9572
   96SAPS   H9R 9529   2.236   1.316   7.509 -0.1088  2.4900  1.8293
   96SAPS  C210 9530   2.063   1.275   7.628 -0.0709  0.8984  0.4838
   96SAPS  H10R 9531   2.137   1.258   7.709  1.4512 -1.2556 -1.2455
   96SAPS  H10S 9532   1.999   1.185   7.613  2.2134 -0.5773 -1.1323
   96SAPS  C211 9533   1.976   1.393   7.657  0.4958  0.2848  0.4656
   96SAPS  H11R 9534   1.953   1.463   7.576  1.5768 -1.0821 -1.0920
   96SAPS  C212 9535   1.925   1.418   7.776 -0.4911 -0.3786  0.0531
   96SAPS  H12R 9536   1.848   1.495   7.789 -2.3982 -1.8555 -1.8078
   96SAPS  C213 9537   1.958   1.333   7.894  0.5956  0.5739 -0.5791
   96SAPS  H13R 9538   1.987   1.227   7.877 -0.3686  0.3459 -0.8651
   96SAPS  H13S 9539   1.873   1.334   7.966 -1.5357  0.9963 -2.9510
   96SAPS  C214 9540   2.075   1.391   7.968 -0.0886  0.0434  0.1490
   96SAPS  H14R 9541   2.166   1.400   7.907 -0.5324  0.9001 -0.3986
   96SAPS  C215 9542   2.064   1.464   8.081 -1.0971 -0.6104 -0.0002
   96SAPS  H15R 9543   2.150   1.519   8.123  1.0178  0.6247 -5.1467
   96SAPS  C216 9544   1.943   1.481   8.160  0.4180  0.4450 -0.3459
   96SAPS  H16R 9545   1.913   1.379   8.189  1.2916  0.2076 -0.2577
   96SAPS  H16S 9546   1.856   1.531   8.113 -0.9234  0.1030  1.6609
   96SAPS  C217 9547   1.968   1.543   8.304  0.0469 -0.4112 -0.0759
   96SAPS  H17R 9548   2.054   1.489   8.350  2.0671  0.9849 -2.0199
   96SAPS  H17S 9549   1.876   1.530   8.366  0.2162  0.6332  0.4212
   96SAPS  C218 9550   2.011   1.694   8.300 -0.4421 -0.4244 -0.2694
   96SAPS  H18R 9551   1.927   1.741   8.244  1.5061  1.0157 -2.1298
   96SAPS  H18S 9552   2.102   1.705   8.238 -0.2765 -0.6269 -0.0632
   96SAPS  C219 9553   2.035   1.753   8.444 -0.1312 -0.0972 -0.4646
   96SAPS  H19R 9554   2.099   1.842   8.422 -0.7420 -0.0808 -2.4020
   96SAPS  H19S 9555   2.094   1.683   8.507  2.1948  1.7430 -0.4247
   96SAPS  C220 9556   1.904   1.778   8.522 -0.3465  0.5938 -0.2233
   96SAPS  H20R 9557   1.820   1.705   8.519 -1.3119  1.6839 -2.2907
   96SAPS  H20S 9558   1.848   1.872   8.501  0.3590  1.0486 -0.1063
   96SAPS  H20T 9559   1.927   1.794   8.630 -0.0019 -0.1430 -0.1846
   96SAPS   C33 9560   2.547   2.048   7.143  0.1198  0.1776  0.7945
   96SAPS   H3X 9561   2.448   2.099   7.145 -0.1351 -0.2777  0.2713
   96SAPS   H3Y 9562   2.622   2.089   7.073  0.6494 -0.0921  1.1977
   96SAPS   C34 9563   2.595   2.050   7.288 -0.4246  0.3464 -0.0405
   96SAPS   H4X 9564   2.586   2.158   7.313  0.1101  1.2578 -3.2778
   96SAPS   H4Y 9565   2.696   2.004   7.287 -1.4112 -1.9437 -0.7661
   96SAPS   C35 9566   2.504   1.978   7.389  0.1590  0.7766 -0.1835
   96SAPS   H5X 9567   2.510   1.873   7.352  3.5167  0.6281  0.4375
   96SAPS   H5Y 9568   2.399   2.015   7.381 -0.1318  0.4512  1.7488
   96SAPS   C36 9569   2.560   1.969   7.531  0.5051  0.4864  0.0318
   96SAPS   H6X 9570   2.650   1.905   7.533 -0.4935 -1.0312 -0.9998
   96SAPS   H6Y 9571   2.489   1.915   7.597 -0.8738  2.3812  0.1806
   96SAPS   C37 9572   2.582   2.104   7.599 -0.0834  0.6037  0.1791
   96SAPS   H7X 9573   2.491   2.142   7.651  1.5558  2.0961  2.0920
   96SAPS   H7Y 9574   2.610   2.191   7.537  2.1313 -0.3371 -0.2363
   96SAPS   C38 9575   2.675   2.091   7.719 -0.7477  0.2721  0.2680
   96SAPS   H8X 9576   2.712   2.193   7.744  2.0371 -0.7709  0.8659
   96SAPS   H8Y 9577   2.772   2.041   7.698  0.2358  3.1564 -2.8984
   96SAPS   C39 9578   2.614   2.033   7.847 -0.3244 -0.0825 -0.2640
   96SAPS   H9X 9579   2.569   1.936   7.819 -0.2477  0.5548 -2.8111
   96SAPS   H9Y 9580   2.541   2.108   7.887  0.1808  0.4709 -0.3642
   96SAPS  C310 9581   2.724   2.023   7.956 -0.0400  0.0682 -0.0930
   96SAPS  H10X 9582   2.759   2.121   7.996  0.6739 -0.4202  0.5050
   96SAPS  H10Y 9583   2.819   1.991   7.908  1.2861  3.1949  0.1455
   96SAPS  C311 9584   2.675   1.939   8.074  0.4291 -0.2971 -0.0336
   96SAPS  H11X 9585   2.650   1.839   8.033 -1.5505 -0.3035  1.0277
   96SAPS  H11Y 9586   2.575   1.974   8.109  0.8644 -0.4239  1.3768
   96SAPS  C312 9587   2.765   1.952   8.201  0.2704 -0.0337 -0.0390
   96SAPS  H12X 9588   2.873   1.931   8.189  0.9505  0.2318  4.1750
   96SAPS  H12Y 9589   2.725   1.877   8.272  0.4134  0.2386  0.3301
   96SAPS  C313 9590   2.755   2.092   8.267  0.0729  0.2616  1.2310
   96SAPS  H13X 9591   2.652   2.135   8.267  1.0575  2.8504 -0.2208
   96SAPS  H13Y 9592   2.812   2.172   8.215 -0.3581  1.5093  2.6107
   96SAPS  C314 9593   2.778   2.087   8.415 -0.3879  0.7499  0.4538
   96SAPS  H14X 9594   2.694   2.025   8.453  1.6242  0.4232  4.9341
   96SAPS  H14Y 9595   2.752   2.191   8.444  1.1753  1.5929 -0.9927
   96SAPS  C315 9596   2.911   2.053   8.474  0.4089 -0.3223  0.7846
   96SAPS  H15X 9597   2.929   1.947   8.448 -2.7524 -0.8798  0.5125
   96SAPS  H15Y 9598   2.900   2.056   8.585 -2.2187  0.8995  0.5719
   96SAPS  C316 9599   3.031   2.137   8.420  0.4078 -0.4965 -0.2173
   96SAPS  H16X 9600   2.998   2.240   8.446 -1.4792 -1.3797  1.1678
   96SAPS  H16Y 9601   3.049   2.127   8.311  0.1564  1.0529 -0.4249
   96SAPS  C317 9602   3.153   2.120   8.500 -0.0057  0.8153  0.1089
   96SAPS  H17X 9603   3.185   2.018   8.471  1.1227  1.3088 -0.4525
   96SAPS  H17Y 9604   3.124   2.126   8.607 -0.8884  1.0972 -0.1390
   96SAPS  C318 9605   3.263   2.219   8.460  0.1435 -0.0211  0.2495
   96SAPS  H18X 9606   3.310   2.188   8.365 -2.4910  1.1184 -1.5373
   96SAPS  H18Y 9607   3.340   2.219   8.540  0.1712 -0.4436  0.2238
   96SAPS  H18Z 9608   3.206   2.315   8.455  0.5501  0.2443  0.6065
   97SAPS     N 9609   2.998   0.862   6.539  0.0701  0.3513 -0.7819
   97SAPS   HN1 9610   3.066   0.790   6.508  1.6053  0.5399  1.8994
   97SAPS   HN2 9611   3.055   0.943   6.569 -0.7875 -0.3473  3.2654
   97SAPS   HN3 9612   2.961   0.815   6.624  3.1942 -0.2517  0.3588
   97SAPS   C12 9613   2.894   0.897   6.436 -0.1231 -0.2700  0.7418
   97SAPS  H12A 9614   2.833   0.979   6.471  1.3486  1.7487 -1.1402
   97SAPS   C13 9615   2.942   0.932   6.286 -0.4747 -0.6582  0.1817
   97SAPS  O13A 9616   3.066   0.972   6.274 -0.0268  0.5713  0.1284
   97SAPS  O13B 9617   2.856   0.984   6.214 -0.1850 -0.1668  0.0558
   97SAPS   C11 9618   2.801   0.770   6.413 -0.4985 -0.3814 -0.2791
   97SAPS  H11A 9619   2.862   0.683   6.380  1.5826  1.1903 -0.8338
   97SAPS  H11B 9620   2.740   0.799   6.325  1.9738  2.6139 -1.1737
   97SAPS     P 9621   2.561   0.717   6.508 -0.0099  0.1320 -0.0584
   97SAPS   O13 9622   2.477   0.826   6.563 -0.1406  0.3329  0.0673
   97SAPS   O14 9623   2.534   0.659   6.372 -1.1489 -0.0401  0.4661
   97SAPS   O12 9624   2.718   0.743   6.528  0.7599  0.5750 -0.3023
   97SAPS   O11 9625   2.538   0.600   6.609  0.5240 -0.6407 -0.1415
   97SAPS    C1 9626   2.627   0.584   6.719  0.4966  0.9410 -0.1924
   97SAPS    HA 9627   2.711   0.519   6.688 -0.4920  0.6042 -2.3085
   97SAPS    HB 9628   2.674   0.675   6.763  1.3819  0.2862  0.2585
   97SAPS    C2 9629   2.558   0.523   6.844  0.3036 -0.1468 -0.4108
   97SAPS    HS 9630   2.637   0.502   6.919  0.6868  1.4215 -0.3411
   97SAPS   O21 9631   2.485   0.408   6.808 -0.6252 -0.3394  0.1090
   97SAPS   C21 9632   2.455   0.322   6.913  0.0058 -0.1663  0.1563
   97SAPS   O22 9633   2.510   0.330   7.020  0.0484  0.1038  1.0345
   97SAPS   C22 9634   2.353   0.211   6.864 -0.2167  0.1862 -0.5731
   97SAPS   H2R 9635   2.285   0.265   6.795 -1.2546 -1.2484 -0.7299
   97SAPS   H2S 9636   2.412   0.136   6.807 -1.6315 -2.5462  1.3175
   97SAPS    C3 9637   2.453   0.629   6.896 -0.4104 -0.2100  0.0127
   97SAPS    HX 9638   2.370   0.628   6.821 -2.0035  0.6321  1.6826
   97SAPS    HY 9639   2.483   0.735   6.886 -1.7061  0.0681 -1.3352
   97SAPS   O31 9640   2.404   0.600   7.028 -0.6959  0.1072  0.2940
   97SAPS   C31 9641   2.485   0.632   7.128  0.1368 -0.1342  0.4996
   97SAPS   O32 9642   2.585   0.702   7.118 -0.1993  0.1317 -0.0517
   97SAPS   C32 9643   2.432   0.576   7.261 -0.0885  0.3278  0.4124
   97SAPS   H2X 9644   2.455   0.468   7.263  0.9113  0.5426  1.9241
   97SAPS   H2Y 9645   2.322   0.586   7.248  0.0854  0.5859 -1.0082
   97SAPS   C23 9646   2.269   0.138   6.971  0.6275  0.2771  0.6140
   97SAPS   H3R 9647   2.339   0.098   7.047 -1.5428 -0.4385  2.3644
   97SAPS   H3S 9648   2.225   0.047   6.924  2.5324 -0.6683  0.5493
   97SAPS   C24 9649   2.161   0.226   7.031 -0.0906  0.1733 -0.2555
   97SAPS   H4R 9650   2.105   0.263   6.943  1.5569  0.7286 -1.1038
   97SAPS   H4S 9651   2.201   0.323   7.066 -1.2251  0.5244  0.1392
   97SAPS   C25 9652   2.074   0.151   7.129  0.5302 -0.5899  0.1671
   97SAPS   H5R 9653   1.990   0.108   7.072  0.6275  0.2253 -0.6085
   97SAPS   C26 9654   2.090   0.134   7.263  0.4667  0.0540 -0.8353
   97SAPS   H6R 9655   2.009   0.088   7.321 -0.3986  2.4189 -0.0373
   97SAPS   C27 9656   2.196   0.185   7.354  0.7485 -0.3251 -0.1883
   97SAPS   H7R 9657   2.156   0.276   7.405 -1.4195 -0.2828 -1.8097
   97SAPS   H7S 9658   2.280   0.224   7.293  1.1969 -0.9830 -0.0092
   97SAPS   C28 9659   2.252   0.081   7.446 -0.6769 -0.5675  0.4219
   97SAPS   H8R 9660   2.314   0.007   7.392 -0.5028  0.2666 -0.5450
   97SAPS   C29 9661   2.246   0.073   7.579  0.5150  0.2038  0.8973
   97SAPS   H9R 9662   2.289  -0.015   7.628  0.0144  0.0771  1.1166
   97SAPS  C210 9663   2.175   0.165   7.667 -0.0096  0.1946 -0.5702
   97SAPS  H10R 9664   2.123   0.250   7.617  1.0070  0.4110 -1.2864
   97SAPS  H10S 9665   2.258   0.214   7.722  1.9674 -0.9305 -2.4012
   97SAPS  C211 9666   2.070   0.101   7.757 -0.2269 -0.8940  0.8281
   97SAPS  H11R 9667   2.001   0.031   7.707  0.6603 -1.5668  0.5259
   97SAPS  C212 9668   2.062   0.133   7.890 -0.1888  0.3264  0.3130
   97SAPS  H12R 9669   1.984   0.078   7.945 -2.6922  1.6468 -1.7098
   97SAPS  C213 9670   2.153   0.233   7.968 -0.2565  1.0555  0.6379
   97SAPS  H13R 9671   2.256   0.235   7.925 -0.3326 -1.0947  0.2547
   97SAPS  H13S 9672   2.165   0.170   8.059 -0.7508 -2.0870 -1.3571
   97SAPS  C214 9673   2.081   0.370   7.976 -0.2402 -0.0197  0.3019
   97SAPS  H14R 9674   2.037   0.406   7.882 -1.6556  0.7524  1.2301
   97SAPS  C215 9675   2.078   0.458   8.078 -0.0959 -0.5428 -0.2516
   97SAPS  H15R 9676   2.035   0.557   8.059  1.6322 -0.3125 -3.8741
   97SAPS  C216 9677   2.140   0.436   8.214 -0.4283  0.0803 -0.1253
   97SAPS  H16R 9678   2.233   0.496   8.217  1.1267 -2.2153  0.0223
   97SAPS  H16S 9679   2.163   0.328   8.228 -4.0520 -0.7655  0.3116
   97SAPS  C217 9680   2.066   0.474   8.344 -0.0986  0.2661  0.4086
   97SAPS  H17R 9681   1.964   0.431   8.336 -0.1565  0.4470  0.1775
   97SAPS  H17S 9682   2.037   0.581   8.344 -0.9201  0.0780  2.0106
   97SAPS  C218 9683   2.134   0.429   8.480 -0.0089  0.5160  0.5927
   97SAPS  H18R 9684   2.218   0.502   8.491  0.9893  0.0828 -2.8841
   97SAPS  H18S 9685   2.182   0.330   8.464 -1.7193 -0.9399  3.5613
   97SAPS  C219 9686   2.046   0.413   8.601  0.6971 -0.1376 -0.8744
   97SAPS  H19R 9687   1.957   0.349   8.582 -0.4805  1.1227  0.2256
   97SAPS  H19S 9688   2.000   0.512   8.620 -2.7497 -1.5063 -1.3560
   97SAPS  C220 9689   2.122   0.354   8.723 -0.3017  0.3163  0.1257
   97SAPS  H20R 9690   2.059   0.364   8.814 -0.2287 -1.1299  0.3560
   97SAPS  H20S 9691   2.221   0.403   8.732 -1.0723  2.1126 -0.5834
   97SAPS  H20T 9692   2.146   0.247   8.707  1.3552  0.3389  2.0922
   97SAPS   C33 9693   2.494   0.647   7.387  0.6551 -0.8376 -0.6668
   97SAPS   H3X 9694   2.453   0.748   7.407  2.2649 -0.0605 -1.1120
   97SAPS   H3Y 9695   2.602   0.663   7.369  0.1852  2.5182 -1.1403
   97SAPS   C34 9696   2.484   0.554   7.507  0.6747 -0.1074 -0.5952
   97SAPS   H4X 9697   2.540   0.459   7.491 -0.5693 -1.6590  3.0735
   97SAPS   H4Y 9698   2.375   0.531   7.511  0.2221  1.8410 -0.5966
   97SAPS   C35 9699   2.527   0.625   7.635 -0.2184  0.1294  0.4132
   97SAPS   H5X 9700   2.470   0.720   7.643 -1.8696 -0.9288  2.4184
   97SAPS   H5Y 9701   2.637   0.636   7.634 -0.1893 -0.1635  0.4124
   97SAPS   C36 9702   2.510   0.535   7.760 -0.0436 -0.1313 -0.0936
   97SAPS   H6X 9703   2.575   0.448   7.736 -0.0858  0.1885 -1.4904
   97SAPS   H6Y 9704   2.409   0.489   7.767 -0.2760  0.2137 -1.0362
   97SAPS   C37 9705   2.537   0.616   7.890 -0.9525 -0.5657 -0.5145
   97SAPS   H7X 9706   2.638   0.659   7.874 -1.8117  2.0841  0.6585
   97SAPS   H7Y 9707   2.544   0.549   7.978  0.6555 -1.0859 -0.9983
   97SAPS   C38 9708   2.437   0.724   7.917 -0.4657  0.5673 -1.2516
   97SAPS   H8X 9709   2.339   0.676   7.895  0.3733 -1.7129 -0.3899
   97SAPS   H8Y 9710   2.465   0.816   7.863 -0.0570  3.1525  2.8964
   97SAPS   C39 9711   2.427   0.754   8.069  1.0525 -0.2664  0.4805
   97SAPS   H9X 9712   2.370   0.673   8.119 -0.4475  0.7916  0.5516
   97SAPS   H9Y 9713   2.366   0.847   8.069 -1.0959 -1.5416 -1.9004
   97SAPS  C310 9714   2.563   0.770   8.144  0.1587 -0.4733 -0.3133
   97SAPS  H10X 9715   2.633   0.841   8.096  1.1957 -1.7073 -0.6770
   97SAPS  H10Y 9716   2.612   0.671   8.140 -1.6429 -1.3879 -1.3196
   97SAPS  C311 9717   2.550   0.799   8.297 -0.0331  0.2792 -0.5815
   97SAPS  H11X 9718   2.511   0.901   8.316 -1.0680 -0.2116  0.0755
   97SAPS  H11Y 9719   2.645   0.797   8.355 -0.5538 -0.0856  0.2772
   97SAPS  C312 9720   2.455   0.703   8.374 -0.7589  0.3646  0.1660
   97SAPS  H12X 9721   2.463   0.600   8.334 -2.2124  0.7970 -1.3345
   97SAPS  H12Y 9722   2.348   0.720   8.348 -0.8618  1.0305  0.9811
   97SAPS  C313 9723   2.468   0.719   8.524 -0.3292  0.2052  0.3774
   97SAPS  H13X 9724   2.575   0.736   8.551 -0.9333  3.5505  1.0610
   97SAPS  H13Y 9725   2.444   0.618   8.564 -0.4909 -1.4746 -3.4898
   97SAPS  C314 9726   2.383   0.827   8.589  0.8365  0.0904  0.3144
   97SAPS  H14X 9727   2.285   0.828   8.538  2.7186  0.6667 -3.6696
   97SAPS  H14Y 9728   2.426   0.929   8.583  1.9663 -0.3106  1.2815
   97SAPS  C315 9729   2.382   0.815   8.744  0.1226 -0.0297  0.0253
   97SAPS  H15X 9730   2.487   0.830   8.776  1.5254 -0.9606 -3.5842
   97SAPS  H15Y 9731   2.340   0.716   8.771 -1.9904  0.3021 -1.7205
   97SAPS  C316 9732   2.302   0.923   8.818  0.0269 -0.6493 -0.5655
   97SAPS  H16X 9733   2.198   0.886   8.822  0.4859 -2.1838 -1.8834
   97SAPS  H16Y 9734   2.300   1.019   8.761 -0.3455  0.3294  1.0414
   97SAPS  C317 9735   2.341   0.972   8.961 -0.2645 -0.1845  0.2230
   97SAPS  H17X 9736   2.421   1.048   8.951  0.1973 -0.8197 -1.1456
   97SAPS  H17Y 9737   2.369   0.888   9.028  1.5410  1.6841  1.9466
   97SAPS  C318 9738   2.227   1.056   9.039 -0.2559  0.3988  0.2177
   97SAPS  H18X 9739   2.139   0.994   9.065  0.2354 -0.2516  0.3651
   97SAPS  H18Y 9740   2.187   1.135   8.971  1.5754 -0.3847 -1.9182
   97SAPS  H18Z 9741   2.263   1.112   9.128 -2.0827  1.7667  0.1431
   98SAPS     N 9742   0.898   6.588   6.295  0.1620  0.1500  0.1478
   98SAPS   HN1 9743   0.796   6.580   6.274  0.3592  1.9220 -1.8299
   98SAPS   HN2 9744   0.951   6.503   6.269 -1.4054 -0.2692 -1.9729
   98SAPS   HN3 9745   0.900   6.591   6.399  0.7258 -2.1584  0.2648
   98SAPS   C12 9746   0.962   6.700   6.214 -0.0618  0.0449  0.9076
   98SAPS  H12A 9747   1.068   6.693   6.234  0.8388 -0.0845 -3.1582
   98SAPS   C13 9748   0.954   6.679   6.059 -0.4744 -0.2905 -0.2524
   98SAPS  O13A 9749   0.923   6.566   6.010 -0.4070 -0.5582 -0.8693
   98SAPS  O13B 9750   0.995   6.772   5.982 -0.0187  0.3484  0.2861
   98SAPS   C11 9751   0.906   6.836   6.251  0.7375 -0.4090  0.1226
   98SAPS  H11A 9752   0.978   6.915   6.221  0.1509  0.5021  1.0451
   98SAPS  H11B 9753   0.892   6.830   6.361 -2.0773 -0.6824 -0.1940
   98SAPS     P 9754   0.653   6.922   6.242  0.3458 -0.4357 -0.4460
   98SAPS   O13 9755   0.681   7.063   6.275 -0.3131  0.2665  0.2178
   98SAPS   O14 9756   0.543   6.899   6.141 -0.5359  0.5314 -1.0028
   98SAPS   O12 9757   0.784   6.865   6.183 -0.0000 -0.0856  0.1267
   98SAPS   O11 9758   0.628   6.830   6.369  0.4972 -0.4743  0.3921
   98SAPS    C1 9759   0.521   6.846   6.456  0.1694  0.5321 -0.5188
   98SAPS    HA 9760   0.493   6.954   6.462  1.6558  0.8964  0.5324
   98SAPS    HB 9761   0.428   6.794   6.425 -0.5733  1.2201  0.5014
   98SAPS    C2 9762   0.554   6.797   6.596  0.3008 -0.1612 -0.5052
   98SAPS    HS 9763   0.481   6.821   6.676  2.2348 -1.1029  1.6446
   98SAPS   O21 9764   0.684   6.858   6.621 -0.6837 -0.0948 -0.2189
   98SAPS   C21 9765   0.691   6.947   6.720 -0.8048  0.0779 -0.1123
   98SAPS   O22 9766   0.598   7.003   6.771 -0.6597  0.0488 -0.3882
   98SAPS   C22 9767   0.835   6.962   6.771 -0.5406 -0.3840  0.3324
   98SAPS   H2R 9768   0.887   6.871   6.805 -0.6597  0.3220  2.5533
   98SAPS   H2S 9769   0.896   7.003   6.687  2.1398  0.0244  2.3716
   98SAPS    C3 9770   0.566   6.639   6.609 -0.7117  0.5490 -1.0614
   98SAPS    HX 9771   0.639   6.607   6.532 -2.6055 -1.6541 -2.0637
   98SAPS    HY 9772   0.469   6.594   6.579  0.0881 -2.7268  0.7191
   98SAPS   O31 9773   0.588   6.591   6.748 -0.0378  0.5798  0.6281
   98SAPS   C31 9774   0.714   6.588   6.785 -0.2805 -0.4565  0.6267
   98SAPS   O32 9775   0.808   6.604   6.709 -0.5967  0.4696 -0.4019
   98SAPS   C32 9776   0.723   6.553   6.927 -0.0519 -0.3181 -0.0620
   98SAPS   H2X 9777   0.822   6.505   6.942  0.6267  0.4044 -1.9348
   98SAPS   H2Y 9778   0.644   6.482   6.960  0.9181 -1.0417  0.7546
   98SAPS   C23 9779   0.862   7.072   6.879 -0.7257 -1.0452 -0.0350
   98SAPS   H3R 9780   0.829   7.033   6.978  3.7545 -0.6244  1.8717
   98SAPS   H3S 9781   0.802   7.164   6.863  1.3850  0.7411  1.7189
   98SAPS   C24 9782   1.013   7.111   6.882  0.5636  0.3357  0.1340
   98SAPS   H4R 9783   1.054   7.134   6.781  1.8864  0.7050  0.7429
   98SAPS   H4S 9784   1.071   7.021   6.911  1.4754  0.2135 -1.8802
   98SAPS   C25 9785   1.037   7.232   6.977 -0.7417 -0.5951  0.9759
   98SAPS   H5R 9786   1.010   7.332   6.939 -2.2663 -0.1020  3.1274
   98SAPS   C26 9787   1.077   7.232   7.110  0.1237  0.0179  0.0775
   98SAPS   H6R 9788   1.095   7.332   7.150 -0.8900  0.2930 -0.1163
   98SAPS   C27 9789   1.106   7.123   7.205  0.0213  0.2539 -0.5335
   98SAPS   H7R 9790   1.146   7.032   7.155  0.4437 -0.4908  1.0702
   98SAPS   H7S 9791   1.005   7.094   7.242 -0.3887  1.8035 -0.4007
   98SAPS   C28 9792   1.191   7.154   7.322 -0.6416 -0.2828  1.1241
   98SAPS   H8R 9793   1.296   7.128   7.303 -1.1292 -0.6801 -1.2979
   98SAPS   C29 9794   1.158   7.208   7.442  0.1699 -0.7228 -0.1535
   98SAPS   H9R 9795   1.224   7.250   7.519 -0.2467  2.0616 -1.1845
   98SAPS  C210 9796   1.026   7.245   7.495 -0.1314  0.1924 -0.3297
   98SAPS  H10R 9797   0.950   7.261   7.415 -0.0898 -0.0082 -0.4102
   98SAPS  H10S 9798   1.044   7.347   7.533 -0.7508  0.7704 -1.5416
   98SAPS  C211 9799   0.980   7.162   7.612 -0.2171  0.2478  1.0178
   98SAPS  H11R 9800   0.940   7.067   7.573 -1.3669  0.7708  0.8877
   98SAPS  C212 9801   0.997   7.176   7.747  0.6785  0.0204 -0.4264
   98SAPS  H12R 9802   0.935   7.111   7.810  0.1019  1.8607  0.9662
   98SAPS  C213 9803   1.072   7.291   7.818  0.5427 -0.1179 -0.1299
   98SAPS  H13R 9804   0.992   7.365   7.840 -0.9821 -0.5122 -3.7100
   98SAPS  H13S 9805   1.149   7.352   7.766  1.0826  0.1244  0.9183
   98SAPS  C214 9806   1.129   7.236   7.944  0.2330 -0.0092  0.3876
   98SAPS  H14R 9807   1.189   7.147   7.919 -2.0143 -1.0718 -1.6529
   98SAPS  C215 9808   1.140   7.281   8.070  0.2175 -0.2979 -0.8861
   98SAPS  H15R 9809   1.194   7.212   8.136 -0.1050 -0.1373 -0.4545
   98SAPS  C216 9810   1.082   7.409   8.122 -0.4155 -0.4147 -0.5536
   98SAPS  H16R 9811   1.061   7.484   8.044  1.3569  1.0724  0.3314
   98SAPS  H16S 9812   1.145   7.458   8.199 -2.9960 -1.4658  2.4468
   98SAPS  C217 9813   0.952   7.382   8.202 -0.3253  0.2552 -0.0275
   98SAPS  H17R 9814   0.894   7.308   8.143  0.6004 -2.1226  1.8773
   98SAPS  H17S 9815   0.891   7.474   8.214  0.6743  1.2876 -2.3306
   98SAPS  C218 9816   0.987   7.321   8.337  0.3445  0.3695 -0.3922
   98SAPS  H18R 9817   1.014   7.394   8.416  2.8492  1.5506 -2.2192
   98SAPS  H18S 9818   1.075   7.255   8.322  0.2743  0.4242 -1.0741
   98SAPS  C219 9819   0.872   7.228   8.388 -0.1145 -0.3528  0.3198
   98SAPS  H19R 9820   0.825   7.163   8.311 -0.3303 -1.4300  1.3361
   98SAPS  H19S 9821   0.790   7.294   8.422  1.4846  1.1664  1.3854
   98SAPS  C220 9822   0.925   7.131   8.499  0.0372 -0.0119 -0.7152
   98SAPS  H20R 9823   0.849   7.065   8.545  0.6733 -0.4458 -0.2721
   98SAPS  H20S 9824   0.974   7.202   8.570  0.7139 -0.3959 -0.7875
   98SAPS  H20T 9825   1.004   7.067   8.453  1.0530  0.5048  0.2435
   98SAPS   C33 9826   0.709   6.688   7.010 -0.6484 -0.5456 -0.4030
   98SAPS   H3X 9827   0.602   6.715   7.020 -0.5495 -0.5412  0.7685
   98SAPS   H3Y 9828   0.762   6.770   6.956 -0.6030 -1.7689 -2.3126
   98SAPS   C34 9829   0.749   6.671   7.155 -0.1932 -0.1553 -0.8453
   98SAPS   H4X 9830   0.776   6.769   7.201  0.7566 -0.3831 -0.8972
   98SAPS   H4Y 9831   0.844   6.615   7.165 -1.0552 -1.8594 -1.7791
   98SAPS   C35 9832   0.640   6.593   7.235 -0.5639  0.6701 -0.6055
   98SAPS   H5X 9833   0.617   6.497   7.184 -0.6451  0.9379 -1.0842
   98SAPS   H5Y 9834   0.548   6.654   7.242  0.1633  1.5997  2.4509
   98SAPS   C36 9835   0.701   6.561   7.376  0.0631  0.6614  0.1623
   98SAPS   H6X 9836   0.719   6.660   7.424  2.5160  0.2185  0.2776
   98SAPS   H6Y 9837   0.800   6.509   7.376 -0.6684 -0.7840 -0.6311
   98SAPS   C37 9838   0.607   6.486   7.471  0.9023  0.0668  0.1613
   98SAPS   H7X 9839   0.567   6.398   7.415 -1.4432  0.3887  1.1851
   98SAPS   H7Y 9840   0.519   6.551   7.488  1.4135  0.7274  0.3034
   98SAPS   C38 9841   0.670   6.448   7.606  0.1484  0.6156  0.8331
   98SAPS   H8X 9842   0.713   6.541   7.648 -3.1276  2.7157 -0.0646
   98SAPS   H8Y 9843   0.748   6.371   7.587 -0.8445 -0.4630  0.9792
   98SAPS   C39 9844   0.581   6.385   7.715  0.4876  0.1108  0.5763
   98SAPS   H9X 9845   0.596   6.276   7.724 -0.7199 -0.4371 -2.6487
   98SAPS   H9Y 9846   0.475   6.407   7.691  0.3789 -1.7349 -0.7783
   98SAPS  C310 9847   0.613   6.441   7.852 -0.6867 -0.1190 -0.5389
   98SAPS  H10X 9848   0.617   6.552   7.862 -0.0018 -0.0190 -1.7576
   98SAPS  H10Y 9849   0.709   6.402   7.891  0.9184  3.2125 -0.8164
   98SAPS  C311 9850   0.510   6.399   7.960  0.1226 -0.4087  0.1138
   98SAPS  H11X 9851   0.504   6.288   7.972 -0.9377 -0.4327 -0.4397
   98SAPS  H11Y 9852   0.408   6.423   7.923  0.7848  0.2434 -1.3282
   98SAPS  C312 9853   0.531   6.466   8.096 -0.4043  0.3498 -0.1319
   98SAPS  H12X 9854   0.528   6.574   8.072 -0.5400  0.8930  2.1054
   98SAPS  H12Y 9855   0.636   6.444   8.126 -0.0961  1.2391 -0.5112
   98SAPS  C313 9856   0.424   6.432   8.194  0.1311  0.1745 -0.6143
   98SAPS  H13X 9857   0.477   6.390   8.282 -0.2773  0.4623 -0.2253
   98SAPS  H13Y 9858   0.345   6.367   8.152 -0.7118  1.0708 -0.4692
   98SAPS  C314 9859   0.349   6.560   8.245 -0.3678 -0.1983  0.3062
   98SAPS  H14X 9860   0.273   6.585   8.168 -2.3403 -1.5038  1.7307
   98SAPS  H14Y 9861   0.419   6.646   8.244 -0.5567 -0.0362 -1.0645
   98SAPS  C315 9862   0.278   6.534   8.379  0.6977 -0.9312 -0.8155
   98SAPS  H15X 9863   0.223   6.630   8.390  0.4636 -1.0303 -1.1197
   98SAPS  H15Y 9864   0.354   6.531   8.460  0.5958  1.7408 -0.5261
   98SAPS  C316 9865   0.187   6.406   8.376  0.1007 -0.7170 -0.1465
   98SAPS  H16X 9866   0.258   6.324   8.402 -0.4931 -0.8382  1.1613
   98SAPS  H16Y 9867   0.153   6.390   8.271 -0.5578 -1.0179  0.1070
   98SAPS  C317 9868   0.062   6.402   8.465  0.3694  0.1523 -0.5643
   98SAPS  H17X 9869  -0.005   6.487   8.442  2.2958  1.6816 -0.8558
   98SAPS  H17Y 9870   0.099   6.424   8.568 -0.3233 -0.5440 -0.1584
   98SAPS  C318 9871  -0.019   6.269   8.481 -0.4117 -0.4162 -0.5046
   98SAPS  H18X 9872  -0.059   6.242   8.381 -1.9875  1.1724 -0.3497
   98SAPS  H18Y 9873  -0.098   6.297   8.554  1.9051 -1.6081  2.6468
   98SAPS  H18Z 9874   0.038   6.189   8.532  0.8587  0.4257 -0.5557
   99SAPS     N 9875   0.928   3.511   6.348  0.3169  0.0985  0.7156
   99SAPS   HN1 9876   0.941   3.550   6.444 -0.0477 -1.8855  1.6238
   99SAPS   HN2 9877   0.854   3.569   6.303  2.1787  0.9816 -1.3896
   99SAPS   HN3 9878   0.892   3.414   6.360 -1.1663  0.5054 -0.1777
   99SAPS   C12 9879   1.054   3.507   6.268  0.8254 -0.5609 -0.7764
   99SAPS  H12A 9880   1.122   3.441   6.321  1.0279  1.9732  2.4880
   99SAPS   C13 9881   1.023   3.469   6.121  0.2620 -0.1490 -0.5741
   99SAPS  O13A 9882   0.926   3.391   6.103 -0.4288  0.2287 -0.0668
   99SAPS  O13B 9883   1.122   3.472   6.044  0.6478  0.0812  0.2414
   99SAPS   C11 9884   1.116   3.653   6.266  0.4254  0.0239  0.3755
   99SAPS  H11A 9885   1.059   3.721   6.199 -1.3152 -0.7576  1.0224
   99SAPS  H11B 9886   1.214   3.635   6.217 -0.0426  1.3262 -1.1445
   99SAPS     P 9887   1.229   3.840   6.420 -0.2793  0.5705 -0.1114
   99SAPS   O13 9888   1.366   3.785   6.412 -1.2838  0.4329 -0.2230
   99SAPS   O14 9889   1.184   3.952   6.330 -0.4362 -0.4984 -0.5409
   99SAPS   O12 9890   1.127   3.717   6.391 -0.3188 -0.2682 -0.1372
   99SAPS   O11 9891   1.195   3.878   6.566 -0.8814 -0.4291  0.3331
   99SAPS    C1 9892   1.251   3.993   6.618  0.4408 -0.4768 -0.3466
   99SAPS    HA 9893   1.339   4.029   6.560  1.1270 -1.6778 -0.0838
   99SAPS    HB 9894   1.182   4.080   6.627  0.0569 -0.6757 -1.3456
   99SAPS    C2 9895   1.305   3.968   6.765  0.1154 -0.0551  0.5396
   99SAPS    HS 9896   1.328   4.072   6.798 -2.1993  0.1839  1.6554
   99SAPS   O21 9897   1.411   3.872   6.770  0.4456  0.2537  0.5537
   99SAPS   C21 9898   1.512   3.893   6.853 -0.0718  0.0067 -0.3967
   99SAPS   O22 9899   1.523   3.993   6.927 -0.2429  0.0024 -0.2250
   99SAPS   C22 9900   1.615   3.781   6.844 -0.0877  0.8232 -0.2955
   99SAPS   H2R 9901   1.621   3.740   6.741  1.9418  0.5025 -0.0863
   99SAPS   H2S 9902   1.707   3.837   6.871 -1.1380  0.7160  4.1594
   99SAPS    C3 9903   1.179   3.927   6.852 -0.0334 -1.1669 -0.1123
   99SAPS    HX 9904   1.145   3.828   6.815  2.4857 -1.6691 -1.2962
   99SAPS    HY 9905   1.095   4.000   6.843  2.3104  1.6647 -0.4272
   99SAPS   O31 9906   1.213   3.917   6.984 -0.5680  0.5387  0.0635
   99SAPS   C31 9907   1.231   4.025   7.065  0.4958 -0.0936 -0.1565
   99SAPS   O32 9908   1.206   4.139   7.028  0.3786 -0.4193 -0.1493
   99SAPS   C32 9909   1.275   3.976   7.197 -0.6832 -0.1286 -0.6477
   99SAPS   H2X 9910   1.361   3.908   7.178 -1.3119 -1.3755  0.7211
   99SAPS   H2Y 9911   1.189   3.915   7.233 -3.1835  3.6305  0.3238
   99SAPS   C23 9912   1.601   3.679   6.957 -0.5077  0.2879  0.3889
   99SAPS   H3R 9913   1.551   3.588   6.919  1.3547 -1.1890  1.3124
   99SAPS   H3S 9914   1.539   3.723   7.039 -2.7181 -0.8955 -0.5488
   99SAPS   C24 9915   1.735   3.640   7.021 -0.0971  0.6910  0.6422
   99SAPS   H4R 9916   1.801   3.729   7.032  0.7606 -0.0283  1.5287
   99SAPS   H4S 9917   1.781   3.578   6.941  1.5586  2.3061  0.2774
   99SAPS   C25 9918   1.715   3.578   7.159 -0.9181  1.1508  0.6568
   99SAPS   H5R 9919   1.682   3.473   7.170 -1.7191  1.2165 -0.7696
   99SAPS   C26 9920   1.751   3.631   7.277  0.0448 -0.1173  0.0691
   99SAPS   H6R 9921   1.756   3.578   7.373 -1.2253  0.3163  0.3916
   99SAPS   C27 9922   1.825   3.768   7.280  0.0934 -0.5664 -0.4928
   99SAPS   H7R 9923   1.910   3.779   7.208 -1.3729  1.8328 -1.9945
   99SAPS   H7S 9924   1.879   3.780   7.376 -0.9899 -1.4369  0.2327
   99SAPS   C28 9925   1.751   3.894   7.246 -0.7992  0.2904 -0.1355
   99SAPS   H8R 9926   1.666   3.873   7.180 -1.2228  3.8363 -0.9181
   99SAPS   C29 9927   1.786   4.022   7.268  0.8637  0.2266  0.2947
   99SAPS   H9R 9928   1.729   4.109   7.233  1.6188  1.3594  1.7657
   99SAPS  C210 9929   1.899   4.062   7.351 -0.7293 -0.0553 -0.0441
   99SAPS  H10R 9930   1.979   4.107   7.289  2.3742 -1.5613  2.5426
   99SAPS  H10S 9931   1.952   3.978   7.400  1.4717  0.3668 -1.5733
   99SAPS  C211 9932   1.850   4.161   7.460  0.5601 -0.4235 -0.6232
   99SAPS  H11R 9933   1.821   4.261   7.426  0.6186 -0.3031 -0.3181
   99SAPS  C212 9934   1.849   4.130   7.593 -0.0841 -0.0344 -0.0579
   99SAPS  H12R 9935   1.809   4.211   7.656 -1.0464  0.5955 -1.4266
   99SAPS  C213 9936   1.891   4.007   7.667 -0.0832  0.8301  0.1053
   99SAPS  H13R 9937   1.914   4.034   7.772 -0.6110 -0.0180  0.4494
   99SAPS  H13S 9938   1.983   3.962   7.625 -0.4057  0.9262 -0.7199
   99SAPS  C214 9939   1.772   3.915   7.672 -0.2714  0.4669  0.0052
   99SAPS  H14R 9940   1.752   3.861   7.578 -1.0478  0.7468 -0.0006
   99SAPS  C215 9941   1.704   3.876   7.780  0.6001 -0.1205 -0.3811
   99SAPS  H15R 9942   1.616   3.811   7.770  0.2789  0.0133  1.2726
   99SAPS  C216 9943   1.727   3.914   7.927  0.3603 -0.1952 -0.5202
   99SAPS  H16R 9944   1.835   3.931   7.945  0.6631 -2.5740  0.1575
   99SAPS  H16S 9945   1.697   3.823   7.982 -2.7795  0.1371 -1.4365
   99SAPS  C217 9946   1.649   4.027   7.994  0.1474 -0.3370 -0.2752
   99SAPS  H17R 9947   1.657   4.034   8.104 -1.6313  0.5678 -0.1564
   99SAPS  H17S 9948   1.541   4.022   7.969  0.5828 -1.7322 -2.1012
   99SAPS  C218 9949   1.690   4.167   7.933 -0.1128  0.7780 -0.2029
   99SAPS  H18R 9950   1.659   4.171   7.826 -0.5462  1.6180 -0.0586
   99SAPS  H18S 9951   1.799   4.182   7.946 -0.0932  1.1754 -0.7652
   99SAPS  C219 9952   1.622   4.287   8.002 -0.3472 -0.6742  0.0606
   99SAPS  H19R 9953   1.647   4.381   7.949 -2.2435 -0.5065 -0.6016
   99SAPS  H19S 9954   1.661   4.288   8.106 -1.1890 -1.2243  0.3924
   99SAPS  C220 9955   1.467   4.277   8.008  0.4199 -0.4195  0.2756
   99SAPS  H20R 9956   1.417   4.287   7.909 -4.2762  0.5848  2.4581
   99SAPS  H20S 9957   1.435   4.370   8.060  0.2120  1.2177 -2.5187
   99SAPS  H20T 9958   1.431   4.186   8.059  0.0111  0.1269  0.9760
   99SAPS   C33 9959   1.316   4.093   7.296 -0.1918 -0.2029  0.2544
   99SAPS   H3X 9960   1.339   4.030   7.383  0.9521 -0.8496 -0.4974
   99SAPS   H3Y 9961   1.229   4.162   7.310  0.3932  0.6620 -0.2437
   99SAPS   C34 9962   1.442   4.172   7.252 -0.0129 -0.5172 -0.4111
   99SAPS   H4X 9963   1.422   4.230   7.160  0.0118 -2.0388 -1.4102
   99SAPS   H4Y 9964   1.515   4.095   7.220  1.0536 -0.4816  1.7800
   99SAPS   C35 9965   1.507   4.267   7.349  0.3746 -0.8088  0.0789
   99SAPS   H5X 9966   1.593   4.322   7.305  0.5789 -0.3308  1.0457
   99SAPS   H5Y 9967   1.554   4.212   7.434 -0.3270  0.4525  1.3276
   99SAPS   C36 9968   1.403   4.361   7.427 -0.3349  0.8867 -0.0400
   99SAPS   H6X 9969   1.344   4.289   7.488  0.0967 -0.2866 -0.9554
   99SAPS   H6Y 9970   1.340   4.426   7.363 -1.9259 -1.2645 -0.7603
   99SAPS   C37 9971   1.478   4.440   7.535 -0.3056 -0.4766  1.0816
   99SAPS   H7X 9972   1.538   4.510   7.473 -0.7467 -0.6194  0.4851
   99SAPS   H7Y 9973   1.552   4.376   7.588 -0.6037 -0.5288  1.4368
   99SAPS   C38 9974   1.391   4.517   7.631  0.0007 -0.5733  0.1386
   99SAPS   H8X 9975   1.356   4.446   7.709 -1.0654 -1.8669 -1.4303
   99SAPS   H8Y 9976   1.311   4.561   7.568 -1.7642 -3.2559  0.3538
   99SAPS   C39 9977   1.476   4.629   7.698  0.0790  0.1864 -1.0760
   99SAPS   H9X 9978   1.519   4.688   7.615  2.2311 -0.0807 -0.2142
   99SAPS   H9Y 9979   1.563   4.587   7.752 -0.6250  0.5572  0.4139
   99SAPS  C310 9980   1.396   4.709   7.807 -0.5306 -0.2576  0.1807
   99SAPS  H10X 9981   1.326   4.775   7.752  1.6339  1.0858 -1.1113
   99SAPS  H10Y 9982   1.465   4.781   7.855  1.2160 -1.6766 -0.0745
   99SAPS  C311 9983   1.333   4.629   7.923 -0.0683  0.3674  0.0809
   99SAPS  H11X 9984   1.416   4.569   7.966 -0.2183  0.1472  0.0623
   99SAPS  H11Y 9985   1.251   4.564   7.888 -0.4021 -1.5992  3.9445
   99SAPS  C312 9986   1.279   4.719   8.044 -0.0259 -0.3561  0.2692
   99SAPS  H12X 9987   1.190   4.780   8.017  1.4942  2.7910  1.8489
   99SAPS  H12Y 9988   1.356   4.792   8.079 -0.8013  0.3737  0.4920
   99SAPS  C313 9989   1.242   4.638   8.174 -0.0708 -0.9805  0.3669
   99SAPS  H13X 9990   1.327   4.580   8.216 -0.2115  0.8157  3.4052
   99SAPS  H13Y 9991   1.174   4.554   8.152  2.2391 -2.9991  0.4617
   99SAPS  C314 9992   1.206   4.731   8.289  0.6327 -0.1740 -0.4125
   99SAPS  H14X 9993   1.119   4.791   8.253  0.5897 -0.6878 -1.1801
   99SAPS  H14Y 9994   1.282   4.806   8.320 -0.1146 -0.2369  1.7777
   99SAPS  C315 9995   1.157   4.657   8.419 -0.6553 -0.2358  0.5545
   99SAPS  H15X 9996   1.117   4.724   8.498 -0.8489 -0.8900  1.0214
   99SAPS  H15Y 9997   1.242   4.594   8.453  0.5974  1.1474  0.0735
   99SAPS  C316 9998   1.040   4.555   8.399 -0.0810  0.0040  0.6122
   99SAPS  H16X 9999   1.072   4.472   8.332 -2.0090 -0.0382 -0.3370
   99SAPS  H16Y10000   0.959   4.605   8.341 -0.0194 -1.2944 -0.6633
   99SAPS  C31710001   0.997   4.501   8.526 -0.0613  1.0289 -0.1999
   99SAPS  H17X10002   0.991   4.585   8.599 -0.4006  1.3114 -0.5542
   99SAPS  H17Y10003   1.080   4.438   8.567 -0.1877  0.1380 -1.2761
   99SAPS  C31810004   0.873   4.408   8.513  0.0580  0.2809 -0.5519
   99SAPS  H18X10005   0.806   4.386   8.598  1.9816 -0.9825  0.7076
   99SAPS  H18Y10006   0.893   4.320   8.447  0.6248  1.4248 -1.9694
   99SAPS  H18Z10007   0.808   4.474   8.451 -1.4533 -0.5030  0.1365
  100SAPS     N10008   3.371   0.195   6.505  0.3270  0.5346  0.0294
  100SAPS   HN110009   3.283   0.143   6.483 -0.4176  2.0104 -0.6636
  100SAPS   HN210010   3.430   0.123   6.551  0.4656  0.9681  0.5398
  100SAPS   HN310011   3.360   0.277   6.568 -1.2274 -0.3307  0.9405
  100SAPS   C1210012   3.430   0.255   6.382  0.3169  0.0768  0.3185
  100SAPS  H12A10013   3.522   0.307   6.408  0.9184 -0.6630 -0.2736
  100SAPS   C1310014   3.461   0.150   6.278  0.1900  0.6166 -0.3100
  100SAPS  O13A10015   3.433   0.026   6.293 -0.1775 -0.1486  0.1717
  100SAPS  O13B10016   3.544   0.185   6.192 -0.7976 -0.1186 -0.3211
  100SAPS   C1110017   3.321   0.351   6.329  0.1651 -0.0972  0.1134
  100SAPS  H11A10018   3.239   0.281   6.301  1.1064 -0.3906 -2.1467
  100SAPS  H11B10019   3.349   0.416   6.243 -0.3862  0.2112  0.1569
  100SAPS     P10020   3.131   0.482   6.439  0.3818 -0.2078 -0.0309
  100SAPS   O1310021   3.119   0.621   6.494 -0.3500  0.3709  0.2402
  100SAPS   O1410022   3.076   0.456   6.304 -0.2518 -0.6593  0.0973
  100SAPS   O1210023   3.286   0.449   6.432 -0.2942 -0.0966 -0.3239
  100SAPS   O1110024   3.070   0.375   6.532 -0.1289  0.7637 -0.4581
  100SAPS    C110025   2.975   0.413   6.633 -0.4796  0.0783 -0.0441
  100SAPS    HA10026   3.026   0.481   6.705  0.7134  1.4964 -2.1163
  100SAPS    HB10027   2.892   0.469   6.586  0.0944  0.1158 -1.0337
  100SAPS    C210028   2.930   0.287   6.711  0.2860 -0.0812 -0.0673
  100SAPS    HS10029   2.888   0.309   6.811  0.9626  2.7561 -0.3054
  100SAPS   O2110030   3.036   0.195   6.724 -0.1922 -0.5601  0.0726
  100SAPS   C2110031   3.119   0.224   6.825 -0.5537  0.3720 -0.1080
  100SAPS   O2210032   3.103   0.309   6.911 -0.3417 -0.6311 -0.3227
  100SAPS   C2210033   3.226   0.120   6.825  0.3326 -0.9042  0.5346
  100SAPS   H2R10034   3.183   0.021   6.800  3.9540 -1.9529 -2.3206
  100SAPS   H2S10035   3.303   0.153   6.752 -2.7113  3.0530 -1.2768
  100SAPS    C310036   2.807   0.221   6.626  0.0621 -0.4761 -0.4830
  100SAPS    HX10037   2.859   0.181   6.537  2.8191  1.8533 -0.0764
  100SAPS    HY10038   2.740   0.303   6.593 -0.1901 -0.8632 -0.9347
  100SAPS   O3110039   2.735   0.128   6.713 -0.0357  0.5083 -0.4725
  100SAPS   C3110040   2.772   0.006   6.706  0.7226 -0.7239 -0.0504
  100SAPS   O3210041   2.865  -0.039   6.642 -0.0911 -0.2425 -0.3707
  100SAPS   C3210042   2.680  -0.070   6.802 -0.4065  0.1665  1.1018
  100SAPS   H2X10043   2.724  -0.171   6.808 -0.2871  0.0461 -1.0590
  100SAPS   H2Y10044   2.581  -0.074   6.753  0.1114 -0.4381  0.0951
  100SAPS   C2310045   3.277   0.098   6.965  1.0479  0.2603 -0.3069
  100SAPS   H3R10046   3.196   0.085   7.040  1.6339  0.1449  0.3135
  100SAPS   H3S10047   3.332   0.190   6.992  0.9788 -0.1743  1.4552
  100SAPS   C2410048   3.370  -0.020   6.964 -0.3365  0.7162  0.2530
  100SAPS   H4R10049   3.409  -0.024   7.068 -1.7582 -1.4132  0.7746
  100SAPS   H4S10050   3.454  -0.002   6.894 -1.9380 -2.0525 -2.6471
  100SAPS   C2510051   3.319  -0.153   6.919  0.2441 -0.3668 -0.4431
  100SAPS   H5R10052   3.348  -0.184   6.817 -0.3535 -1.1510 -0.3873
  100SAPS   C2610053   3.230  -0.226   6.997  0.8465  0.0511  0.2782
  100SAPS   H6R10054   3.210  -0.331   6.973 -1.3110 -0.2938  3.0923
  100SAPS   C2710055   3.188  -0.183   7.136  0.0591 -0.1805  0.3886
  100SAPS   H7R10056   3.089  -0.132   7.145 -0.4808 -1.5431  3.9820
  100SAPS   H7S10057   3.254  -0.098   7.164  0.1819  1.0809 -3.2858
  100SAPS   C2810058   3.191  -0.284   7.243 -0.1571  0.7131  0.0106
  100SAPS   H8R10059   3.277  -0.351   7.235 -0.8311 -0.0488 -1.0686
  100SAPS   C2910060   3.095  -0.302   7.341 -0.0734  0.2979  0.4363
  100SAPS   H9R10061   3.114  -0.378   7.418 -0.1093  0.2459  0.3940
  100SAPS  C21010062   2.970  -0.224   7.367  0.1277  0.2574 -0.6795
  100SAPS  H10R10063   2.952  -0.132   7.306 -1.5950  1.6355  1.7670
  100SAPS  H10S10064   2.979  -0.177   7.467 -0.7131  1.5218 -1.1663
  100SAPS  C21110065   2.839  -0.308   7.359 -0.5045 -0.6678  0.3695
  100SAPS  H11R10066   2.791  -0.316   7.458 -0.0015  1.0451  0.7876
  100SAPS  C21210067   2.786  -0.370   7.251 -0.0912  0.6498  0.4818
  100SAPS  H12R10068   2.698  -0.433   7.267 -0.3451 -0.0048 -2.8552
  100SAPS  C21310069   2.839  -0.381   7.103 -1.0870  0.0103 -0.0409
  100SAPS  H13R10070   2.944  -0.347   7.105 -1.3886  1.0109  2.1250
  100SAPS  H13S10071   2.787  -0.308   7.037 -3.6211 -0.7375  0.9995
  100SAPS  C21410072   2.832  -0.514   7.046 -0.1257 -0.0789  0.7070
  100SAPS  H14R10073   2.743  -0.519   6.982  0.0106  2.3389  0.2344
  100SAPS  C21510074   2.907  -0.626   7.065  0.2098 -0.2003  0.1169
  100SAPS  H15R10075   2.883  -0.713   7.002  1.1646  0.1295 -0.7430
  100SAPS  C21610076   3.024  -0.624   7.163 -0.1186 -0.0081  0.0442
  100SAPS  H16R10077   3.007  -0.586   7.265  0.4610 -0.4290  0.3042
  100SAPS  H16S10078   3.098  -0.556   7.116 -4.3607  4.0519 -1.5333
  100SAPS  C21710079   3.070  -0.768   7.187  1.1101  0.4434  0.1765
  100SAPS  H17R10080   3.099  -0.807   7.087 -0.9770 -0.8981  0.0140
  100SAPS  H17S10081   2.992  -0.829   7.238  4.0643 -1.6768  2.5182
  100SAPS  C21810082   3.198  -0.778   7.270  0.7095 -0.1323  0.1695
  100SAPS  H18R10083   3.272  -0.697   7.253  1.6122 -0.1490  3.5050
  100SAPS  H18S10084   3.247  -0.877   7.255 -1.3039 -1.1050 -0.3400
  100SAPS  C21910085   3.172  -0.761   7.426 -0.4122  0.6299 -0.1357
  100SAPS  H19R10086   3.089  -0.828   7.455  1.1224 -0.9239  0.8228
  100SAPS  H19S10087   3.131  -0.658   7.434 -0.6106  0.5782 -0.4781
  100SAPS  C22010088   3.298  -0.801   7.508  0.7240 -0.3795  0.3285
  100SAPS  H20R10089   3.325  -0.908   7.495 -1.5008 -1.3258  2.6613
  100SAPS  H20S10090   3.269  -0.779   7.613 -2.2750 -0.1286 -0.4608
  100SAPS  H20T10091   3.384  -0.736   7.482  1.1473 -0.7281  0.8601
  100SAPS   C3310092   2.671  -0.019   6.949  0.1772  0.0128 -0.1273
  100SAPS   H3X10093   2.580  -0.060   6.997 -0.5247  0.3024 -1.1775
  100SAPS   H3Y10094   2.652   0.090   6.934 -0.1556 -0.0432 -0.1112
  100SAPS   C3410095   2.793  -0.036   7.040  0.0136 -0.3606  0.0896
  100SAPS   H4X10096   2.886  -0.075   6.994 -1.0586 -0.0168 -2.5920
  100SAPS   H4Y10097   2.762  -0.115   7.112 -0.3724 -1.7391 -1.5340
  100SAPS   C3510098   2.818   0.086   7.124  0.2820 -0.3831 -0.1524
  100SAPS   H5X10099   2.834   0.173   7.057  1.6633  2.3516  3.3999
  100SAPS   H5Y10100   2.912   0.085   7.183 -0.8015  0.4901  1.6684
  100SAPS   C3610101   2.701   0.114   7.216 -0.0532 -0.0978 -0.4736
  100SAPS   H6X10102   2.610   0.063   7.179 -0.5144  1.0084 -0.9089
  100SAPS   H6Y10103   2.670   0.220   7.219 -2.1176 -0.6694 -0.1958
  100SAPS   C3710104   2.723   0.054   7.356  0.1887 -0.6350  0.5704
  100SAPS   H7X10105   2.831   0.060   7.383  0.0468  0.9549  0.8895
  100SAPS   H7Y10106   2.683  -0.048   7.342 -2.5873  0.4568 -0.0811
  100SAPS   C3810107   2.648   0.129   7.473 -0.6489 -0.1483 -0.3509
  100SAPS   H8X10108   2.538   0.121   7.460 -0.6595 -0.6987  0.0639
  100SAPS   H8Y10109   2.668   0.238   7.479 -2.6988  0.3552 -1.6920
  100SAPS   C3910110   2.692   0.066   7.607 -0.1510  0.2652 -0.4514
  100SAPS   H9X10111   2.802   0.060   7.620 -0.5861 -1.3373  5.0188
  100SAPS   H9Y10112   2.650  -0.036   7.598 -2.0497  0.9117  0.5864
  100SAPS  C31010113   2.633   0.142   7.734  0.2200 -0.1736  0.1796
  100SAPS  H10X10114   2.523   0.146   7.722  0.3674  0.4653 -1.1251
  100SAPS  H10Y10115   2.673   0.245   7.737  1.1908 -0.5520  2.4566
  100SAPS  C31110116   2.672   0.074   7.862 -1.0537  0.3112 -0.7002
  100SAPS  H11X10117   2.777   0.102   7.888 -0.8302 -1.3371  0.3206
  100SAPS  H11Y10118   2.667  -0.037   7.861 -1.7553  0.3376 -1.6228
  100SAPS  C31210119   2.582   0.108   7.981 -0.7611  0.4316 -0.2842
  100SAPS  H12X10120   2.475   0.080   7.972 -0.7155  0.2316 -0.2060
  100SAPS  H12Y10121   2.586   0.218   7.994 -1.8179  0.6981 -1.8540
  100SAPS  C31310122   2.636   0.031   8.104 -0.1133  0.3252 -0.0426
  100SAPS  H13X10123   2.741   0.064   8.114  0.7145 -2.0717 -0.0112
  100SAPS  H13Y10124   2.646  -0.078   8.086 -1.6398  0.5082 -2.4627
  100SAPS  C31410125   2.556   0.067   8.235 -0.5666  0.3914  0.1192
  100SAPS  H14X10126   2.567   0.177   8.240  1.4314  0.3289 -1.6687
  100SAPS  H14Y10127   2.619   0.031   8.319  0.6405  1.2817 -0.3799
  100SAPS  C31510128   2.414   0.010   8.251  0.1991 -0.6666 -0.4428
  100SAPS  H15X10129   2.415  -0.102   8.250 -2.4365 -0.7792  1.2987
  100SAPS  H15Y10130   2.357   0.048   8.164 -0.2500  0.7206  0.4397
  100SAPS  C31610131   2.333   0.059   8.371  0.0157  0.1113 -0.0401
  100SAPS  H16X10132   2.222   0.045   8.370  0.1150 -0.7955 -2.0168
  100SAPS  H16Y10133   2.334   0.170   8.378  1.0924  0.0217  2.1462
  100SAPS  C31710134   2.383  -0.004   8.503  0.8664  0.6248 -0.1942
  100SAPS  H17X10135   2.332   0.050   8.585  1.5507  0.6631  0.2151
  100SAPS  H17Y10136   2.488   0.026   8.525  0.1214  3.2153  0.1862
  100SAPS  C31810137   2.353  -0.157   8.510 -0.1950 -0.5621  0.3417
  100SAPS  H18X10138   2.415  -0.226   8.450 -0.5992 -2.0603  1.5893
  100SAPS  H18Y10139   2.242  -0.168   8.499 -0.3870 -0.5669  2.0434
  100SAPS  H18Z10140   2.370  -0.183   8.617 -0.9675 -0.0459  0.6012
  101OSM      N10141   0.749   6.348  10.842 -0.3102 -0.1059 -0.2251
  101OSM    C1510142   0.826   6.461  10.912  0.1278 -0.7570  0.5360
  101OSM   H15A10143   0.874   6.426  11.002 -0.2840 -1.4911  0.4798
  101OSM   H15B10144   0.758   6.541  10.934 -0.3616 -1.1897  0.6235
  101OSM   H15C10145   0.904   6.492  10.844 -0.7803 -1.7059 -1.0270
  101OSM    C1410146   0.682   6.393  10.724  0.3619 -0.1137  0.7307
  101OSM   H14A10147   0.585   6.435  10.746 -1.2924 -3.0131 -0.4921
  101OSM   H14B10148   0.659   6.311  10.658  0.7453  1.0788 -0.9462
  101OSM   H14C10149   0.734   6.464  10.661 -2.6141  1.3983 -0.1900
  101OSM    C1310150   0.851   6.248  10.801  0.6429 -0.1792 -0.0551
  101OSM   H13A10151   0.926   6.310  10.752 -0.3824  1.6569  0.5861
  101OSM   H13B10152   0.812   6.166  10.743  0.6503 -1.0108  1.0897
  101OSM   H13C10153   0.909   6.208  10.883  1.6926  1.5144  0.0813
  101OSM    C1210154   0.652   6.290  10.946 -0.7256  0.2941  0.1223
  101OSM   H12A10155   0.699   6.246  11.033  0.7673 -0.3302 -0.9542
  101OSM   H12B10156   0.598   6.213  10.893  2.2272 -0.1241 -2.5530
  101OSM    C1110157   0.554   6.386  11.012  0.1585 -0.3935  0.4116
  101OSM   H11A10158   0.596   6.471  11.070  1.3439 -1.2548  0.8842
  101OSM   H11B10159   0.487   6.331  11.081 -1.1772  0.7530  0.0618
  101OSM      P10160   0.340   6.359  10.870  0.8724  0.1118 -0.0674
  101OSM    O1310161   0.371   6.218  10.837  0.4898  0.6951 -0.0931
  101OSM    O1410162   0.237   6.388  10.976  0.2536  0.4384 -0.7048
  101OSM    O1110163   0.289   6.435  10.737  0.0252  0.0032 -0.3744
  101OSM    O1210164   0.467   6.443  10.911  0.1812  0.0901 -0.1208
  101OSM    C1S10165   0.305   6.573  10.710  0.0080 -0.3036 -0.2476
  101OSM    H1S10166   0.360   6.631  10.787 -1.0494 -2.5508  2.3832
  101OSM    H1T10167   0.203   6.617  10.705 -0.6317 -1.6678  0.1702
  101OSM     NF10168   0.400   6.736  10.555  0.6423 -0.1508 -0.2631
  101OSM    HNF10169   0.345   6.797  10.498  0.5103  0.8581  0.9047
  101OSM    C2S10170   0.363   6.592  10.571  0.3117  0.1751 -0.6915
  101OSM    H2S10171   0.453   6.528  10.554  1.3297  1.0062  1.3095
  101OSM    C3S10172   0.262   6.543  10.470 -0.3619 -0.5143  0.0767
  101OSM    H3S10173   0.166   6.591  10.499 -0.8162 -0.5988 -1.2046
  101OSM     O310174   0.238   6.406  10.480 -0.5141  0.0921 -0.5414
  101OSM    HO310175   0.279   6.386  10.564  0.2067  0.7171 -0.7285
  101OSM    C4S10176   0.310   6.573  10.326  0.4725 -0.8163  0.6785
  101OSM    H4S10177   0.420   6.572  10.319  0.5056  0.0478  0.9846
  101OSM    C5S10178   0.226   6.572  10.219  0.0203 -0.6421  0.0111
  101OSM    H5S10179   0.120   6.545  10.230 -0.2193 -0.9004 -2.4671
  101OSM    C6S10180   0.270   6.575  10.076 -0.5281 -1.2056  0.3284
  101OSM    H6S10181   0.224   6.655  10.014  3.7623  1.8116  0.5776
  101OSM    H6T10182   0.246   6.476  10.033  0.7675 -1.5897  0.4576
  101OSM    C7S10183   0.424   6.600  10.052  0.2354 -0.5110 -0.1141
  101OSM    H7S10184   0.469   6.525  10.121 -1.2021 -0.3593  1.0340
  101OSM    H7T10185   0.457   6.693  10.102 -1.0907  0.8743 -1.7284
  101OSM    C8S10186   0.475   6.601   9.910  0.0558 -0.2066 -0.0620
  101OSM    H8S10187   0.481   6.499   9.864  1.1580 -1.5877  2.8898
  101OSM    H8T10188   0.579   6.641   9.916 -0.5260  1.1516  1.7720
  101OSM    C9S10189   0.398   6.700   9.818  0.2082 -0.2991 -0.8910
  101OSM    H9S10190   0.431   6.802   9.848 -0.1021 -1.1515  2.7859
  101OSM    H9T10191   0.288   6.694   9.832  0.5552 -1.4863  1.7434
  101OSM   C10S10192   0.436   6.675   9.667 -0.4847 -0.3732 -0.2078
  101OSM   H10S10193   0.412   6.568   9.649 -2.2284 -0.2114  1.0001
  101OSM   H10T10194   0.546   6.688   9.652 -0.3864 -0.0317  0.7337
  101OSM   C11S10195   0.363   6.765   9.563  0.0084 -1.4072 -0.8540
  101OSM   H11S10196   0.413   6.864   9.564  2.2366 -2.4855 -0.5851
  101OSM   H11T10197   0.260   6.790   9.597  1.7572  2.2249  2.7035
  101OSM   C12S10198   0.338   6.705   9.427  0.1791  0.0513  0.0238
  101OSM   H12S10199   0.262   6.755   9.363  0.3728  0.6355  0.2502
  101OSM   H12T10200   0.300   6.601   9.441 -2.1237  0.9955  1.1800
  101OSM   C13S10201   0.461   6.689   9.339  0.0916 -0.4328  0.0695
  101OSM   H13S10202   0.545   6.638   9.390  1.3914 -2.0188 -3.3222
  101OSM   H13T10203   0.490   6.792   9.311 -0.3914 -0.7551 -1.7998
  101OSM   C14S10204   0.438   6.616   9.208 -0.1509 -0.4547 -0.0621
  101OSM   H14S10205   0.413   6.510   9.226 -1.1548 -0.1608  0.3342
  101OSM   H14T10206   0.539   6.618   9.163 -0.2056  0.9036 -0.1696
  101OSM   C15S10207   0.330   6.684   9.117 -0.0621  0.4887  0.0762
  101OSM   H15S10208   0.360   6.791   9.109 -1.8267  0.9005 -1.5990
  101OSM   H15T10209   0.224   6.683   9.150 -0.9886  0.2841 -2.6798
  101OSM   C16S10210   0.333   6.626   8.969  0.5553  0.2022 -0.9052
  101OSM   H16S10211   0.318   6.516   8.978 -1.4529  0.6114  2.3894
  101OSM   H16T10212   0.434   6.644   8.926  1.0713  0.2832  0.3032
  101OSM   C17S10213   0.230   6.683   8.878  0.1294  0.2941 -0.2024
  101OSM   H17S10214   0.264   6.788   8.862 -0.9648  0.8851  1.0321
  101OSM   H17T10215   0.134   6.696   8.933  0.0805  1.3804 -0.5179
  101OSM   C18S10216   0.203   6.615   8.748  0.7449 -0.4158 -0.1101
  101OSM   H18S10217   0.157   6.515   8.760 -1.0240  0.2007 -1.4755
  101OSM   H18T10218   0.293   6.607   8.684  1.0403 -0.5366  0.3093
  101OSM   H18U10219   0.131   6.668   8.683  2.3644 -1.9336 -3.3439
  101OSM    C1F10220   0.503   6.789  10.625 -0.1037 -0.4458 -0.6906
  101OSM     OF10221   0.588   6.720  10.679  1.2466  0.1831 -0.1294
  101OSM    C2F10222   0.502   6.937  10.638 -0.0060  0.1876  0.3495
  101OSM    H2F10223   0.525   6.959  10.744  2.4915  1.6368 -0.3975
  101OSM    H2G10224   0.411   6.986  10.597  0.1905  1.5831  1.5081
  101OSM    C3F10225   0.616   6.986  10.542 -0.4233  0.2572  0.4907
  101OSM    H3F10226   0.711   6.940  10.577 -1.0204  0.0729  1.9343
  101OSM    H3G10227   0.632   7.095  10.558  1.8269  0.0179  0.2300
  101OSM    C4F10228   0.590   6.959  10.393  0.4112  0.1646  0.2252
  101OSM    H4F10229   0.487   6.982  10.360  1.0550 -0.1185 -2.1234
  101OSM    H4G10230   0.614   6.855  10.361 -0.1354 -0.0012  0.3433
  101OSM    C5F10231   0.662   7.064  10.298  0.1429  0.1517  0.0400
  101OSM    H5F10232   0.773   7.057  10.300  0.1209 -0.1200  0.6482
  101OSM    H5G10233   0.633   7.164  10.336  0.2094  0.2918 -0.2769
  101OSM    C6F10234   0.606   7.047  10.157 -1.2237 -0.0381  0.0116
  101OSM    H6F10235   0.496   7.047  10.166 -1.2002 -0.7604  0.3461
  101OSM    H6G10236   0.632   6.953  10.102  2.7834  0.2107  1.1094
  101OSM    C7F10237   0.642   7.161  10.064  0.3081  0.0211  0.1701
  101OSM    H7F10238   0.753   7.166  10.053  0.2587  1.3462  0.1631
  101OSM    H7G10239   0.610   7.259  10.103  0.6955 -0.1055  0.8311
  101OSM    C8F10240   0.580   7.135   9.924 -0.7824  0.1225 -1.0861
  101OSM    H8F10241   0.471   7.144   9.937 -0.6063  0.7422  0.0382
  101OSM    H8G10242   0.611   7.036   9.883 -1.6158 -0.0053 -1.4177
  101OSM    C9F10243   0.622   7.246   9.832 -0.9292  0.1361  0.3652
  101OSM    H9F10244   0.620   7.347   9.875 -1.6086 -0.1999  1.1458
  101OSM   C10F10245   0.674   7.224   9.710 -0.2068 -0.6059  0.1094
  101OSM   H10F10246   0.713   7.313   9.660 -2.3139 -0.0452 -0.6558
  101OSM   C11F10247   0.696   7.096   9.634 -0.6930 -0.1153 -0.4260
  101OSM   H11F10248   0.624   7.015   9.662 -0.2440 -0.2044  0.5194
  101OSM   H11G10249   0.793   7.051   9.664  0.1072  0.0614 -2.5987
  101OSM   C12F10250   0.703   7.102   9.484 -0.4280  0.0397  0.0522
  101OSM   H12F10251   0.741   7.004   9.448 -2.1289  0.2808 -2.6761
  101OSM   H12G10252   0.787   7.174   9.471 -0.6946  0.4455  0.5678
  101OSM   C13F10253   0.568   7.149   9.420 -0.0786  0.4711 -0.3412
  101OSM   H13F10254   0.525   7.231   9.483 -2.4164 -0.7571 -0.2055
  101OSM   H13G10255   0.494   7.066   9.422 -0.2008  0.5204 -1.9419
  101OSM   C14F10256   0.583   7.210   9.281  0.2293 -0.2159  0.5793
  101OSM   H14F10257   0.614   7.317   9.286 -0.2562  0.1024 -1.9313
  101OSM   H14G10258   0.480   7.207   9.240 -1.2148  0.0686  3.8707
  101OSM   C15F10259   0.669   7.126   9.188 -0.0568  0.1782  0.1130
  101OSM   H15F10260   0.644   7.019   9.203  2.7065 -0.4056  0.9741
  101OSM   H15G10261   0.771   7.140   9.228 -0.1239  2.0179 -0.2523
  101OSM   C16F10262   0.686   7.163   9.041  0.2354  0.1863  0.1414
  101OSM   H16F10263   0.775   7.101   9.014 -0.3348 -0.3476 -0.5668
  101OSM   H16G10264   0.705   7.272   9.034 -1.6535  0.5153 -0.5224
  101OSM   C17F10265   0.563   7.128   8.959 -0.6165  0.5980  0.3401
  101OSM   H17F10266   0.593   7.130   8.852  0.2370  0.9440  0.5788
  101OSM   H17G10267   0.481   7.196   8.988 -1.7678 -1.6276  2.6960
  101OSM   C18F10268   0.514   6.980   8.963 -1.3703  0.1918 -0.2080
  101OSM   H18F10269   0.599   6.910   8.945  0.1312  2.3903 -2.1364
  101OSM   H18G10270   0.441   6.956   8.882 -0.1331  1.2711 -1.7019
  101OSM   H18H10271   0.474   6.962   9.065  1.2056  0.2417  0.8922
  102OSM      N10272   6.722   5.170  11.028 -0.5095  0.2418 -0.6254
  102OSM    C1510273   6.590   5.151  11.097 -0.5373 -0.1460 -0.0574
  102OSM   H15A10274   6.563   5.213  11.181 -2.6755 -0.2735 -0.6021
  102OSM   H15B10275   6.582   5.048  11.130 -0.4509 -0.2027 -0.2145
  102OSM   H15C10276   6.522   5.164  11.014  0.6986  2.7147 -0.7401
  102OSM    C1410277   6.722   5.061  10.916 -0.7309  0.4194 -0.1520
  102OSM   H14A10278   6.637   5.094  10.857 -1.0733 -0.4738 -0.1613
  102OSM   H14B10279   6.712   4.969  10.970  1.1296  1.0688  1.4017
  102OSM   H14C10280   6.819   5.068  10.869  0.0015  0.7071  1.3708
  102OSM    C1310281   6.721   5.305  10.963 -0.0895  0.0001  0.0408
  102OSM   H13A10282   6.799   5.314  10.889  0.1170  1.7689  0.4065
  102OSM   H13B10283   6.734   5.387  11.032  0.5901  1.9689 -2.2779
  102OSM   H13C10284   6.626   5.319  10.915 -0.2599  0.5702  0.5249
  102OSM    C1210285   6.840   5.139  11.129 -0.1836 -1.0472 -0.2793
  102OSM   H12A10286   6.841   5.032  11.149  0.0459 -1.0787 -0.4577
  102OSM   H12B10287   6.826   5.194  11.221 -1.7810  0.1482 -1.1874
  102OSM    C1110288   6.987   5.162  11.083  0.1159 -0.3615  0.7544
  102OSM   H11A10289   7.054   5.146  11.170  1.9348  0.1986 -0.4671
  102OSM   H11B10290   7.009   5.268  11.055  0.9909 -0.8203 -0.4080
  102OSM      P10291   7.064   4.932  10.995  0.1647 -0.0855 -0.3076
  102OSM    O1310292   7.204   4.925  11.030 -0.5504 -0.4321 -0.2936
  102OSM    O1410293   6.974   4.878  11.099  0.3175 -0.7331 -0.2788
  102OSM    O1110294   7.045   4.854  10.864  0.1377 -0.4205  1.2195
  102OSM    O1210295   7.026   5.081  10.972  0.5675  0.4267 -0.6108
  102OSM    C1S10296   6.939   4.875  10.767 -0.3407 -0.7573  0.0039
  102OSM    H1S10297   6.934   4.985  10.758 -1.9196 -0.5774  2.2678
  102OSM    H1T10298   6.837   4.861  10.807 -1.0114  2.1900 -0.4606
  102OSM     NF10299   6.885   4.809  10.526 -0.0274  0.1361  0.2495
  102OSM    HNF10300   6.810   4.751  10.494  0.1243  0.5195 -0.8346
  102OSM    C2S10301   6.960   4.779  10.649  0.1311 -0.1903  0.4679
  102OSM    H2S10302   7.069   4.768  10.628  0.0284  0.7009 -0.5618
  102OSM    C3S10303   6.929   4.636  10.696  0.3046  0.4921 -0.1938
  102OSM    H3S10304   6.826   4.641  10.736  0.2155  2.8270 -0.5945
  102OSM     O310305   7.008   4.588  10.809 -0.0632 -0.2081 -0.2667
  102OSM    HO310306   7.021   4.675  10.845 -4.3649 -0.3746  2.4784
  102OSM    C4S10307   6.938   4.536  10.587 -0.0325 -0.1025  0.6939
  102OSM    H4S10308   6.847   4.503  10.535 -0.2177 -0.3860  1.1896
  102OSM    C5S10309   7.061   4.487  10.544  1.0578 -0.0771  0.1206
  102OSM    H5S10310   7.151   4.528  10.591 -0.9506  2.5927  1.9773
  102OSM    C6S10311   7.069   4.381  10.438  0.6203 -0.2165 -0.1532
  102OSM    H6S10312   6.968   4.342  10.413  1.1426 -1.4536 -0.4207
  102OSM    H6T10313   7.137   4.303  10.478  2.6110  2.7265  2.6843
  102OSM    C7S10314   7.127   4.423  10.302 -0.2920 -0.5716  0.0521
  102OSM    H7S10315   7.174   4.335  10.254 -0.7115 -0.7527 -0.0281
  102OSM    H7T10316   7.210   4.497  10.304 -0.4081 -0.4291  2.0198
  102OSM    C8S10317   7.011   4.468  10.214  0.4405 -0.1093 -0.6618
  102OSM    H8S10318   6.948   4.551  10.253  1.2449 -0.2952  1.1247
  102OSM    H8T10319   6.935   4.387  10.212  1.0984 -0.7786  0.3710
  102OSM    C9S10320   7.061   4.490  10.070  0.2988  0.5945  0.6830
  102OSM    H9S10321   6.965   4.508  10.016 -0.0676 -0.9667  0.7724
  102OSM    H9T10322   7.112   4.402  10.028  0.4175 -0.5131  2.9768
  102OSM   C10S10323   7.148   4.617  10.063  0.1316 -0.1036 -0.0918
  102OSM   H10S10324   7.245   4.597  10.113 -0.8352  2.3094  3.0966
  102OSM   H10T10325   7.106   4.698  10.126  0.0709  0.3790 -0.7406
  102OSM   C11S10326   7.164   4.678   9.926  0.0498  0.1923  0.1934
  102OSM   H11S10327   7.071   4.699   9.868  0.8881  1.3018 -0.7921
  102OSM   H11T10328   7.225   4.607   9.866  2.1402  1.1358  1.1108
  102OSM   C12S10329   7.229   4.817   9.934 -1.3063  0.5584 -0.1360
  102OSM   H12S10330   7.293   4.836  10.023 -0.5810  1.3272 -0.7975
  102OSM   H12T10331   7.147   4.892   9.938 -0.6761  1.2372  0.2653
  102OSM   C13S10332   7.324   4.846   9.810  0.5168  0.3497  0.5977
  102OSM   H13S10333   7.399   4.765   9.806 -1.3498 -1.5781  2.2187
  102OSM   H13T10334   7.372   4.941   9.842  2.1835  0.3774 -1.7429
  102OSM   C14S10335   7.255   4.875   9.671  0.5948  0.2708 -0.5068
  102OSM   H14S10336   7.154   4.915   9.695  0.4968 -0.4920  0.4386
  102OSM   H14T10337   7.250   4.776   9.621  1.8843  1.5663 -3.3884
  102OSM   C15S10338   7.328   4.978   9.595  0.6927 -0.0129  0.7189
  102OSM   H15S10339   7.431   4.936   9.586  0.6743  0.2193 -0.9556
  102OSM   H15T10340   7.329   5.069   9.658  2.7781 -0.6911  1.7489
  102OSM   C16S10341   7.288   4.998   9.447 -0.3869 -0.1643 -0.2375
  102OSM   H16S10342   7.196   5.060   9.442 -0.4240 -0.1104  0.8218
  102OSM   H16T10343   7.255   4.900   9.405  1.2262 -1.2373  0.8844
  102OSM   C17S10344   7.386   5.043   9.349  0.6161 -0.2298  0.2467
  102OSM   H17S10345   7.464   4.964   9.345 -0.1265 -0.9254 -0.8687
  102OSM   H17T10346   7.431   5.142   9.370 -0.4130  0.7667 -1.8738
  102OSM   C18S10347   7.327   5.042   9.202 -0.2049 -0.0141 -0.6441
  102OSM   H18S10348   7.296   4.940   9.171  0.7465 -1.1708  1.8631
  102OSM   H18T10349   7.398   5.080   9.126 -1.7342  0.6509 -1.7867
  102OSM   H18U10350   7.242   5.112   9.195 -0.0630  0.1580 -0.6494
  102OSM    C1F10351   6.933   4.899  10.450 -0.0665  0.0492  0.5478
  102OSM     OF10352   7.009   4.983  10.491 -0.2570  1.0182 -0.5700
  102OSM    C2F10353   6.878   4.906  10.314 -0.3640 -0.3654  0.4871
  102OSM    H2F10354   6.777   4.949  10.329  0.1565  1.5191 -1.0350
  102OSM    H2G10355   6.860   4.802  10.279 -0.4929 -0.6609  1.4144
  102OSM    C3F10356   6.966   4.996  10.216  0.0988  0.5843 -0.1950
  102OSM    H3F10357   7.069   4.954  10.219 -0.0244  0.2280 -0.8593
  102OSM    H3G10358   6.966   5.096  10.265 -1.4942  0.1658  0.7474
  102OSM    C4F10359   6.907   5.008  10.079  0.3572 -1.0941 -0.2826
  102OSM    H4F10360   6.798   5.028  10.089  0.7006 -0.4311  3.5999
  102OSM    H4G10361   6.922   4.912  10.026  2.0102 -0.1428 -1.6508
  102OSM    C5F10362   6.973   5.120   9.998 -0.2618 -0.1829 -0.3411
  102OSM    H5F10363   7.084   5.108   9.997 -0.2689 -0.4104 -2.1298
  102OSM    H5G10364   6.954   5.217  10.048  1.7806 -1.1736  2.6483
  102OSM    C6F10365   6.922   5.121   9.856  0.6555 -0.2016  0.0098
  102OSM    H6F10366   6.812   5.137   9.859  0.2676 -2.4252 -0.3841
  102OSM    H6G10367   6.929   5.021   9.807  1.1294 -0.0075 -0.3309
  102OSM    C7F10368   7.004   5.218   9.770  0.3751  0.1580  0.1440
  102OSM    H7F10369   7.112   5.195   9.780 -0.1615 -2.2042  1.1765
  102OSM    H7G10370   6.982   5.317   9.815 -0.0942  0.2513 -0.2843
  102OSM    C8F10371   6.948   5.228   9.625 -0.3808  0.6810  0.8356
  102OSM    H8F10372   6.843   5.263   9.631 -1.6985 -1.7007 -3.6444
  102OSM    H8G10373   6.933   5.123   9.594 -1.6911  1.2311 -0.5752
  102OSM    C9F10374   7.039   5.298   9.531 -0.7427 -0.8464 -0.0515
  102OSM    H9F10375   7.137   5.325   9.574 -0.8352 -1.2579  0.4301
  102OSM   C10F10376   7.016   5.346   9.404  0.1335  0.1824 -0.0072
  102OSM   H10F10377   7.100   5.379   9.341  0.0726  0.0271 -0.1698
  102OSM   C11F10378   6.884   5.339   9.330  0.0481  0.1584  0.4142
  102OSM   H11F10379   6.805   5.347   9.408 -1.4069  2.1169 -1.1540
  102OSM   H11G10380   6.862   5.243   9.279  1.2798 -0.8606  1.7143
  102OSM   C12F10381   6.872   5.465   9.234  0.3092 -0.2324  0.8908
  102OSM   H12F10382   6.931   5.440   9.143 -2.6710  2.1323 -1.9326
  102OSM   H12G10383   6.905   5.556   9.289  0.8830  0.3836 -0.4257
  102OSM   C13F10384   6.723   5.469   9.186 -0.2222  0.4352 -0.2511
  102OSM   H13F10385   6.669   5.451   9.281  2.9637  0.5006  1.7202
  102OSM   H13G10386   6.707   5.374   9.131  0.4180 -1.2348  2.2766
  102OSM   C14F10387   6.687   5.601   9.110  0.3837 -0.5925 -0.2241
  102OSM   H14F10388   6.723   5.681   9.178  0.6974  0.2212 -1.3216
  102OSM   H14G10389   6.577   5.604   9.094  0.0374 -0.0331  1.9251
  102OSM   C15F10390   6.752   5.616   8.969  0.2600  0.0598  0.1266
  102OSM   H15F10391   6.857   5.651   8.979  0.6400 -1.0561  0.2112
  102OSM   H15G10392   6.683   5.690   8.923 -1.7793 -0.8432  1.5531
  102OSM   C16F10393   6.759   5.488   8.881 -0.3930  0.1795 -0.2819
  102OSM   H16F10394   6.820   5.411   8.933 -2.1503 -0.5985  0.7570
  102OSM   H16G10395   6.789   5.522   8.780 -3.2385  1.7640 -0.7013
  102OSM   C17F10396   6.617   5.429   8.856 -0.0662 -0.1404  0.2292
  102OSM   H17F10397   6.560   5.502   8.795 -1.1191 -2.2494 -1.4100
  102OSM   H17G10398   6.575   5.408   8.957 -0.3203 -3.4974 -0.4717
  102OSM   C18F10399   6.614   5.294   8.781 -0.1239  0.0951  0.7393
  102OSM   H18F10400   6.678   5.221   8.835  1.1186  0.8222  0.3046
  102OSM   H18G10401   6.654   5.298   8.677  0.5621 -0.2727  0.9824
  102OSM   H18H10402   6.514   5.247   8.779 -1.0586  2.0040 -0.6139
  103OSM      N10403   2.958   0.828  11.290  0.4423 -0.2928  0.7436
  103OSM    C1510404   2.811   0.808  11.322 -0.3894  0.2604 -0.1738
  103OSM   H15A10405   2.759   0.883  11.264  2.6448  0.8616 -2.3210
  103OSM   H15B10406   2.787   0.801  11.428 -1.5972 -1.8539 -0.5156
  103OSM   H15C10407   2.788   0.711  11.279 -0.6505  1.2152 -2.3034
  103OSM    C1410408   2.990   0.963  11.334 -0.0331 -0.4452 -0.0504
  103OSM   H14A10409   2.941   0.985  11.427  0.5654  0.3831  0.0823
  103OSM   H14B10410   2.953   1.036  11.264  1.2219 -0.1368 -0.4370
  103OSM   H14C10411   3.096   0.972  11.355 -0.0666  0.2190 -0.1578
  103OSM    C1310412   3.031   0.729  11.374  0.1594  0.7118  0.4860
  103OSM   H13A10413   3.042   0.754  11.479  0.6586  0.4317  0.5054
  103OSM   H13B10414   3.133   0.714  11.341 -0.6989 -1.5515 -1.4316
  103OSM   H13C10415   2.994   0.628  11.363  2.2574 -0.0693  0.0891
  103OSM    C1210416   2.993   0.816  11.147 -0.5128 -0.6068 -0.4714
  103OSM   H12A10417   3.004   0.712  11.118  2.6903 -0.6407  0.4538
  103OSM   H12B10418   3.094   0.846  11.126 -0.7195 -0.8094 -1.8285
  103OSM    C1110419   2.900   0.893  11.053 -0.0066 -0.4602  0.1463
  103OSM   H11A10420   2.959   0.909  10.960  4.0952  0.0012  2.6160
  103OSM   H11B10421   2.891   0.998  11.089  0.1172 -0.5163  0.3395
  103OSM      P10422   2.745   0.695  10.983 -0.4172  0.0462  0.6516
  103OSM    O1310423   2.875   0.631  10.965  0.7346  0.2508  0.4301
  103OSM    O1410424   2.656   0.624  11.076 -0.4074  0.2953  0.6150
  103OSM    O1110425   2.679   0.725  10.842 -0.2113 -0.4201 -0.2792
  103OSM    O1210426   2.767   0.835  11.043 -0.1907 -0.8698  0.3798
  103OSM    C1S10427   2.690   0.834  10.755  0.0133 -0.2592 -0.2756
  103OSM    H1S10428   2.763   0.910  10.791 -1.3799  1.0098 -0.0508
  103OSM    H1T10429   2.591   0.883  10.745 -0.5798 -1.3464  0.0709
  103OSM     NF10430   2.750   0.911  10.544 -0.1934 -0.0800 -0.6160
  103OSM    HNF10431   2.676   0.926  10.479 -1.2984  0.3997  0.7105
  103OSM    C2S10432   2.743   0.787  10.620  0.4672 -0.2868 -0.1027
  103OSM    H2S10433   2.848   0.752  10.636  0.9510 -0.1608 -2.5748
  103OSM    C3S10434   2.665   0.677  10.561 -0.0058  0.3038 -0.1261
  103OSM    H3S10435   2.559   0.707  10.574 -0.4498 -0.4989 -1.6393
  103OSM     O310436   2.682   0.555  10.626  0.1462  0.3820 -0.0182
  103OSM    HO310437   2.724   0.578  10.709 -1.2637 -0.9502  1.1197
  103OSM    C4S10438   2.692   0.675  10.415 -0.6558  0.1563 -0.1969
  103OSM    H4S10439   2.661   0.765  10.360 -1.3714 -0.6277 -1.1277
  103OSM    C5S10440   2.760   0.587  10.342 -0.5904  1.1116 -0.6800
  103OSM    H5S10441   2.809   0.507  10.398 -0.0612  1.4105 -0.7071
  103OSM    C6S10442   2.790   0.592  10.193 -0.1644  0.1640 -0.0479
  103OSM    H6S10443   2.774   0.488  10.159  0.7741 -0.2661  0.7922
  103OSM    H6T10444   2.894   0.624  10.169  1.1341 -0.8032  3.6973
  103OSM    C7S10445   2.697   0.686  10.110  0.5490 -0.1566 -0.4642
  103OSM    H7S10446   2.712   0.785  10.158 -0.8583  0.9670 -2.2140
  103OSM    H7T10447   2.592   0.656  10.128  0.5439  1.1666  2.1277
  103OSM    C8S10448   2.741   0.713   9.965 -0.2878  0.3508 -0.1415
  103OSM    H8S10449   2.848   0.700   9.940 -0.7443 -1.0824 -1.5269
  103OSM    H8T10450   2.722   0.821   9.948 -0.7362  0.3204  0.1469
  103OSM    C9S10451   2.661   0.628   9.861  0.3000  0.4874 -0.2735
  103OSM    H9S10452   2.555   0.649   9.886  0.0440  0.5174 -1.3600
  103OSM    H9T10453   2.694   0.524   9.882 -0.9326  0.0134 -0.6161
  103OSM   C10S10454   2.684   0.650   9.707 -0.1536 -0.4775 -0.8050
  103OSM   H10S10455   2.646   0.753   9.695 -0.2869 -0.3738  0.4430
  103OSM   H10T10456   2.616   0.586   9.646 -2.9761  1.1969  0.3776
  103OSM   C11S10457   2.832   0.646   9.665  0.4512 -0.3569  0.1113
  103OSM   H11S10458   2.882   0.556   9.707  1.5018 -0.1016 -0.5616
  103OSM   H11T10459   2.881   0.740   9.698 -1.8710  0.7178  0.7004
  103OSM   C12S10460   2.839   0.628   9.513  0.0079 -0.3449 -0.3399
  103OSM   H12S10461   2.804   0.724   9.469 -1.3432 -0.9102 -0.5457
  103OSM   H12T10462   2.758   0.560   9.479  0.6249 -0.7821 -0.9526
  103OSM   C13S10463   2.981   0.600   9.464  0.2503  0.1706  0.4036
  103OSM   H13S10464   3.024   0.524   9.533 -1.2589 -0.9135  0.2066
  103OSM   H13T10465   3.046   0.690   9.463  0.6099  0.0211 -2.8929
  103OSM   C14S10466   2.984   0.549   9.313 -0.4001 -0.1936 -0.0839
  103OSM   H14S10467   2.900   0.604   9.267 -0.0043 -1.7614 -2.9159
  103OSM   H14T10468   2.957   0.441   9.318 -1.1364  0.0253  3.2673
  103OSM   C15S10469   3.107   0.591   9.232  0.7049 -0.6953 -0.7092
  103OSM   H15S10470   3.188   0.526   9.271  0.0701 -0.9895  0.1530
  103OSM   H15T10471   3.127   0.697   9.259 -0.8182 -1.0764  2.2712
  103OSM   C16S10472   3.105   0.566   9.075 -0.3332  0.3083 -0.4316
  103OSM   H16S10473   3.013   0.613   9.034 -1.2166  0.6293  1.7870
  103OSM   H16T10474   3.090   0.456   9.065  1.9615 -0.3805  2.4008
  103OSM   C17S10475   3.230   0.612   9.009 -0.4787  0.0317 -0.3026
  103OSM   H17S10476   3.247   0.569   8.908 -0.5028  0.7985 -0.6426
  103OSM   H17T10477   3.321   0.578   9.061  2.3900  2.6711 -3.1268
  103OSM   C18S10478   3.239   0.764   8.993 -0.0279 -0.1220  0.2292
  103OSM   H18S10479   3.242   0.814   9.092 -0.8620 -0.4839  0.4542
  103OSM   H18T10480   3.146   0.801   8.945 -1.1019  1.3999  3.2558
  103OSM   H18U10481   3.326   0.784   8.927  0.1431  0.6365  0.6804
  103OSM    C1F10482   2.854   1.001  10.573  0.6140 -0.2005  0.6750
  103OSM     OF10483   2.959   0.970  10.631 -0.2860  0.6566 -0.4706
  103OSM    C2F10484   2.830   1.139  10.529  0.7009  0.2754 -0.3422
  103OSM    H2F10485   2.816   1.204  10.618 -1.0840  0.2688 -0.5825
  103OSM    H2G10486   2.731   1.139  10.478 -0.0779 -1.1414  1.0803
  103OSM    C3F10487   2.940   1.179  10.436 -0.4958  0.7178  0.6237
  103OSM    H3F10488   3.038   1.157  10.483 -0.3463  0.2066  0.0895
  103OSM    H3G10489   2.927   1.289  10.434  3.0576  1.3020  1.9366
  103OSM    C4F10490   2.935   1.127  10.289 -0.0101 -0.0241  0.1031
  103OSM    H4F10491   2.937   1.016  10.295  0.6002 -0.0540 -0.5144
  103OSM    H4G10492   3.032   1.147  10.238 -0.3851  2.7233  0.3174
  103OSM    C5F10493   2.817   1.182  10.208 -0.0819 -0.1855 -0.3313
  103OSM    H5F10494   2.804   1.288  10.237  1.2149  0.5787 -2.3465
  103OSM    H5G10495   2.725   1.129  10.241  1.4549 -2.6198  0.3793
  103OSM    C6F10496   2.841   1.162  10.056 -0.2633 -0.4281  0.2905
  103OSM    H6F10497   2.745   1.118  10.025  0.0401 -0.9692  0.1052
  103OSM    H6G10498   2.917   1.087  10.025 -0.8740 -1.2100  0.6693
  103OSM    C7F10499   2.868   1.290   9.969  0.2489 -0.0960  0.2792
  103OSM    H7F10500   2.966   1.331  10.001  0.4387 -0.0118 -0.4160
  103OSM    H7G10501   2.799   1.375   9.986 -1.0859 -0.9107 -0.8442
  103OSM    C8F10502   2.889   1.278   9.813  0.3476  0.9564 -0.0957
  103OSM    H8F10503   2.969   1.201   9.804 -1.0554 -0.5724 -0.0050
  103OSM    H8G10504   2.930   1.376   9.782 -0.4166  1.1090 -0.6448
  103OSM    C9F10505   2.758   1.242   9.747  0.1047 -0.3648  0.3107
  103OSM    H9F10506   2.692   1.181   9.811  0.3589 -0.7521  0.2061
  103OSM   C10F10507   2.711   1.302   9.632  0.0618  0.4937 -0.0348
  103OSM   H10F10508   2.612   1.280   9.588  0.1883 -0.6508  0.2186
  103OSM   C11F10509   2.789   1.397   9.544  0.3749 -0.3845  0.4476
  103OSM   H11F10510   2.898   1.398   9.566  0.4368 -0.6006  0.1641
  103OSM   H11G10511   2.747   1.498   9.561  0.1814 -0.2045 -0.9235
  103OSM   C12F10512   2.791   1.380   9.388  0.0170  0.9939  0.0531
  103OSM   H12F10513   2.792   1.270   9.373  0.9860  1.2995 -2.6640
  103OSM   H12G10514   2.890   1.417   9.353  1.7537 -0.5709  2.8981
  103OSM   C13F10515   2.670   1.423   9.312 -0.3615  0.1005 -0.4881
  103OSM   H13F10516   2.579   1.396   9.369  0.1276 -0.1344  0.1947
  103OSM   H13G10517   2.670   1.532   9.291  0.3965  0.6700  2.0908
  103OSM   C14F10518   2.658   1.367   9.169  0.2831  0.1681 -0.6508
  103OSM   H14F10519   2.636   1.258   9.177 -0.5401  0.4256  1.1996
  103OSM   H14G10520   2.753   1.378   9.113  0.1453 -2.5857 -1.6296
  103OSM   C15F10521   2.530   1.431   9.095 -0.4129 -0.5106  0.4936
  103OSM   H15F10522   2.557   1.537   9.079  1.4057 -1.0706 -0.4023
  103OSM   H15G10523   2.441   1.437   9.162 -2.6125 -2.0216 -2.0784
  103OSM   C16F10524   2.490   1.388   8.953  0.4521 -0.0992  0.8906
  103OSM   H16F10525   2.414   1.467   8.936 -1.6684 -1.9038  1.5378
  103OSM   H16G10526   2.433   1.293   8.962  0.7340 -0.3300  0.2338
  103OSM   C17F10527   2.596   1.390   8.848  0.0588 -0.1006  0.0286
  103OSM   H17F10528   2.666   1.305   8.860  0.5391  0.2668 -0.1408
  103OSM   H17G10529   2.656   1.483   8.856 -0.0818 -0.0192  0.1346
  103OSM   C18F10530   2.556   1.381   8.696  0.5655 -0.4923  0.1553
  103OSM   H18F10531   2.644   1.392   8.629 -0.0182  1.5243 -0.3571
  103OSM   H18G10532   2.476   1.455   8.673  1.3411  0.4935  0.5578
  103OSM   H18H10533   2.513   1.279   8.691  0.2646 -0.3214 -1.6597
  104OSM      N10534   0.715   0.875  11.114  0.4222  0.0961  0.2250
  104OSM    C1510535   0.601   0.782  11.127  0.6684 -0.6470 -0.4001
  104OSM   H15A10536   0.620   0.678  11.106 -0.1841 -0.3130 -3.2325
  104OSM   H15B10537   0.518   0.823  11.071  2.2540  1.1571 -1.5388
  104OSM   H15C10538   0.581   0.779  11.233  4.5446  0.2806  0.5080
  104OSM    C1410539   0.684   1.005  11.194 -0.3146  0.1418 -0.5335
  104OSM   H14A10540   0.767   1.075  11.198 -1.1212  1.0636  0.9494
  104OSM   H14B10541   0.638   0.977  11.288  1.1051 -0.8574 -0.0885
  104OSM   H14C10542   0.609   1.066  11.148 -2.1120 -0.8309  0.9833
  104OSM    C1310543   0.830   0.805  11.177  0.0487  0.4470  0.1808
  104OSM   H13A10544   0.912   0.875  11.185 -0.2470  0.6732  1.3084
  104OSM   H13B10545   0.864   0.720  11.118 -0.4398 -0.0695  0.6351
  104OSM   H13C10546   0.814   0.785  11.282  0.2815 -0.2528  0.0904
  104OSM    C1210547   0.749   0.901  10.972 -0.6301  0.5017 -0.2181
  104OSM   H12A10548   0.794   0.819  10.919 -0.7600  1.1982 -1.4401
  104OSM   H12B10549   0.833   0.969  10.973 -1.3716  1.4475  0.9028
  104OSM    C1110550   0.645   0.952  10.873  0.8433  1.1133  0.7104
  104OSM   H11A10551   0.577   0.865  10.864  1.7959  0.1831  2.0889
  104OSM   H11B10552   0.688   0.960  10.771 -1.3566 -1.1054 -0.4988
  104OSM      P10553   0.605   1.208  10.870 -0.3625 -0.0775  0.3340
  104OSM    O1310554   0.474   1.267  10.840  0.0569  0.3190 -0.2762
  104OSM    O1410555   0.692   1.284  10.964  0.7164 -0.0648  0.1448
  104OSM    O1110556   0.685   1.197  10.736  0.2539 -0.4672 -0.0673
  104OSM    O1210557   0.572   1.061  10.914 -0.0766 -0.3135 -0.3509
  104OSM    C1S10558   0.735   1.314  10.657  0.3244 -0.0661 -0.1007
  104OSM    H1S10559   0.828   1.359  10.699  1.3254  0.0333 -2.2948
  104OSM    H1T10560   0.654   1.388  10.641 -0.7328 -0.9722  0.8200
  104OSM     NF10561   0.800   1.409  10.450  0.4304 -0.0601  0.1940
  104OSM    HNF10562   0.746   1.436  10.370  0.1111  1.2172  0.8179
  104OSM    C2S10563   0.773   1.279  10.511 -0.7916  0.4841  0.1813
  104OSM    H2S10564   0.868   1.221  10.517 -0.5471  1.0059  2.5865
  104OSM    C3S10565   0.666   1.199  10.428  0.4356 -0.0633  0.4105
  104OSM    H3S10566   0.589   1.271  10.393  1.9274  0.6118 -1.6688
  104OSM     O310567   0.585   1.101  10.500  0.4611  0.2538 -0.2797
  104OSM    HO310568   0.603   1.119  10.592  1.8314 -0.6293 -0.3462
  104OSM    C4S10569   0.728   1.141  10.302  0.3297  0.4679 -0.5876
  104OSM    H4S10570   0.786   1.052  10.330 -1.0939 -0.1496  0.5471
  104OSM    C5S10571   0.724   1.204  10.184  0.0525  0.0339 -0.2583
  104OSM    H5S10572   0.667   1.298  10.170 -1.1139 -0.5667  0.2749
  104OSM    C6S10573   0.790   1.156  10.059  0.2177 -0.5986  0.3810
  104OSM    H6S10574   0.718   1.102   9.994 -2.6924  2.9456  0.2911
  104OSM    H6T10575   0.885   1.102  10.076 -0.6680 -2.2954  0.1651
  104OSM    C7S10576   0.821   1.269   9.956 -0.0040 -0.1587 -0.4686
  104OSM    H7S10577   0.886   1.225   9.878  0.2890 -0.6897  0.0661
  104OSM    H7T10578   0.892   1.342  10.000  1.2934  0.3279 -3.1736
  104OSM    C8S10579   0.702   1.350   9.902 -0.4327  0.1700  0.0565
  104OSM    H8S10580   0.658   1.419   9.977 -0.9343  0.2201 -0.2850
  104OSM    H8T10581   0.623   1.279   9.871  1.4376 -1.7449 -0.5409
  104OSM    C9S10582   0.744   1.423   9.772  1.2725 -0.7330  0.3723
  104OSM    H9S10583   0.839   1.479   9.786  1.3057 -0.9150  0.9080
  104OSM    H9T10584   0.663   1.495   9.750  1.2225 -0.5587  1.0898
  104OSM   C10S10585   0.748   1.335   9.646 -0.0501  0.3939 -0.1131
  104OSM   H10S10586   0.648   1.290   9.631  0.4489 -0.5721 -0.6025
  104OSM   H10T10587   0.814   1.248   9.667 -2.0178 -1.3686 -0.9144
  104OSM   C11S10588   0.800   1.403   9.522  0.4632 -0.1891 -0.6938
  104OSM   H11S10589   0.906   1.430   9.541  0.3772 -1.2577  1.7324
  104OSM   H11T10590   0.743   1.498   9.511 -0.0467 -0.4873 -0.6729
  104OSM   C12S10591   0.784   1.319   9.393 -0.8970 -0.2669  0.6519
  104OSM   H12S10592   0.683   1.274   9.391 -2.0456  2.1617 -1.6162
  104OSM   H12T10593   0.866   1.244   9.400 -0.9639 -0.5390 -1.1437
  104OSM   C13S10594   0.806   1.406   9.268 -1.0675  0.4707  0.0636
  104OSM   H13S10595   0.896   1.471   9.275 -1.9937  2.2305 -2.6757
  104OSM   H13T10596   0.725   1.482   9.269 -0.7155  0.9024 -1.7020
  104OSM   C14S10597   0.800   1.319   9.139  0.1965 -0.0598  1.0505
  104OSM   H14S10598   0.699   1.274   9.148  0.1811  0.0272  1.3165
  104OSM   H14T10599   0.877   1.239   9.148 -0.1715 -0.7866 -1.5265
  104OSM   C15S10600   0.825   1.407   9.017 -1.0401  0.1209  0.3607
  104OSM   H15S10601   0.928   1.447   9.032 -0.6438  0.2767 -2.3454
  104OSM   H15T10602   0.758   1.495   9.016  0.2600  1.1590  0.5812
  104OSM   C16S10603   0.816   1.333   8.875 -1.0424  0.1202  0.2271
  104OSM   H16S10604   0.869   1.393   8.799 -1.9381  1.2511  0.4611
  104OSM   H16T10605   0.711   1.307   8.850 -0.1118 -2.1571 -1.6304
  104OSM   C17S10606   0.882   1.190   8.870 -0.7241  0.5723  0.0569
  104OSM   H17S10607   0.827   1.105   8.916 -1.7571  0.0990 -1.9420
  104OSM   H17T10608   0.981   1.196   8.921 -0.9429 -0.8369  0.6984
  104OSM   C18S10609   0.927   1.147   8.727  0.0032 -0.0844 -0.4211
  104OSM   H18S10610   0.972   1.046   8.736 -2.4858 -1.2059  0.4720
  104OSM   H18T10611   0.990   1.223   8.677  1.0761 -0.8671 -0.2906
  104OSM   H18U10612   0.836   1.137   8.664  0.3313 -0.4599 -0.8429
  104OSM    C1F10613   0.894   1.496  10.472 -0.1844  0.0559 -0.2133
  104OSM     OF10614   0.992   1.460  10.536 -0.2644  0.1032  0.4462
  104OSM    C2F10615   0.867   1.642  10.434  0.4451  0.7812 -0.4590
  104OSM    H2F10616   0.855   1.698  10.530 -4.0961  0.6113 -0.7135
  104OSM    H2G10617   0.765   1.647  10.390  0.0562 -2.8021 -0.2076
  104OSM    C3F10618   0.979   1.703  10.348 -0.6248  0.0944  1.4320
  104OSM    H3F10619   1.075   1.722  10.399  0.9037 -1.2956 -0.7521
  104OSM    H3G10620   0.932   1.798  10.315  0.2570  0.4143  1.0829
  104OSM    C4F10621   0.997   1.616  10.218  0.5154 -0.2924 -0.0356
  104OSM    H4F10622   0.892   1.614  10.183  0.2273  3.1326  0.2491
  104OSM    H4G10623   1.035   1.515  10.244 -1.8192 -0.7738  1.8832
  104OSM    C5F10624   1.084   1.689  10.112 -0.0135  0.4123  0.4452
  104OSM    H5F10625   1.185   1.695  10.158  0.2526 -1.2993  0.1467
  104OSM    H5G10626   1.029   1.786  10.110  0.7423  0.9284  2.3496
  104OSM    C6F10627   1.073   1.623   9.979  0.5861 -0.6130 -0.2943
  104OSM    H6F10628   0.967   1.626   9.945  0.3875  1.9666  0.2818
  104OSM    H6G10629   1.103   1.518   9.995 -0.4473 -0.8629  0.0868
  104OSM    C7F10630   1.171   1.688   9.878 -0.2740  0.0651 -0.5531
  104OSM    H7F10631   1.277   1.680   9.909 -0.2378  2.2657  0.1116
  104OSM    H7G10632   1.154   1.798   9.881 -3.1947 -0.3390  1.3068
  104OSM    C8F10633   1.160   1.627   9.742  0.4858  0.0201  0.9672
  104OSM    H8F10634   1.139   1.519   9.755  1.8585 -0.7776 -2.3325
  104OSM    H8G10635   1.260   1.639   9.694  0.1366 -1.1212 -0.0931
  104OSM    C9F10636   1.061   1.693   9.650  0.0177 -0.3583  0.2659
  104OSM    H9F10637   0.963   1.703   9.699 -0.0812 -0.4237  0.0847
  104OSM   C10F10638   1.075   1.723   9.520  0.6113  0.6216  0.3093
  104OSM   H10F10639   0.990   1.769   9.469  2.1435  0.8844 -2.1697
  104OSM   C11F10640   1.193   1.698   9.433 -0.5355  0.3075 -0.2186
  104OSM   H11F10641   1.162   1.625   9.356 -1.5313  0.0541  0.3989
  104OSM   H11G10642   1.286   1.674   9.489  0.6054  2.1974 -1.2163
  104OSM   C12F10643   1.233   1.820   9.348  0.1322 -0.6763  0.5966
  104OSM   H12F10644   1.320   1.781   9.290  1.4461 -0.7162  2.4911
  104OSM   H12G10645   1.267   1.909   9.405 -2.9253  0.1947  1.2029
  104OSM   C13F10646   1.133   1.858   9.239  0.0040 -0.0535 -0.0874
  104OSM   H13F10647   1.042   1.903   9.283 -0.1248  0.6718 -1.0579
  104OSM   H13G10648   1.097   1.772   9.179 -3.2754  1.1726 -0.0522
  104OSM   C14F10649   1.184   1.963   9.133  0.2125 -0.9171 -0.1758
  104OSM   H14F10650   1.104   1.995   9.063  0.5722 -1.6156 -0.9219
  104OSM   H14G10651   1.276   1.916   9.092  0.3723 -1.8909  1.2285
  104OSM   C15F10652   1.222   2.099   9.195 -0.2170 -0.2284  0.3872
  104OSM   H15F10653   1.277   2.094   9.291 -0.9276 -0.2009  0.7995
  104OSM   H15G10654   1.120   2.136   9.222 -0.7122 -1.1695 -0.1517
  104OSM   C16F10655   1.284   2.191   9.089  0.7086  0.7969  0.6757
  104OSM   H16F10656   1.386   2.153   9.065  0.5148  1.3222 -1.1253
  104OSM   H16G10657   1.288   2.289   9.141  0.0969  1.0141  0.3142
  104OSM   C17F10658   1.214   2.205   8.952  0.3512  0.4565 -0.9801
  104OSM   H17F10659   1.107   2.231   8.970 -0.0268 -1.4804 -0.1408
  104OSM   H17G10660   1.200   2.113   8.893  0.3153  1.3876 -2.4609
  104OSM   C18F10661   1.278   2.305   8.861 -0.3970 -1.0071 -0.1458
  104OSM   H18F10662   1.261   2.408   8.897 -1.2839 -1.4000  0.5950
  104OSM   H18G10663   1.228   2.300   8.762 -0.2737  1.2647 -0.3691
  104OSM   H18H10664   1.386   2.282   8.844 -0.4894 -0.0468 -2.3850
  105OSM      N10665   0.062   1.532  10.773  0.8160  0.2069 -0.1489
  105OSM    C1510666   0.166   1.566  10.673 -0.2270  0.5847 -0.4277
  105OSM   H15A10667   0.194   1.480  10.614  0.5119  1.0868 -0.8179
  105OSM   H15B10668   0.255   1.616  10.707  0.8503 -1.0232 -0.7618
  105OSM   H15C10669   0.132   1.628  10.592 -0.4752  2.6159  1.1570
  105OSM    C1410670   0.001   1.655  10.841  0.4243 -0.4018  1.0759
  105OSM   H14A10671  -0.064   1.631  10.924  0.1532  0.5966  1.1618
  105OSM   H14B10672  -0.054   1.710  10.766  0.0688 -3.9210 -1.4768
  105OSM   H14C10673   0.073   1.724  10.880 -1.4632  0.7435  2.7369
  105OSM    C1310674  -0.051   1.464  10.706  0.5913  0.2826  0.1915
  105OSM   H13A10675  -0.018   1.365  10.676 -1.4826  0.0027 -1.3328
  105OSM   H13B10676  -0.099   1.506  10.620 -1.4255 -0.8208  0.7165
  105OSM   H13C10677  -0.131   1.460  10.779 -0.4926 -1.4697 -1.0298
  105OSM    C1210678   0.121   1.447  10.883 -0.3943 -0.4288  0.1061
  105OSM   H12A10679   0.197   1.503  10.935  1.2964 -2.8030  0.3288
  105OSM   H12B10680   0.177   1.370  10.833  1.4373  1.5909 -1.1339
  105OSM    C1110681   0.028   1.377  10.988 -0.0084  0.1946  0.3201
  105OSM   H11A10682  -0.056   1.445  11.015 -1.0015 -0.9308  0.1652
  105OSM   H11B10683   0.085   1.362  11.083  1.2376 -1.1265 -0.5861
  105OSM      P10684   0.027   1.105  10.960  0.3266 -0.0019  0.0355
  105OSM    O1310685   0.147   1.094  11.048  0.3168  0.3322 -0.0846
  105OSM    O1410686  -0.081   1.012  10.988 -0.4612  0.3237  0.3678
  105OSM    O1110687   0.069   1.087  10.809 -0.0721 -0.4601 -0.3268
  105OSM    O1210688  -0.033   1.251  10.949 -0.3087  0.4947 -0.6616
  105OSM    C1S10689   0.188   1.020  10.783 -0.0094  0.5081  0.6765
  105OSM    H1S10690   0.182   0.921  10.832  1.4143 -1.5202 -2.9159
  105OSM    H1T10691   0.278   1.064  10.830 -1.0230  1.3054  1.9295
  105OSM     NF10692   0.329   0.947  10.606 -0.2820  0.3359  0.6155
  105OSM    HNF10693   0.394   1.011  10.566  0.3217 -0.5491  0.1382
  105OSM    C2S10694   0.204   1.014  10.628  0.0562  0.3871 -0.4212
  105OSM    H2S10695   0.124   0.947  10.590  0.9906 -1.8825  1.3467
  105OSM    C3S10696   0.181   1.152  10.569 -0.3586 -0.2401 -0.0913
  105OSM    H3S10697   0.253   1.228  10.605 -0.7963  0.6387 -1.0387
  105OSM     O310698   0.052   1.209  10.595 -0.1681  0.1258 -0.1018
  105OSM    HO310699   0.025   1.168  10.678 -2.0828 -0.2086 -0.8365
  105OSM    C4S10700   0.193   1.132  10.421 -0.0465  0.0200  0.0595
  105OSM    H4S10701   0.111   1.080  10.370  0.2092  1.0827 -1.5028
  105OSM    C5S10702   0.288   1.189  10.344  0.5418  0.2519 -0.7123
  105OSM    H5S10703   0.356   1.257  10.396  1.8342 -1.6194  0.1356
  105OSM    C6S10704   0.298   1.172  10.203 -0.3764  0.6429  0.0916
  105OSM    H6S10705   0.220   1.107  10.156  1.2686 -1.4032  0.0615
  105OSM    H6T10706   0.385   1.108  10.177 -2.1231 -0.6014 -3.3110
  105OSM    C7S10707   0.313   1.302  10.125 -0.0513 -0.1902 -0.0268
  105OSM    H7S10708   0.389   1.374  10.164  0.3075  0.5839 -2.0039
  105OSM    H7T10709   0.217   1.358  10.116  0.0350  0.2480  1.5663
  105OSM    C8S10710   0.355   1.263   9.982 -0.1273 -0.8001 -0.2408
  105OSM    H8S10711   0.294   1.180   9.942  2.9548 -0.9817 -5.5705
  105OSM    H8T10712   0.461   1.229   9.982  0.0045 -0.4108 -0.9245
  105OSM    C9S10713   0.329   1.382   9.893  0.0674  0.6878  0.9577
  105OSM    H9S10714   0.395   1.470   9.908 -0.3088  1.0342  0.6066
  105OSM    H9T10715   0.224   1.418   9.901 -0.0852  1.1850 -2.2787
  105OSM   C10S10716   0.347   1.348   9.744  0.5090  0.2382 -0.7351
  105OSM   H10S10717   0.277   1.265   9.723 -0.2567  0.4737  0.7696
  105OSM   H10T10718   0.453   1.317   9.736  0.3384 -0.3798 -0.6201
  105OSM   C11S10719   0.322   1.449   9.633  0.0597 -0.3170 -0.4611
  105OSM   H11S10720   0.391   1.531   9.662  0.4960 -0.8474  0.0285
  105OSM   H11T10721   0.215   1.478   9.634  0.1248 -0.0263  1.0213
  105OSM   C12S10722   0.371   1.400   9.491  0.3877 -0.4694 -0.6642
  105OSM   H12S10723   0.306   1.315   9.461 -0.0583 -0.3284 -0.1102
  105OSM   H12T10724   0.476   1.366   9.504  0.0852 -1.6651 -1.2513
  105OSM   C13S10725   0.385   1.517   9.401 -0.4455  0.0172  0.3034
  105OSM   H13S10726   0.452   1.598   9.439 -2.1153  0.8018  1.7073
  105OSM   H13T10727   0.294   1.577   9.382  0.3999  1.7827  1.5531
  105OSM   C14S10728   0.434   1.464   9.263  0.2312  0.5995  0.4372
  105OSM   H14S10729   0.527   1.406   9.279 -1.1379 -2.0929 -0.7415
  105OSM   H14T10730   0.441   1.549   9.192 -1.1989 -0.2622 -0.7929
  105OSM   C15S10731   0.332   1.378   9.183  0.2436  0.6794 -0.5910
  105OSM   H15S10732   0.251   1.448   9.153  1.0011  1.1877 -1.5202
  105OSM   H15T10733   0.283   1.297   9.241  2.1580 -0.0693  0.0659
  105OSM   C16S10734   0.392   1.316   9.050 -1.0545  0.3171  0.1840
  105OSM   H16S10735   0.470   1.244   9.083 -1.0792  0.7937  1.3147
  105OSM   H16T10736   0.447   1.406   9.014  0.7961 -0.8519 -0.0395
  105OSM   C17S10737   0.284   1.280   8.951 -0.0402 -0.3010  0.1693
  105OSM   H17S10738   0.221   1.370   8.939  0.0059  0.0311  2.0757
  105OSM   H17T10739   0.222   1.196   8.989 -0.4681  0.1386  0.4617
  105OSM   C18S10740   0.342   1.243   8.815  0.2558 -0.1690 -0.1177
  105OSM   H18S10741   0.410   1.319   8.770  0.6125 -0.4714 -0.0949
  105OSM   H18T10742   0.250   1.227   8.755 -0.4671  0.0353  0.9004
  105OSM   H18U10743   0.401   1.149   8.807 -0.1296 -0.2582 -2.8997
  105OSM    C1F10744   0.347   0.812  10.632  0.0903 -0.0393 -0.2699
  105OSM     OF10745   0.251   0.748  10.681 -0.0030 -0.3377  0.1787
  105OSM    C2F10746   0.488   0.748  10.610  0.4482  0.6572 -0.1984
  105OSM    H2F10747   0.525   0.706  10.707  0.0778 -0.6657 -0.6060
  105OSM    H2G10748   0.558   0.827  10.577  0.6647  1.3584  1.7903
  105OSM    C3F10749   0.484   0.629  10.507  0.0979 -0.4190 -0.0690
  105OSM    H3F10750   0.412   0.555  10.548 -1.2516  0.3863 -0.8902
  105OSM    H3G10751   0.583   0.580  10.511 -1.1875 -3.1978  0.3590
  105OSM    C4F10752   0.429   0.661  10.364  0.5054  0.6450 -0.1127
  105OSM    H4F10753   0.323   0.693  10.375  0.3333  1.9391 -3.9555
  105OSM    H4G10754   0.418   0.565  10.309 -0.7054  0.1724  0.8897
  105OSM    C5F10755   0.501   0.766  10.277 -0.3874  0.6813  0.9521
  105OSM    H5F10756   0.604   0.729  10.265  0.6243  2.7574  2.4544
  105OSM    H5G10757   0.502   0.863  10.331  0.4722  0.7943  0.7376
  105OSM    C6F10758   0.433   0.775  10.135  0.1363  0.2436 -0.1752
  105OSM    H6F10759   0.326   0.801  10.152 -0.6426 -2.3892 -0.5921
  105OSM    H6G10760   0.426   0.674  10.089 -1.0686  0.5225 -0.6281
  105OSM    C7F10761   0.500   0.866  10.042  0.0057 -0.6243  0.5808
  105OSM    H7F10762   0.594   0.816  10.013  0.7761  0.6298  0.8294
  105OSM    H7G10763   0.529   0.961  10.091 -0.4523  0.0124 -0.3525
  105OSM    C8F10764   0.410   0.915   9.924 -0.3657  0.4635  0.0316
  105OSM    H8F10765   0.450   1.010   9.882  1.3281 -0.3663 -0.3161
  105OSM    H8G10766   0.305   0.937   9.953 -0.5456  0.4489 -0.5942
  105OSM    C9F10767   0.391   0.815   9.812 -1.3323 -0.2929 -0.0910
  105OSM    H9F10768   0.319   0.739   9.845 -2.6888  0.8891 -0.2086
  105OSM   C10F10769   0.441   0.828   9.689 -0.9572  0.0228  0.1885
  105OSM   H10F10770   0.405   0.758   9.611 -0.5694 -1.2554  1.1294
  105OSM   C11F10771   0.541   0.933   9.643  0.1032  0.2774 -0.3639
  105OSM   H11F10772   0.635   0.893   9.599  1.2291 -0.1417  2.1967
  105OSM   H11G10773   0.580   1.000   9.723  0.8262 -0.4807 -0.0640
  105OSM   C12F10774   0.489   1.040   9.544 -0.1733  0.9342  0.2910
  105OSM   H12F10775   0.563   1.123   9.534 -1.0150  1.9815  2.3020
  105OSM   H12G10776   0.401   1.089   9.592 -0.2472  0.9651  0.1269
  105OSM   C13F10777   0.443   1.008   9.401  0.0274 -0.2559 -0.7391
  105OSM   H13F10778   0.419   1.110   9.364  1.1266 -0.0588 -0.9582
  105OSM   H13G10779   0.352   0.946   9.412  0.4753 -0.6191  1.1726
  105OSM   C14F10780   0.549   0.950   9.309 -0.3974  0.5450 -0.6590
  105OSM   H14F10781   0.590   0.852   9.342  2.5820  1.8577 -0.0878
  105OSM   H14G10782   0.637   1.018   9.302  2.2098 -2.5220 -0.0115
  105OSM   C15F10783   0.495   0.936   9.174  0.2883  0.0698  0.0773
  105OSM   H15F10784   0.447   1.031   9.141  2.6038  1.0282 -0.7846
  105OSM   H15G10785   0.403   0.876   9.184 -0.3083  1.0356  0.5497
  105OSM   C16F10786   0.584   0.882   9.069  0.3207 -0.5688  0.7238
  105OSM   H16F10787   0.601   0.777   9.101  0.1176 -0.1584  2.2732
  105OSM   H16G10788   0.686   0.925   9.074  1.3241 -2.5653 -1.2906
  105OSM   C17F10789   0.527   0.907   8.926 -0.2469  0.8955  0.0882
  105OSM   H17F10790   0.517   1.017   8.919  1.7585  1.2612  1.8973
  105OSM   H17G10791   0.427   0.865   8.902 -0.5913  1.6903  0.1046
  105OSM   C18F10792   0.619   0.858   8.811 -0.1343 -0.0945 -0.0460
  105OSM   H18F10793   0.720   0.904   8.801  0.2350 -1.0904 -1.1490
  105OSM   H18G10794   0.574   0.884   8.713 -1.5596  0.4305  0.7208
  105OSM   H18H10795   0.631   0.748   8.821  1.7077  0.1384  0.5733
  106OSM      N10796   1.159   5.612  11.239  0.1626  0.0222  0.1583
  106OSM    C1510797   1.294   5.641  11.292  0.1767 -1.3110  0.2251
  106OSM   H15A10798   1.349   5.665  11.203 -2.1862  0.6331 -0.8266
  106OSM   H15B10799   1.339   5.579  11.369  0.9681  1.6253  2.3186
  106OSM   H15C10800   1.287   5.729  11.355 -0.2602 -3.2212  3.0659
  106OSM    C1410801   1.072   5.558  11.350  0.2157 -0.2777 -0.2263
  106OSM   H14A10802   1.109   5.468  11.396 -0.4179 -0.0078  0.8660
  106OSM   H14B10803   0.971   5.535  11.318  0.1112  0.6302 -0.5775
  106OSM   H14C10804   1.057   5.628  11.431  1.1488 -2.6863  2.1632
  106OSM    C1310805   1.104   5.741  11.179  0.5650  0.3199 -0.2162
  106OSM   H13A10806   1.073   5.800  11.264 -1.0323 -0.8018  0.0175
  106OSM   H13B10807   1.006   5.734  11.134  0.6081  1.3821 -0.5051
  106OSM   H13C10808   1.179   5.789  11.119 -0.2318  1.2870 -0.4636
  106OSM    C1210809   1.178   5.503  11.132  0.1254  0.8523 -0.4707
  106OSM   H12A10810   1.080   5.461  11.118  0.0837  0.5256  0.7374
  106OSM   H12B10811   1.221   5.410  11.165  0.2750  0.9819 -0.2972
  106OSM    C1110812   1.245   5.544  11.000  0.0506  0.1350  0.7525
  106OSM   H11A10813   1.176   5.620  10.958  1.6493  0.6142 -1.1384
  106OSM   H11B10814   1.240   5.462  10.925  1.8501  1.5148 -0.9829
  106OSM      P10815   1.433   5.701  10.931 -0.1938  0.1297 -0.3370
  106OSM    O1310816   1.385   5.828  10.995 -0.2332 -0.2723  0.0117
  106OSM    O1410817   1.578   5.688  10.915 -0.4591  0.4471 -0.5286
  106OSM    O1110818   1.369   5.694  10.790 -0.6249 -0.7659  0.1273
  106OSM    O1210819   1.379   5.575  11.009  0.2504  0.0595  0.3304
  106OSM    C1S10820   1.420   5.594  10.696 -0.0572 -0.0833  0.3430
  106OSM    H1S10821   1.437   5.497  10.748 -1.4771 -0.5138  0.0490
  106OSM    H1T10822   1.514   5.635  10.654 -0.5123  0.4861 -0.1377
  106OSM     NF10823   1.375   5.443  10.510 -0.3941  0.2286  0.7059
  106OSM    HNF10824   1.420   5.465  10.424  0.5089  0.6888  1.2783
  106OSM    C2S10825   1.324   5.553  10.582  0.1285  0.2550 -0.2218
  106OSM    H2S10826   1.233   5.534  10.642 -0.4871  0.2375 -1.1449
  106OSM    C3S10827   1.304   5.672  10.487  0.2721  0.2769  0.6084
  106OSM    H3S10828   1.400   5.678  10.430  0.5158 -2.8183  0.5501
  106OSM     O310829   1.283   5.796  10.554  0.5067  0.1280 -0.0194
  106OSM    HO310830   1.304   5.779  10.646  0.7319 -1.4910 -0.3474
  106OSM    C4S10831   1.189   5.645  10.397  0.1570  0.1939 -1.2859
  106OSM    H4S10832   1.104   5.598  10.449 -0.8470  2.0792 -1.1505
  106OSM    C5S10833   1.166   5.662  10.265  0.1798  0.2706 -0.3325
  106OSM    H5S10834   1.245   5.710  10.206 -0.0978  0.7594 -0.3100
  106OSM    C6S10835   1.050   5.622  10.181  0.2894 -0.5827  0.4028
  106OSM    H6S10836   1.004   5.529  10.220 -0.5258 -0.3928 -0.0778
  106OSM    H6T10837   1.080   5.596  10.077 -0.3858  0.4117 -0.0543
  106OSM    C7S10838   0.931   5.719  10.193  0.0540 -0.1685 -0.1012
  106OSM    H7S10839   0.962   5.821  10.159 -1.4972 -0.2080 -1.8322
  106OSM    H7T10840   0.899   5.742  10.297  1.1193 -0.0312  0.2056
  106OSM    C8S10841   0.803   5.675  10.122  0.6750  0.2833  0.3147
  106OSM    H8S10842   0.710   5.725  10.154 -0.2499 -1.3735  0.3421
  106OSM    H8T10843   0.789   5.565  10.128 -1.1489  0.5223  1.1269
  106OSM    C9S10844   0.809   5.708   9.974  0.1417  0.6257 -0.4496
  106OSM    H9S10845   0.716   5.663   9.933 -0.6160  1.1003  0.6986
  106OSM    H9T10846   0.900   5.665   9.927 -0.8033  0.5832 -2.3577
  106OSM   C10S10847   0.808   5.854   9.935  0.6806  0.0550  0.8749
  106OSM   H10S10848   0.910   5.892   9.958  1.9806 -2.2195 -0.7299
  106OSM   H10T10849   0.723   5.906   9.984 -0.4668  0.4275 -1.3907
  106OSM   C11S10850   0.790   5.890   9.786  0.2152 -0.6804  0.5552
  106OSM   H11S10851   0.823   5.995   9.768 -1.9812 -0.2643 -1.7152
  106OSM   H11T10852   0.682   5.883   9.763  0.3702 -0.6209 -0.2185
  106OSM   C12S10853   0.869   5.806   9.686 -0.2876  0.3331 -0.2477
  106OSM   H12S10854   0.838   5.699   9.689 -2.0021  0.8299  0.8791
  106OSM   H12T10855   0.976   5.823   9.710 -0.4435 -0.9681  1.5210
  106OSM   C13S10856   0.863   5.858   9.542 -0.5080 -0.2499  0.0592
  106OSM   H13S10857   0.855   5.969   9.548 -0.1610 -0.2638  0.7402
  106OSM   H13T10858   0.780   5.811   9.485  0.4203 -0.3302 -1.2711
  106OSM   C14S10859   0.994   5.819   9.465 -0.0854  0.2579  0.1559
  106OSM   H14S10860   1.005   5.708   9.458  0.5115  0.4112 -1.7439
  106OSM   H14T10861   1.078   5.854   9.528  1.1489 -0.4828 -1.0408
  106OSM   C15S10862   0.999   5.877   9.318 -0.2563 -0.1065 -0.5382
  106OSM   H15S10863   1.099   5.854   9.277 -0.8220 -2.0523 -0.8918
  106OSM   H15T10864   0.986   5.988   9.318 -0.8968 -0.1774 -0.9072
  106OSM   C16S10865   0.888   5.820   9.227 -0.0754 -0.1723  0.5026
  106OSM   H16S10866   0.789   5.849   9.270 -0.2399  1.4292 -0.8416
  106OSM   H16T10867   0.876   5.710   9.239  0.5995 -0.1345  1.6248
  106OSM   C17S10868   0.900   5.866   9.078  0.6629 -0.2795  0.0294
  106OSM   H17S10869   0.928   5.974   9.079  1.7416 -0.5445  0.0775
  106OSM   H17T10870   0.809   5.843   9.020  1.6423 -1.0009 -1.2721
  106OSM   C18S10871   1.011   5.784   9.016 -0.2749  0.0702  0.4008
  106OSM   H18S10872   1.013   5.791   8.905  0.2492 -0.4213  0.3764
  106OSM   H18T10873   1.006   5.675   9.037 -0.2163  0.0977  0.5586
  106OSM   H18U10874   1.110   5.818   9.053 -0.2712  1.5786 -0.8913
  106OSM    C1F10875   1.372   5.316  10.559  0.3945  0.1636  0.1062
  106OSM     OF10876   1.301   5.283  10.657 -0.3111  0.3427  0.9560
  106OSM    C2F10877   1.435   5.202  10.476  0.0751 -0.1883 -0.1994
  106OSM    H2F10878   1.520   5.165  10.537 -0.0952 -2.8246 -1.4026
  106OSM    H2G10879   1.479   5.250  10.386 -1.4695  1.9826  0.1267
  106OSM    C3F10880   1.325   5.097  10.440  0.0004  0.2202 -0.7961
  106OSM    H3F10881   1.313   5.047  10.539 -0.2494  2.3857  0.3126
  106OSM    H3G10882   1.377   5.025  10.374  1.1804  0.6158 -0.3239
  106OSM    C4F10883   1.195   5.137  10.367  0.1767 -0.2760 -0.2350
  106OSM    H4F10884   1.226   5.154  10.261  1.6035 -0.7762  0.0700
  106OSM    H4G10885   1.151   5.228  10.413 -0.1840 -1.1144  1.1182
  106OSM    C5F10886   1.087   5.021  10.375 -1.2263  0.4008 -0.2883
  106OSM    H5F10887   1.056   4.998  10.479 -1.3314  0.0408 -0.3971
  106OSM    H5G10888   1.145   4.931  10.345  0.7565  0.7815  2.0570
  106OSM    C6F10889   0.968   5.044  10.286 -0.1994  0.6596  0.7724
  106OSM    H6F10890   1.011   5.032  10.185 -0.0577 -0.6306  0.9755
  106OSM    H6G10891   0.920   5.144  10.299 -3.0725 -0.3733 -1.0732
  106OSM    C7F10892   0.860   4.926  10.288 -0.2435 -0.2784  0.1924
  106OSM    H7F10893   0.814   4.925  10.389 -0.5916  0.6880  0.0465
  106OSM    H7G10894   0.924   4.835  10.285  0.3841  0.1867 -1.8753
  106OSM    C8F10895   0.760   4.923  10.171  0.1332  0.2111 -0.0533
  106OSM    H8F10896   0.702   4.828  10.170  0.6833 -0.1492 -1.6238
  106OSM    H8G10897   0.809   4.917  10.071 -0.6979 -0.6116 -0.4253
  106OSM    C9F10898   0.660   5.032  10.194 -0.0544 -0.1324  0.1511
  106OSM    H9F10899   0.613   5.025  10.293  0.6180  0.6359  0.5355
  106OSM   C10F10900   0.638   5.135  10.111  1.0555 -0.3630  0.3586
  106OSM   H10F10901   0.559   5.206  10.138 -0.2090 -1.6061  0.0318
  106OSM   C11F10902   0.699   5.166   9.978  0.0993  0.1155  0.6129
  106OSM   H11F10903   0.613   5.153   9.908  1.0168 -1.5885 -0.2924
  106OSM   H11G10904   0.780   5.095   9.948  0.5603  1.7835 -2.6054
  106OSM   C12F10905   0.746   5.315   9.968  0.4477  0.6580 -0.7111
  106OSM   H12F10906   0.777   5.354  10.067  2.5208  0.4576 -1.2358
  106OSM   H12G10907   0.663   5.383   9.938 -0.2905 -0.4409 -1.2053
  106OSM   C13F10908   0.866   5.316   9.877 -1.4652  0.6988  0.0518
  106OSM   H13F10909   0.913   5.215   9.876 -2.2440  0.2403 -3.5507
  106OSM   H13G10910   0.932   5.403   9.896 -2.2196  1.3435 -0.2375
  106OSM   C14F10911   0.816   5.335   9.731  0.1841  0.7433  0.3934
  106OSM   H14F10912   0.736   5.412   9.734  1.2062  1.8188  1.5415
  106OSM   H14G10913   0.763   5.242   9.700  1.5247  0.2543 -0.5347
  106OSM   C15F10914   0.921   5.386   9.634 -0.0430 -0.0582 -1.1613
  106OSM   H15F10915   1.020   5.340   9.655  0.2127 -0.0027 -2.1814
  106OSM   H15G10916   0.944   5.492   9.657  0.5960 -0.1446 -1.3918
  106OSM   C16F10917   0.877   5.383   9.483 -0.2196 -0.1862  0.0232
  106OSM   H16F10918   0.865   5.275   9.460 -1.1811  0.0359 -0.5740
  106OSM   H16G10919   0.959   5.429   9.424 -1.8615  3.0418  0.0628
  106OSM   C17F10920   0.758   5.465   9.466  0.0688 -0.1283 -0.2235
  106OSM   H17F10921   0.801   5.559   9.506 -2.8424  0.4596  1.8543
  106OSM   H17G10922   0.675   5.427   9.529 -1.0398 -0.8348 -2.0194
  106OSM   C18F10923   0.731   5.480   9.311  0.3636 -0.1176  0.4751
  106OSM   H18F10924   0.677   5.389   9.278  1.6257 -0.7697  0.1247
  106OSM   H18G10925   0.821   5.483   9.246 -0.4153 -0.4436 -0.6383
  106OSM   H18H10926   0.679   5.574   9.283  1.9926  0.7972  0.3749
  107OSM      N10927   2.528   3.770  11.048 -0.0751 -0.4497  0.2732
  107OSM    C1510928   2.543   3.629  11.002 -0.2399  0.0375 -0.3848
  107OSM   H15A10929   2.497   3.617  10.906 -0.3730  0.3298 -0.3603
  107OSM   H15B10930   2.491   3.565  11.071 -2.4132  0.1724 -1.8164
  107OSM   H15C10931   2.647   3.603  10.990  0.0386  1.6403 -1.8863
  107OSM    C1410932   2.395   3.821  10.992  0.0276  0.0769 -0.2037
  107OSM   H14A10933   2.385   3.922  11.028  0.1204 -0.1720  0.5568
  107OSM   H14B10934   2.315   3.759  11.030  1.0810  0.2632  2.5783
  107OSM   H14C10935   2.392   3.821  10.884 -0.7878  2.0574 -0.2187
  107OSM    C1310936   2.527   3.765  11.198 -0.6276  0.1558 -0.0016
  107OSM   H13A10937   2.521   3.863  11.244  0.9853 -0.1483  0.8977
  107OSM   H13B10938   2.619   3.714  11.222  0.4174 -0.0690 -3.8483
  107OSM   H13C10939   2.443   3.716  11.246 -0.7224  0.8845  0.6005
  107OSM    C1210940   2.635   3.855  10.983  0.0204 -0.3794  0.0481
  107OSM   H12A10941   2.609   3.960  10.989 -0.5530 -0.4476 -1.0893
  107OSM   H12B10942   2.629   3.834  10.878 -1.8594  0.2378 -0.0126
  107OSM    C1110943   2.780   3.834  11.024  0.4434  0.6039 -0.2214
  107OSM   H11A10944   2.768   3.837  11.135 -2.9499  1.6942 -0.4990
  107OSM   H11B10945   2.840   3.922  10.994  0.9583  1.3071  2.5265
  107OSM      P10946   2.928   3.674  10.883  0.2723  0.4233 -0.4122
  107OSM    O1310947   3.035   3.772  10.895 -0.0550 -0.1681 -0.6835
  107OSM    O1410948   2.961   3.530  10.869  0.3081  0.5491  0.3469
  107OSM    O1110949   2.844   3.711  10.756  0.5315  0.2736  0.2842
  107OSM    O1210950   2.824   3.705  11.000  0.6715  0.2981  0.1548
  107OSM    C1S10951   2.922   3.776  10.650  0.0662  0.7444 -0.4937
  107OSM    H1S10952   3.012   3.724  10.612 -0.1218  1.1684 -1.5404
  107OSM    H1T10953   2.944   3.877  10.690 -0.6732  0.5575  0.4160
  107OSM     NF10954   2.903   3.851  10.408  0.7466  0.8833  0.7128
  107OSM    HNF10955   2.899   3.950  10.401  1.5708  1.0941  2.5902
  107OSM    C2S10956   2.831   3.788  10.521  0.5606 -0.6017  0.3309
  107OSM    H2S10957   2.791   3.687  10.501 -0.2079 -0.3211  0.3883
  107OSM    C3S10958   2.705   3.869  10.561 -1.1385  0.1465  0.4324
  107OSM    H3S10959   2.720   3.965  10.614 -1.2551  0.5467 -0.2460
  107OSM     O310960   2.620   3.796  10.648  0.0859 -0.0160 -0.6612
  107OSM    HO310961   2.682   3.730  10.681 -0.2758  0.6816  1.5546
  107OSM    C4S10962   2.626   3.893  10.437  0.3467 -0.2509 -0.2829
  107OSM    H4S10963   2.573   3.804  10.399  0.7732 -0.6076 -0.0539
  107OSM    C5S10964   2.615   4.010  10.368  0.7401  0.3511 -0.3679
  107OSM    H5S10965   2.665   4.103  10.395 -0.8096  1.0196  0.3279
  107OSM    C6S10966   2.537   4.018  10.238 -0.0631 -0.4821  0.5432
  107OSM    H6S10967   2.565   4.109  10.181 -0.5701  0.1897  1.3489
  107OSM    H6T10968   2.427   4.030  10.248 -0.1856 -0.4624 -0.7337
  107OSM    C7S10969   2.562   3.907  10.140 -0.1224 -0.1994  0.3884
  107OSM    H7S10970   2.518   3.819  10.191 -0.5169  0.2775  0.8858
  107OSM    H7T10971   2.671   3.889  10.128  0.2917  2.4164 -0.4535
  107OSM    C8S10972   2.487   3.918  10.008 -1.1497  0.0702  0.4573
  107OSM    H8S10973   2.513   4.012   9.956 -1.6344  0.5651  1.0950
  107OSM    H8T10974   2.379   3.922  10.035 -0.6159  1.2693  2.6371
  107OSM    C9S10975   2.503   3.796   9.917 -0.1405 -0.0046 -0.0069
  107OSM    H9S10976   2.465   3.708   9.974  0.6527 -0.5534 -0.2937
  107OSM    H9T10977   2.611   3.778   9.896  0.3077 -0.3856  2.2844
  107OSM   C10S10978   2.425   3.803   9.786 -0.3830 -0.0528  0.3303
  107OSM   H10S10979   2.442   3.899   9.733  2.2746  0.6478  2.2346
  107OSM   H10T10980   2.317   3.800   9.807 -0.4034  0.4306  0.3029
  107OSM   C11S10981   2.462   3.691   9.685  0.3763  0.8153  0.5395
  107OSM   H11S10982   2.448   3.587   9.722 -2.4443 -0.0765 -2.6157
  107OSM   H11T10983   2.568   3.703   9.655  0.2381  0.6370 -0.0224
  107OSM   C12S10984   2.384   3.715   9.562  0.6246  0.3893 -0.1289
  107OSM   H12S10985   2.402   3.818   9.524 -0.9962  0.2896 -1.2687
  107OSM   H12T10986   2.274   3.715   9.578  0.4502 -1.3697 -0.9979
  107OSM   C13S10987   2.400   3.610   9.455  0.3046  0.4202 -0.6147
  107OSM   H13S10988   2.354   3.519   9.496 -0.6718  0.7509 -0.9573
  107OSM   H13T10989   2.506   3.576   9.449  0.0862 -0.1191 -1.8694
  107OSM   C14S10990   2.335   3.655   9.318  0.4371  0.9966  0.2506
  107OSM   H14S10991   2.382   3.749   9.283  1.2874  1.2825  2.0444
  107OSM   H14T10992   2.232   3.685   9.347  0.5793  1.6972  0.0430
  107OSM   C15S10993   2.341   3.548   9.208 -0.1587 -0.2563  0.7352
  107OSM   H15S10994   2.271   3.573   9.125  0.0291 -4.4230 -0.9410
  107OSM   H15T10995   2.306   3.445   9.234  0.3750 -1.0081 -1.3072
  107OSM   C16S10996   2.481   3.541   9.148 -0.5106  0.1050 -0.1787
  107OSM   H16S10997   2.553   3.492   9.217 -1.0106 -2.3558 -1.2844
  107OSM   H16T10998   2.505   3.645   9.120  0.6329  0.2759  1.2909
  107OSM   C17S10999   2.483   3.453   9.025  0.4633 -0.4955  0.0950
  107OSM   H17S11000   2.419   3.490   8.942 -2.4394 -0.9713  1.9707
  107OSM   H17T11001   2.454   3.348   9.048  2.8336 -2.1208 -3.5313
  107OSM   C18S11002   2.627   3.438   8.973  0.2767 -0.3530  0.2847
  107OSM   H18S11003   2.632   3.365   8.889  0.5381  2.5593 -2.4235
  107OSM   H18T11004   2.689   3.408   9.060  1.7209 -3.9790 -1.7757
  107OSM   H18U11005   2.672   3.531   8.933  0.8345 -0.9946 -0.6196
  107OSM    C1F11006   2.975   3.778  10.325  0.3721 -0.0645 -0.5393
  107OSM     OF11007   2.967   3.656  10.340 -0.0090  0.4492  0.4325
  107OSM    C2F11008   3.055   3.839  10.219 -0.2003  0.6498  0.0344
  107OSM    H2F11009   3.035   3.780  10.127 -0.4657 -0.9857  1.1028
  107OSM    H2G11010   3.164   3.846  10.236  0.2187  1.8373 -2.5342
  107OSM    C3F11011   3.002   3.988  10.203 -1.1814  0.0093  0.2836
  107OSM    H3F11012   3.026   4.051  10.291  0.8869 -1.1094  0.5955
  107OSM    H3G11013   2.891   3.981  10.198 -1.1591  0.8239 -1.9566
  107OSM    C4F11014   3.049   4.053  10.067  0.4378  0.3432 -0.5098
  107OSM    H4F11015   3.010   3.986   9.987  2.4666  0.0288 -1.3177
  107OSM    H4G11016   3.160   4.051  10.057  0.4928  1.7899 -0.3158
  107OSM    C5F11017   3.009   4.197  10.039  0.3966 -0.2401  0.0455
  107OSM    H5F11018   3.042   4.236   9.940 -0.1362 -0.0688 -0.0655
  107OSM    H5G11019   3.057   4.267  10.111  0.3542 -0.0585 -0.1021
  107OSM    C6F11020   2.858   4.223  10.033 -0.8690 -0.1027 -0.9624
  107OSM    H6F11021   2.840   4.332  10.031  0.6546  0.2012  0.0648
  107OSM    H6G11022   2.823   4.189  10.133  1.0508 -0.8948 -0.5128
  107OSM    C7F11023   2.778   4.149   9.929  0.4357  0.0839 -0.1348
  107OSM    H7F11024   2.670   4.165   9.953 -0.3004 -1.8258 -1.9366
  107OSM    H7G11025   2.815   4.045   9.929  0.7633  0.1586  1.7159
  107OSM    C8F11026   2.811   4.188   9.780  0.3418 -0.3964  0.1987
  107OSM    H8F11027   2.915   4.170   9.744 -0.7172 -0.4339 -3.1205
  107OSM    H8G11028   2.794   4.298   9.780 -2.1567 -0.7195 -0.4500
  107OSM    C9F11029   2.704   4.125   9.689 -0.2160  0.3625 -0.1692
  107OSM    H9F11030   2.600   4.156   9.710 -0.2945  0.5985 -0.9043
  107OSM   C10F11031   2.724   4.036   9.587 -0.6546 -0.2274 -0.3240
  107OSM   H10F11032   2.637   3.987   9.542 -0.0187 -1.1003 -0.6079
  107OSM   C11F11033   2.860   3.980   9.550  0.2990 -0.6571  0.2271
  107OSM   H11F11034   2.936   3.982   9.631  1.0808  1.6764 -0.4663
  107OSM   H11G11035   2.906   4.035   9.465 -1.7449 -0.1441 -0.6131
  107OSM   C12F11036   2.855   3.837   9.507  0.2415  0.1961 -0.3929
  107OSM   H12F11037   2.824   3.780   9.598 -0.7954  1.2808 -0.0380
  107OSM   H12G11038   2.960   3.805   9.490  0.5561  0.9253  0.1365
  107OSM   C13F11039   2.749   3.807   9.395 -0.2271  0.2454 -0.1227
  107OSM   H13F11040   2.646   3.814   9.436 -0.0520 -2.7554  1.0854
  107OSM   H13G11041   2.760   3.698   9.375 -1.5235  0.0202  0.2516
  107OSM   C14F11042   2.780   3.886   9.271  0.8036  0.4219  0.1643
  107OSM   H14F11043   2.887   3.867   9.248  1.0506  1.5887  0.2801
  107OSM   H14G11044   2.764   3.993   9.298  0.6299  0.6438 -0.7898
  107OSM   C15F11045   2.696   3.841   9.146 -0.2790  0.3096  0.4667
  107OSM   H15F11046   2.597   3.847   9.196  0.5193 -2.4753  2.6398
  107OSM   H15G11047   2.716   3.736   9.117  0.9839  0.1477  1.7739
  107OSM   C16F11048   2.719   3.935   9.021 -0.0410  0.3244  0.5462
  107OSM   H16F11049   2.824   3.924   8.988  0.3227  0.4618  1.6030
  107OSM   H16G11050   2.713   4.039   9.061  0.2232 -0.4016  2.5829
  107OSM   C17F11051   2.615   3.910   8.909  0.1618  0.0442 -0.5014
  107OSM   H17F11052   2.521   3.918   8.967  1.5195  3.0542  1.5536
  107OSM   H17G11053   2.627   3.804   8.877  0.5598 -1.3485  3.6348
  107OSM   C18F11054   2.598   4.005   8.794 -0.2908 -0.6554 -0.8846
  107OSM   H18F11055   2.545   3.955   8.710  0.7567  0.5029 -2.2836
  107OSM   H18G11056   2.695   4.044   8.757  0.2801 -2.0211 -0.8965
  107OSM   H18H11057   2.542   4.093   8.832  0.0978 -0.4805 -0.7082
  108OSM      N11058   5.878   0.835  10.815 -0.9498 -0.6342 -0.5086
  108OSM    C1511059   5.996   0.802  10.900  0.6494  0.1551  0.2113
  108OSM   H15A11060   5.970   0.845  10.995 -1.4657  1.8989 -1.0476
  108OSM   H15B11061   6.088   0.841  10.859 -0.2663  1.3727 -0.7893
  108OSM   H15C11062   6.001   0.696  10.919 -2.1876  0.0120  0.6881
  108OSM    C1411063   5.894   0.811  10.674 -0.0072  1.0359  0.2523
  108OSM   H14A11064   5.972   0.868  10.626 -0.1987  0.8897 -0.2393
  108OSM   H14B11065   5.800   0.838  10.627 -0.5464 -0.5332  0.3955
  108OSM   H14C11066   5.920   0.710  10.650 -1.2802  1.1943 -2.0437
  108OSM    C1311067   5.758   0.751  10.860 -0.0231  0.5814 -0.0530
  108OSM   H13A11068   5.795   0.649  10.867  2.0064  1.0299 -2.7286
  108OSM   H13B11069   5.678   0.752  10.788  1.7291 -0.0931 -2.1029
  108OSM   H13C11070   5.724   0.789  10.955  3.0651 -0.8511  1.8020
  108OSM    C1211071   5.857   0.991  10.837 -0.1181  0.2456  0.6036
  108OSM   H12A11072   5.776   1.026  10.774  0.2693  0.7951  0.4035
  108OSM   H12B11073   5.938   1.044  10.789 -0.8234  0.4798 -0.3618
  108OSM    C1111074   5.835   1.036  10.980  0.1747 -0.1664 -0.1478
  108OSM   H11A11075   5.839   1.146  10.991 -1.2248  0.0396 -1.2863
  108OSM   H11B11076   5.915   1.009  11.051  1.9028  1.1985 -1.4991
  108OSM      P11077   5.566   1.053  10.976 -0.0363 -0.0738  0.0764
  108OSM    O1311078   5.464   0.954  10.995 -0.2406 -1.1182  0.3191
  108OSM    O1411079   5.564   1.180  11.054 -0.0321  0.5931  0.0836
  108OSM    O1111080   5.586   1.097  10.824  0.0714  0.5880  0.6790
  108OSM    O1211081   5.706   0.992  11.017 -0.4237  0.3549 -0.1395
  108OSM    C1S11082   5.471   1.138  10.756  0.3655 -0.3981 -0.2000
  108OSM    H1S11083   5.462   1.246  10.778  0.7614 -0.4334  0.1355
  108OSM    H1T11084   5.378   1.087  10.789  0.5780 -1.3953 -1.0730
  108OSM     NF11085   5.386   1.195  10.525 -0.3929  0.0319  1.0246
  108OSM    HNF11086   5.307   1.147  10.490 -0.4766  0.5607  0.4767
  108OSM    C2S11087   5.488   1.127  10.600 -0.8182 -0.0579 -0.0291
  108OSM    H2S11088   5.589   1.162  10.570 -0.6225 -0.8398 -0.2770
  108OSM    C3S11089   5.492   0.981  10.566  0.2040 -0.0349  0.0272
  108OSM    H3S11090   5.389   0.940  10.572 -0.8675  2.4471 -0.4793
  108OSM     O311091   5.583   0.913  10.650  0.1998  0.2749 -0.1924
  108OSM    HO311092   5.598   0.979  10.718 -1.1333 -0.4687  0.8978
  108OSM    C4S11093   5.549   0.958  10.418  0.1840 -0.3124  0.0876
  108OSM    H4S11094   5.657   0.973  10.409  0.2018 -1.2867 -2.0197
  108OSM    C5S11095   5.474   0.930  10.308  0.0473 -0.7503  0.2914
  108OSM    H5S11096   5.368   0.905  10.315 -0.1789 -0.3377 -1.1845
  108OSM    C6S11097   5.533   0.909  10.167 -0.2113 -0.3867 -0.2069
  108OSM    H6S11098   5.518   0.803  10.138  2.8199 -1.1905  0.7608
  108OSM    H6T11099   5.643   0.924  10.160 -0.3550  0.1158 -1.6638
  108OSM    C7S11100   5.471   0.991  10.057 -0.7841 -0.3406  0.3137
  108OSM    H7S11101   5.477   1.101  10.072  0.0241 -0.4274  0.6638
  108OSM    H7T11102   5.365   0.959  10.050 -0.2135 -2.0335 -1.4258
  108OSM    C8S11103   5.531   0.952   9.921 -0.1296  0.2511  0.2243
  108OSM    H8S11104   5.517   0.845   9.894 -0.8124  0.2681  0.4956
  108OSM    H8T11105   5.640   0.967   9.932 -0.1073  1.0438 -0.8515
  108OSM    C9S11106   5.486   1.043   9.802  0.2644  0.3258 -0.7649
  108OSM    H9S11107   5.476   1.146   9.844  2.4895  1.2723 -2.3802
  108OSM    H9T11108   5.392   1.013   9.752  0.7150 -1.0078 -0.8564
  108OSM   C10S11109   5.592   1.030   9.691 -0.6011 -0.9692  0.5635
  108OSM   H10S11110   5.648   0.936   9.706 -0.2701 -0.9131 -0.2228
  108OSM   H10T11111   5.667   1.106   9.723 -0.6252 -1.7205  2.4886
  108OSM   C11S11112   5.529   1.050   9.553  0.0448  0.0830 -0.3401
  108OSM   H11S11113   5.456   1.134   9.546 -0.3622 -0.0372  1.7421
  108OSM   H11T11114   5.468   0.962   9.523 -0.4919  0.7375 -1.2429
  108OSM   C12S11115   5.630   1.058   9.442 -0.9680  0.3266  0.1034
  108OSM   H12S11116   5.708   0.978   9.441 -0.3497  0.9026  0.7487
  108OSM   H12T11117   5.687   1.153   9.451  1.5428 -1.0495 -0.1951
  108OSM   C13S11118   5.564   1.059   9.300  0.1230 -0.2111  0.2210
  108OSM   H13S11119   5.503   1.151   9.304  1.8477  1.2177 -2.9059
  108OSM   H13T11120   5.498   0.972   9.278 -0.6439  0.2654  0.6379
  108OSM   C14S11121   5.658   1.073   9.180 -0.7836  0.0307  0.3631
  108OSM   H14S11122   5.734   0.993   9.192 -0.8188  0.3545  3.7595
  108OSM   H14T11123   5.721   1.164   9.190  0.0998 -0.4189 -0.8136
  108OSM   C15S11124   5.589   1.074   9.043 -0.2757  0.4429 -0.7402
  108OSM   H15S11125   5.505   1.148   9.043 -1.7117 -1.0858 -2.3182
  108OSM   H15T11126   5.541   0.977   9.016 -1.9210  0.3665  2.0320
  108OSM   C16S11127   5.688   1.107   8.928 -0.6336 -0.0967 -0.2675
  108OSM   H16S11128   5.750   1.021   8.894  1.8358  1.5226 -0.0369
  108OSM   H16T11129   5.746   1.194   8.964 -1.3031  0.8703 -1.4484
  108OSM   C17S11130   5.606   1.142   8.809 -0.0236  0.3634  0.3016
  108OSM   H17S11131   5.544   1.227   8.846 -1.2752 -1.2687  2.1597
  108OSM   H17T11132   5.540   1.057   8.780  1.6409 -0.4379 -1.3015
  108OSM   C18S11133   5.687   1.185   8.692 -0.9140  0.0687  0.1153
  108OSM   H18S11134   5.755   1.102   8.663 -0.9425  0.7793 -2.1205
  108OSM   H18T11135   5.757   1.270   8.710 -0.8316 -0.1417  0.8187
  108OSM   H18U11136   5.630   1.219   8.604  1.3338  1.0451 -1.0468
  108OSM    C1F11137   5.390   1.333  10.523  0.4970 -0.6822  0.3474
  108OSM     OF11138   5.489   1.388  10.566 -0.0331  0.4842  0.5332
  108OSM    C2F11139   5.264   1.410  10.479 -0.4753 -0.3043  0.5541
  108OSM    H2F11140   5.289   1.518  10.469  0.8978 -0.7345 -1.2372
  108OSM    H2G11141   5.175   1.403  10.544 -3.1358  1.9287 -2.5643
  108OSM    C3F11142   5.214   1.359  10.339 -0.5546  0.5924  0.2537
  108OSM    H3F11143   5.116   1.407  10.321  0.0245  1.9791  0.6359
  108OSM    H3G11144   5.204   1.249  10.343 -1.3742  0.6207 -0.6854
  108OSM    C4F11145   5.306   1.386  10.218 -0.3905  0.0104 -0.6073
  108OSM    H4F11146   5.390   1.313  10.214 -1.2930 -1.0434 -0.7426
  108OSM    H4G11147   5.347   1.489  10.222  2.5068 -1.0651  0.9108
  108OSM    C5F11148   5.234   1.372  10.082 -0.7014  0.2359 -0.4211
  108OSM    H5F11149   5.151   1.446  10.073  0.4837  1.6557 -0.1600
  108OSM    H5G11150   5.198   1.267  10.083  0.6566 -0.2765  2.0210
  108OSM    C6F11151   5.339   1.403   9.978 -0.2649 -0.1017 -0.2190
  108OSM    H6F11152   5.427   1.334   9.984  1.0754  1.2557 -2.8433
  108OSM    H6G11153   5.385   1.502   9.998  0.1077 -0.0351 -1.3715
  108OSM    C7F11154   5.290   1.394   9.829  0.2327  0.3623 -0.3533
  108OSM    H7F11155   5.218   1.478   9.816  0.5883  0.9584  1.2745
  108OSM    H7G11156   5.237   1.297   9.819 -0.6810  0.8098  0.0013
  108OSM    C8F11157   5.402   1.392   9.727  0.1851 -0.5691  0.1102
  108OSM    H8F11158   5.378   1.326   9.641 -0.7788  2.7764 -2.3569
  108OSM    H8G11159   5.489   1.337   9.772  0.9659 -1.0327 -1.8751
  108OSM    C9F11160   5.428   1.533   9.684  1.2398 -0.3951 -0.0463
  108OSM    H9F11161   5.457   1.600   9.766  0.0207  0.7297 -0.5137
  108OSM   C10F11162   5.415   1.568   9.556  0.0218 -0.3057  0.4923
  108OSM   H10F11163   5.441   1.673   9.538 -2.3080  0.0199 -1.5751
  108OSM   C11F11164   5.385   1.480   9.431  0.1995  0.2522  0.2684
  108OSM   H11F11165   5.332   1.385   9.451  0.0474 -0.5190 -3.2334
  108OSM   H11G11166   5.484   1.455   9.386  1.3635  3.0240  1.0530
  108OSM   C12F11167   5.333   1.560   9.307 -0.1809  0.5604 -0.3624
  108OSM   H12F11168   5.403   1.636   9.266 -0.4841  0.6421 -0.7281
  108OSM   H12G11169   5.241   1.613   9.340  1.0909  0.3046  4.5024
  108OSM   C13F11170   5.296   1.471   9.192  0.0138  0.2240 -0.1026
  108OSM   H13F11171   5.217   1.403   9.233  1.6518 -1.4836  0.3967
  108OSM   H13G11172   5.385   1.412   9.163 -1.2998 -1.1419 -1.5612
  108OSM   C14F11173   5.223   1.540   9.071 -0.7504  0.6341 -0.3921
  108OSM   H14F11174   5.284   1.623   9.031  0.4909 -1.5397 -3.4128
  108OSM   H14G11175   5.122   1.577   9.101 -1.3978 -0.2271 -1.4431
  108OSM   C15F11176   5.203   1.436   8.951  0.0019  0.7595 -0.1779
  108OSM   H15F11177   5.132   1.472   8.874  0.7559  0.0171 -1.2441
  108OSM   H15G11178   5.161   1.340   8.989  2.0462  0.2186  0.8975
  108OSM   C16F11179   5.335   1.414   8.886  0.0211  0.0983  0.0865
  108OSM   H16F11180   5.333   1.323   8.822 -0.0522 -0.8669  1.4371
  108OSM   H16G11181   5.424   1.399   8.951 -0.5125  0.6711  0.9624
  108OSM   C17F11182   5.375   1.525   8.787 -0.3654  0.0541  0.6605
  108OSM   H17F11183   5.392   1.626   8.832 -0.8581 -0.1440  1.3091
  108OSM   H17G11184   5.308   1.543   8.700  1.9089 -0.3232 -1.2746
  108OSM   C18F11185   5.513   1.490   8.714  0.0040 -0.5252  0.5095
  108OSM   H18F11186   5.597   1.495   8.786  1.2601 -1.0615 -0.8576
  108OSM   H18G11187   5.533   1.566   8.636 -2.6720  1.4453  1.5776
  108OSM   H18H11188   5.507   1.387   8.671  2.4317  0.3111 -2.2111
  109OSM      N11189   5.918   1.562  11.162 -0.1329 -0.6839 -0.5362
  109OSM    C1511190   5.782   1.618  11.205 -0.3345 -0.4325  0.5641
  109OSM   H15A11191   5.709   1.587  11.131  1.6166 -0.0428 -1.6538
  109OSM   H15B11192   5.793   1.725  11.197  0.9160 -0.3877  2.2866
  109OSM   H15C11193   5.772   1.600  11.311  1.1349  0.9417  0.9816
  109OSM    C1411194   6.025   1.625  11.247  0.0971 -0.1369 -0.4800
  109OSM   H14A11195   6.118   1.595  11.201  0.6103 -0.6225  0.8158
  109OSM   H14B11196   6.009   1.593  11.349 -2.6060 -2.0742 -1.3737
  109OSM   H14C11197   6.022   1.733  11.246  1.3769 -0.0569  0.8535
  109OSM    C1311198   5.928   1.415  11.176 -0.3574 -0.1129  0.3421
  109OSM   H13A11199   6.022   1.364  11.162 -0.4399 -0.0340 -0.5428
  109OSM   H13B11200   5.858   1.360  11.116 -0.6443 -0.9844  1.4337
  109OSM   H13C11201   5.909   1.387  11.279  3.0575 -2.7554  0.4542
  109OSM    C1211202   5.919   1.612  11.015 -0.7346 -0.1783  0.4823
  109OSM   H12A11203   5.894   1.717  11.012  0.9329  0.2381 -0.3580
  109OSM   H12B11204   5.846   1.562  10.954  0.6170 -1.1237 -0.4264
  109OSM    C1111205   6.057   1.583  10.935 -0.6331 -0.0437  0.0619
  109OSM   H11A11206   6.142   1.624  10.993 -0.4257 -1.3823  0.7491
  109OSM   H11B11207   6.061   1.634  10.836  0.3144  1.2377  0.7252
  109OSM      P11208   6.001   1.363  10.810 -0.0493  0.2029  0.2951
  109OSM    O1311209   6.043   1.221  10.801  0.1911  0.2184  0.1422
  109OSM    O1411210   5.859   1.392  10.813  0.3438  0.5845  0.5126
  109OSM    O1111211   6.056   1.436  10.685 -0.0446 -0.5850  0.3757
  109OSM    O1211212   6.081   1.441  10.925 -0.0642 -0.1482  0.4294
  109OSM    C1S11213   6.196   1.428  10.651 -0.5209 -0.2297 -1.5052
  109OSM    H1S11214   6.233   1.323  10.654  0.3138 -0.0238 -3.1352
  109OSM    H1T11215   6.252   1.488  10.726 -3.4527 -0.5841  1.1620
  109OSM     NF11216   6.358   1.476  10.472 -0.4089 -0.3125  0.7170
  109OSM    HNF11217   6.422   1.553  10.473  0.6946 -1.1231 -1.5880
  109OSM    C2S11218   6.218   1.493  10.514 -0.4658 -0.1346 -0.6922
  109OSM    H2S11219   6.142   1.446  10.447 -1.9372  2.1609 -0.7315
  109OSM    C3S11220   6.179   1.639  10.512 -0.4970 -0.2783  0.0387
  109OSM    H3S11221   6.248   1.697  10.577 -0.6095 -0.1872  0.0768
  109OSM     O311222   6.053   1.668  10.571  0.1809  0.1383 -0.1530
  109OSM    HO311223   6.044   1.585  10.619  3.3174  0.7133  1.7420
  109OSM    C4S11224   6.194   1.688  10.369  0.4220 -0.3992  0.1161
  109OSM    H4S11225   6.148   1.629  10.288 -0.3572 -1.0124  0.9893
  109OSM    C5S11226   6.260   1.799  10.335 -0.2990  0.2623 -0.2035
  109OSM    H5S11227   6.305   1.857  10.416  0.0772  0.2015 -0.3679
  109OSM    C6S11228   6.275   1.859  10.197  0.1798 -0.1407  0.2253
  109OSM    H6S11229   6.251   1.967  10.205 -2.5792 -0.6432 -0.3944
  109OSM    H6T11230   6.202   1.818  10.124  1.0642 -1.6760  0.1700
  109OSM    C7S11231   6.418   1.830  10.139 -1.2904  0.1564 -0.1558
  109OSM    H7S11232   6.426   1.727  10.097  0.3535 -0.0251  0.4999
  109OSM    H7T11233   6.494   1.842  10.219 -2.3852 -0.9559  1.0940
  109OSM    C8S11234   6.448   1.937  10.027  0.1582  0.0998 -0.1012
  109OSM    H8S11235   6.558   1.931  10.014  0.0166 -0.1829 -1.2563
  109OSM    H8T11236   6.419   2.037  10.064 -0.9624  0.5085 -1.9478
  109OSM    C9S11237   6.370   1.911   9.900  0.6954  0.0615 -0.7313
  109OSM    H9S11238   6.265   1.944   9.915  1.0560  0.5918  0.8648
  109OSM    H9T11239   6.374   1.802   9.883  1.1792 -0.2014  0.9239
  109OSM   C10S11240   6.424   1.990   9.779  0.3853  0.1451 -0.1600
  109OSM   H10S11241   6.533   1.971   9.780  0.2977 -0.3914  1.1630
  109OSM   H10T11242   6.407   2.096   9.809  0.3898 -0.2070  1.1538
  109OSM   C11S11243   6.357   1.952   9.650  0.0092 -0.1609  0.4506
  109OSM   H11S11244   6.247   1.962   9.658 -0.0378  1.1121 -1.2350
  109OSM   H11T11245   6.387   1.847   9.631 -2.0703 -0.5921 -0.7183
  109OSM   C12S11246   6.400   2.054   9.548 -0.2392 -0.4195 -0.0041
  109OSM   H12S11247   6.510   2.040   9.546 -0.2406 -1.5225  2.7837
  109OSM   H12T11248   6.373   2.157   9.579  1.8143 -0.3785  1.9658
  109OSM   C13S11249   6.342   2.042   9.402  0.4136  0.2959 -0.4599
  109OSM   H13S11250   6.232   2.049   9.417  0.3252 -1.5477 -0.0162
  109OSM   H13T11251   6.377   1.946   9.359  3.9033  1.2028  0.0881
  109OSM   C14S11252   6.400   2.141   9.302 -0.2560  0.1915  0.4965
  109OSM   H14S11253   6.398   2.245   9.342 -2.7431  0.5854 -0.4675
  109OSM   H14T11254   6.316   2.137   9.229 -1.0298 -1.6380  1.4112
  109OSM   C15S11255   6.537   2.095   9.244  0.5003 -0.2956  0.6320
  109OSM   H15S11256   6.550   1.985   9.261  0.4534 -0.2704  0.8423
  109OSM   H15T11257   6.604   2.149   9.314 -1.0059  1.6836  0.6216
  109OSM   C16S11258   6.559   2.130   9.093  0.2254  0.3422  0.2370
  109OSM   H16S11259   6.524   2.232   9.067  0.2565 -0.2107 -2.1821
  109OSM   H16T11260   6.488   2.073   9.030  0.5860 -0.0202  0.1547
  109OSM   C17S11261   6.710   2.125   9.056  0.3893  0.6886 -0.1822
  109OSM   H17S11262   6.739   2.018   9.059 -0.0613  0.5804  0.4104
  109OSM   H17T11263   6.761   2.195   9.125 -1.5706  2.0620 -0.0470
  109OSM   C18S11264   6.731   2.164   8.909  0.2886  1.1395 -0.4113
  109OSM   H18S11265   6.841   2.153   8.896  0.5245 -6.5258  2.4986
  109OSM   H18T11266   6.685   2.261   8.882 -1.0834  0.2526 -1.3737
  109OSM   H18U11267   6.681   2.086   8.847  1.0722  0.3823 -0.1182
  109OSM    C1F11268   6.414   1.370  10.425  0.1321  0.7746 -0.5067
  109OSM     OF11269   6.353   1.262  10.427 -0.4027  0.2309 -0.5426
  109OSM    C2F11270   6.553   1.378  10.378 -0.1916  0.3163  0.0335
  109OSM    H2F11271   6.614   1.334  10.460  1.0948  1.8811 -0.0450
  109OSM    H2G11272   6.581   1.484  10.362 -0.0228  0.0867 -1.2384
  109OSM    C3F11273   6.585   1.305  10.249  0.8005 -0.1141 -0.0532
  109OSM    H3F11274   6.538   1.205  10.245 -0.3390  0.4457 -2.2229
  109OSM    H3G11275   6.693   1.276  10.250  0.5525 -1.4421 -2.7300
  109OSM    C4F11276   6.552   1.402  10.130 -0.2828 -0.0453  0.3375
  109OSM    H4F11277   6.589   1.499  10.167  0.2485 -0.3549  0.6285
  109OSM    H4G11278   6.443   1.398  10.108 -0.5754  0.2111  1.6530
  109OSM    C5F11279   6.639   1.366  10.015  0.4751  0.2779  0.2455
  109OSM    H5F11280   6.623   1.260   9.985 -1.0331  0.0560  1.6560
  109OSM    H5G11281   6.745   1.382  10.042  0.3357  1.1735  0.3008
  109OSM    C6F11282   6.601   1.446   9.882  0.1019 -0.3860 -0.1923
  109OSM    H6F11283   6.619   1.552   9.909 -1.4151 -0.4862  1.4533
  109OSM    H6G11284   6.493   1.425   9.866  0.6204 -1.2060 -3.1375
  109OSM    C7F11285   6.677   1.405   9.755  0.4538  0.1552 -0.1108
  109OSM    H7F11286   6.653   1.298   9.739  0.0616  0.5425 -2.5220
  109OSM    H7G11287   6.785   1.425   9.773 -0.2165  3.9757  0.3479
  109OSM    C8F11288   6.637   1.466   9.624 -0.1259  0.3562  1.1264
  109OSM    H8F11289   6.529   1.441   9.616 -0.1001  0.2917  0.9665
  109OSM    H8G11290   6.695   1.412   9.546 -1.3086 -0.3840  0.7305
  109OSM    C9F11291   6.664   1.615   9.602  0.1338 -0.5079  0.0161
  109OSM    H9F11292   6.665   1.674   9.695 -0.6487  0.0875 -0.3431
  109OSM   C10F11293   6.678   1.680   9.481  0.1902  0.1318 -0.9179
  109OSM   H10F11294   6.705   1.786   9.478  1.2084  0.0165  1.6207
  109OSM   C11F11295   6.665   1.597   9.359 -0.1794 -0.2542 -0.0919
  109OSM   H11F11296   6.577   1.529   9.356  0.5749 -1.2397 -1.3098
  109OSM   H11G11297   6.752   1.529   9.348 -0.9930 -1.4525  0.5468
  109OSM   C12F11298   6.636   1.687   9.232  0.2024  0.2608 -0.0202
  109OSM   H12F11299   6.698   1.779   9.224 -1.3056  1.6252  2.6691
  109OSM   H12G11300   6.531   1.722   9.244  0.3146  1.0967 -1.2778
  109OSM   C13F11301   6.638   1.597   9.105 -0.1267  0.5543 -0.0952
  109OSM   H13F11302   6.595   1.496   9.124  1.3880  0.2022  1.8453
  109OSM   H13G11303   6.743   1.566   9.089 -0.8214 -0.5832 -2.9172
  109OSM   C14F11304   6.568   1.655   8.978  0.2741 -0.3747 -0.1367
  109OSM   H14F11305   6.600   1.593   8.892 -0.7570  0.8353 -1.4544
  109OSM   H14G11306   6.611   1.757   8.972  0.6853 -0.4071  1.5920
  109OSM   C15F11307   6.417   1.651   8.985 -0.8420 -0.1207 -0.3805
  109OSM   H15F11308   6.395   1.709   9.077  0.0274 -1.4877  0.7262
  109OSM   H15G11309   6.379   1.547   8.994 -0.2152 -0.3171  0.1216
  109OSM   C16F11310   6.345   1.722   8.876 -0.1696 -0.5502 -0.1720
  109OSM   H16F11311   6.387   1.824   8.889  0.7027 -0.7017 -1.5852
  109OSM   H16G11312   6.235   1.723   8.892  0.0803  1.9569  2.0976
  109OSM   C17F11313   6.354   1.675   8.734  0.0364 -0.3297  0.4844
  109OSM   H17F11314   6.301   1.578   8.724 -1.2537  0.2202  1.6080
  109OSM   H17G11315   6.462   1.654   8.718  0.0849  0.3062 -0.0799
  109OSM   C18F11316   6.301   1.775   8.636  1.0177 -0.0059  0.1719
  109OSM   H18F11317   6.364   1.866   8.646  0.3300  0.4124  0.7971
  109OSM   H18G11318   6.196   1.804   8.660  0.4942 -1.9528  0.3971
  109OSM   H18H11319   6.298   1.734   8.533 -0.1933  1.2265 -0.3215
  110OSM      N11320   1.816   0.437  11.279 -0.3496 -0.0646  0.7508
  110OSM    C1511321   1.919   0.331  11.301  0.0074  0.0185  0.0144
  110OSM   H15A11322   1.924   0.260  11.221 -0.8897 -1.2909  1.0858
  110OSM   H15B11323   1.894   0.272  11.388 -0.0839 -0.6209 -0.4428
  110OSM   H15C11324   2.015   0.380  11.316 -0.1895  0.6955 -0.8601
  110OSM    C1411325   1.809   0.521  11.405  0.1322  0.9257 -0.1401
  110OSM   H14A11326   1.905   0.558  11.437  0.8460 -1.7517  1.1759
  110OSM   H14B11327   1.778   0.455  11.484 -0.5134 -0.4607 -1.4966
  110OSM   H14C11328   1.738   0.601  11.398 -1.5825 -0.4694  0.5605
  110OSM    C1311329   1.866   0.533  11.175 -0.3649 -0.0344  0.1791
  110OSM   H13A11330   1.786   0.603  11.158  0.0393  0.4703  0.3291
  110OSM   H13B11331   1.881   0.487  11.078 -1.3838  1.6929 -0.8582
  110OSM   H13C11332   1.956   0.588  11.197 -0.6788  0.3024  0.6333
  110OSM    C1211333   1.686   0.385  11.232 -0.5726 -0.2544  0.1295
  110OSM   H12A11334   1.632   0.474  11.205  0.7741  0.1259 -1.4632
  110OSM   H12B11335   1.659   0.334  11.323  2.3607  0.5508  1.5510
  110OSM    C1111336   1.682   0.297  11.111  0.4505 -0.2520 -0.3333
  110OSM   H11A11337   1.577   0.260  11.107  0.2535  0.2891 -0.2778
  110OSM   H11B11338   1.747   0.208  11.122 -1.2779 -1.3756  1.3459
  110OSM      P11339   1.601   0.458  10.923 -0.4140  0.0653  0.5769
  110OSM    O1311340   1.503   0.506  11.027  0.0256  0.0771  0.5536
  110OSM    O1411341   1.684   0.562  10.857  0.2478 -0.6527  0.2531
  110OSM    O1111342   1.516   0.381  10.813 -0.2813 -0.3411 -0.0822
  110OSM    O1211343   1.710   0.345  10.980  0.3607  0.2565 -0.2615
  110OSM    C1S11344   1.596   0.333  10.700  0.0568 -0.0616  0.5508
  110OSM    H1S11345   1.660   0.247  10.730 -0.9770 -0.5105  1.5536
  110OSM    H1T11346   1.673   0.409  10.673 -2.6740  3.2403  1.4004
  110OSM     NF11347   1.617   0.270  10.474 -0.2948  0.4605 -0.1743
  110OSM    HNF11348   1.633   0.351  10.418 -1.0865  1.2451  0.6995
  110OSM    C2S11349   1.515   0.292  10.576 -0.3653 -0.1130  0.4609
  110OSM    H2S11350   1.455   0.200  10.593  0.1998 -0.4509  0.6690
  110OSM    C3S11351   1.411   0.399  10.538  0.1037  0.0295  0.3700
  110OSM    H3S11352   1.463   0.495  10.517 -0.0448 -0.5790 -3.3664
  110OSM     O311353   1.312   0.428  10.639 -0.6658 -0.2639  0.2138
  110OSM    HO311354   1.361   0.397  10.715  0.1689  1.2159  0.3198
  110OSM    C4S11355   1.347   0.367  10.407 -0.3916  0.0734  0.3415
  110OSM    H4S11356   1.406   0.388  10.317  2.6993 -2.1530  1.6598
  110OSM    C5S11357   1.231   0.299  10.386  0.2008  0.0257  0.9366
  110OSM    H5S11358   1.170   0.269  10.472 -0.3886 -0.1534  0.4614
  110OSM    C6S11359   1.168   0.266  10.250 -0.1495 -0.4014  0.0786
  110OSM    H6S11360   1.060   0.291  10.261  0.1979  0.1480  3.3931
  110OSM    H6T11361   1.183   0.156  10.241  0.6392 -0.3662  0.8201
  110OSM    C7S11362   1.227   0.324  10.120  0.1210 -0.7649 -0.5125
  110OSM    H7S11363   1.326   0.286  10.088  0.9267  0.6851  0.1698
  110OSM    H7T11364   1.234   0.434  10.131  0.3223 -0.5048 -2.7399
  110OSM    C8S11365   1.136   0.290  10.006  0.3943 -0.0408 -0.0271
  110OSM    H8S11366   1.036   0.331  10.030  0.3633  0.7233 -1.3337
  110OSM    H8T11367   1.139   0.179  10.008  0.7041 -0.0217  1.3067
  110OSM    C9S11368   1.185   0.354   9.874 -0.3594 -0.2036  0.4179
  110OSM    H9S11369   1.295   0.351   9.860 -0.2882  2.5427 -0.1261
  110OSM    H9T11370   1.152   0.460   9.879 -1.1840 -0.3425 -1.2669
  110OSM   C10S11371   1.119   0.289   9.750  0.3099 -0.1699  0.1773
  110OSM   H10S11372   1.010   0.295   9.767  0.2761  0.1169 -0.1310
  110OSM   H10T11373   1.153   0.185   9.728 -1.3124 -0.5755 -0.5870
  110OSM   C11S11374   1.153   0.374   9.633  0.0595  0.0257 -0.9271
  110OSM   H11S11375   1.263   0.385   9.622  0.4791 -1.4820  1.1899
  110OSM   H11T11376   1.118   0.477   9.654 -0.3828 -0.0938 -1.0634
  110OSM   C12S11377   1.112   0.306   9.500 -0.1877 -0.1436 -0.0981
  110OSM   H12S11378   1.001   0.312   9.492 -0.1155  2.0673 -0.0467
  110OSM   H12T11379   1.137   0.198   9.510  1.2418  0.1567 -0.2869
  110OSM   C13S11380   1.164   0.364   9.366 -0.0565 -0.0346  0.3757
  110OSM   H13S11381   1.153   0.280   9.295  1.7741 -0.2386  0.2951
  110OSM   H13T11382   1.274   0.373   9.379 -0.2048  0.7337  1.2647
  110OSM   C14S11383   1.107   0.505   9.342  0.3433  0.6538  0.5464
  110OSM   H14S11384   1.148   0.579   9.414  0.1821  2.2813 -0.9706
  110OSM   H14T11385   0.997   0.512   9.355  0.6221  1.3446  3.2024
  110OSM   C15S11386   1.146   0.550   9.196  0.4348 -0.0576 -0.6569
  110OSM   H15S11387   1.256   0.533   9.188  0.5409 -1.1138  2.1124
  110OSM   H15T11388   1.120   0.657   9.185 -0.7652 -0.3811 -1.0990
  110OSM   C16S11389   1.063   0.475   9.093  0.1519 -0.4529 -0.0686
  110OSM   H16S11390   0.954   0.487   9.111  0.3945  0.0032  1.1592
  110OSM   H16T11391   1.081   0.366   9.101 -0.7587 -0.6291 -0.3751
  110OSM   C17S11392   1.091   0.514   8.948 -0.2305 -1.2143  0.1494
  110OSM   H17S11393   1.104   0.625   8.954  2.2834 -1.1013 -3.8343
  110OSM   H17T11394   1.006   0.483   8.884  1.7587 -0.7734 -2.9094
  110OSM   C18S11395   1.226   0.456   8.899  0.6585  0.0930  0.2484
  110OSM   H18S11396   1.230   0.345   8.902  1.5444 -0.0111 -2.2195
  110OSM   H18T11397   1.303   0.498   8.966  0.8097 -1.8872  1.3830
  110OSM   H18U11398   1.255   0.494   8.798 -1.2072 -0.3387 -0.5109
  110OSM    C1F11399   1.672   0.159  10.458 -0.3280 -0.3533  0.1702
  110OSM     OF11400   1.658   0.069  10.534  0.4007 -0.0669  0.3861
  110OSM    C2F11401   1.754   0.138  10.336 -0.2131  0.0413 -0.0476
  110OSM    H2F11402   1.765   0.238  10.290  0.3172 -0.8956 -2.0688
  110OSM    H2G11403   1.686   0.073  10.275  0.3218 -0.1491 -0.4481
  110OSM    C3F11404   1.887   0.070  10.373 -0.0079 -0.5731 -0.1226
  110OSM    H3F11405   1.876  -0.021  10.435  1.1952 -0.7391 -0.1177
  110OSM    H3G11406   1.940   0.143  10.438 -0.5227  1.3294 -1.7596
  110OSM    C4F11407   1.983   0.031  10.260  0.3175 -0.3068  0.1900
  110OSM    H4F11408   1.970   0.103  10.176  1.8389 -2.4083 -1.9707
  110OSM    H4G11409   1.954  -0.069  10.222  1.2273 -0.6970  0.4992
  110OSM    C5F11410   2.131   0.036  10.292  0.5544 -0.3502 -0.0507
  110OSM    H5F11411   2.146  -0.039  10.373 -2.0776 -1.4297 -0.4554
  110OSM    H5G11412   2.149   0.135  10.339 -0.4320 -0.4488  0.5633
  110OSM    C6F11413   2.229   0.013  10.178 -0.3394 -0.0362  0.9899
  110OSM    H6F11414   2.332   0.032  10.216  0.2326 -0.3266 -0.3594
  110OSM    H6G11415   2.207   0.097  10.108 -0.3437  2.6966  4.0378
  110OSM    C7F11416   2.209  -0.119  10.108 -0.1323  0.2190  0.1187
  110OSM    H7F11417   2.103  -0.123  10.075 -1.2983 -0.8339  3.5585
  110OSM    H7G11418   2.227  -0.204  10.178 -1.1355 -0.6569 -0.6496
  110OSM    C8F11419   2.302  -0.138   9.983  0.3894 -0.3475  0.3160
  110OSM    H8F11420   2.405  -0.139  10.024  1.6658  1.9271 -2.4861
  110OSM    H8G11421   2.301  -0.065   9.899 -0.1952 -0.5676  0.1260
  110OSM    C9F11422   2.268  -0.275   9.923 -0.6351 -0.0609 -0.0490
  110OSM    H9F11423   2.333  -0.355   9.962  0.0637 -0.0241 -1.1063
  110OSM   C10F11424   2.169  -0.310   9.836 -0.2202 -0.0439 -0.0572
  110OSM   H10F11425   2.163  -0.414   9.799  0.5778  0.5937 -2.1087
  110OSM   C11F11426   2.071  -0.209   9.781 -0.2998  0.0259 -0.1175
  110OSM   H11F11427   2.106  -0.106   9.805  0.0836  0.0099 -0.5892
  110OSM   H11G11428   1.972  -0.218   9.830 -0.7363  1.9317 -0.5540
  110OSM   C12F11429   2.046  -0.217   9.631 -0.2015 -0.0998  0.1699
  110OSM   H12F11430   2.027  -0.325   9.613  1.2336 -0.3294 -0.0918
  110OSM   H12G11431   2.144  -0.195   9.583 -0.3689  0.5984  0.1351
  110OSM   C13F11432   1.935  -0.135   9.570 -0.2158 -0.2792  0.6818
  110OSM   H13F11433   1.952  -0.030   9.603 -0.9333  0.0852 -0.0815
  110OSM   H13G11434   1.832  -0.160   9.601 -0.3145  1.2615  1.7040
  110OSM   C14F11435   1.930  -0.136   9.412 -0.5189 -0.3486 -0.5479
  110OSM   H14F11436   2.019  -0.080   9.374 -0.2551 -0.2374  0.2088
  110OSM   H14G11437   1.832  -0.093   9.382 -0.7329 -0.1007  0.4496
  110OSM   C15F11438   1.910  -0.278   9.355  0.6817 -0.0296 -0.0075
  110OSM   H15F11439   1.833  -0.331   9.414 -1.0923  0.0740 -2.0773
  110OSM   H15G11440   2.001  -0.341   9.361  0.3174 -0.6100 -0.5251
  110OSM   C16F11441   1.859  -0.288   9.211 -0.5166  0.2633 -0.0839
  110OSM   H16F11442   1.917  -0.233   9.133 -0.6151 -0.8251 -0.9595
  110OSM   H16G11443   1.761  -0.239   9.199 -2.4163 -3.6860 -3.4201
  110OSM   C17F11444   1.836  -0.423   9.145  0.1407  0.0378 -0.0333
  110OSM   H17F11445   1.762  -0.412   9.064 -1.9868 -1.4839  1.5811
  110OSM   H17G11446   1.784  -0.485   9.221 -2.6736  1.1963 -0.8902
  110OSM   C18F11447   1.968  -0.494   9.096  0.1585 -0.4635  0.2957
  110OSM   H18F11448   1.950  -0.603   9.086  1.1415 -0.6976  0.9369
  110OSM   H18G11449   2.051  -0.482   9.169  0.2921 -1.0331  0.2370
  110OSM   H18H11450   1.991  -0.455   8.995 -0.6561 -2.1856 -0.6039
  111OSM      N11451   1.670   5.301  11.042  1.1118 -0.0260  0.3872
  111OSM    C1511452   1.674   5.200  11.152 -0.0685 -0.6823 -0.2953
  111OSM   H15A11453   1.775   5.183  11.187 -0.0594  0.4180  0.2378
  111OSM   H15B11454   1.632   5.108  11.111  0.4930 -0.4868 -1.3461
  111OSM   H15C11455   1.620   5.242  11.235  2.1497 -0.6135  1.1704
  111OSM    C1411456   1.528   5.333  11.008  0.9971 -0.4801 -0.3109
  111OSM   H14A11457   1.488   5.256  10.944 -0.9104 -1.1614  1.5737
  111OSM   H14B11458   1.521   5.427  10.956 -0.0716 -1.0069 -1.1580
  111OSM   H14C11459   1.467   5.344  11.096 -0.3066 -0.5440 -1.1793
  111OSM    C1311460   1.739   5.422  11.087 -0.1753 -0.5068 -0.4679
  111OSM   H13A11461   1.689   5.466  11.172  0.3854  0.9143 -0.8426
  111OSM   H13B11462   1.743   5.498  11.010 -1.3495  2.2607  1.9934
  111OSM   H13C11463   1.841   5.391  11.106  0.2038  0.4236 -0.9044
  111OSM    C1211464   1.735   5.253  10.919 -0.4829  0.3049 -0.4053
  111OSM   H12A11465   1.841   5.263  10.934 -0.4640  1.3284 -1.1241
  111OSM   H12B11466   1.706   5.313  10.834 -2.6663 -2.4805 -1.7878
  111OSM    C1111467   1.712   5.101  10.870 -0.5133  0.2097  1.0291
  111OSM   H11A11468   1.746   5.098  10.764 -2.2846  0.5954  0.4173
  111OSM   H11B11469   1.602   5.089  10.871 -0.4408 -0.7552 -0.1417
  111OSM      P11470   1.741   4.874  11.005  0.0559 -0.2332 -0.0469
  111OSM    O1311471   1.866   4.810  11.059  0.5107  0.2971 -0.2369
  111OSM    O1411472   1.633   4.891  11.101 -0.0443  0.1456  0.0354
  111OSM    O1111473   1.691   4.798  10.872  0.0457 -0.0100 -0.1825
  111OSM    O1211474   1.787   5.014  10.954  0.5839  0.7557 -0.1352
  111OSM    C1S11475   1.777   4.783  10.759  0.7472 -0.6154 -0.0587
  111OSM    H1S11476   1.858   4.710  10.782 -1.7247 -2.8298  2.2731
  111OSM    H1T11477   1.825   4.880  10.736 -0.0916  0.0564  0.9673
  111OSM     NF11478   1.763   4.748  10.518 -0.6828 -0.0645  0.2787
  111OSM    HNF11479   1.761   4.829  10.460  3.0352 -0.8516 -1.2345
  111OSM    C2S11480   1.682   4.746  10.637 -0.3564  0.2688 -0.1645
  111OSM    H2S11481   1.648   4.641  10.649 -0.3453  0.0696 -1.6483
  111OSM    C3S11482   1.557   4.836  10.631  0.8074  0.1869 -0.3967
  111OSM    H3S11483   1.602   4.935  10.609 -0.2448  0.6741 -0.4098
  111OSM     O311484   1.480   4.853  10.756 -0.0553 -0.5307  0.2664
  111OSM    HO311485   1.539   4.822  10.825  1.0513  1.0953  0.1029
  111OSM    C4S11486   1.470   4.793  10.512 -0.2995  0.1146 -0.6658
  111OSM    H4S11487   1.520   4.820  10.418  0.8312 -1.6060 -0.5969
  111OSM    C5S11488   1.371   4.702  10.528 -0.1786 -0.3609  0.5084
  111OSM    H5S11489   1.353   4.656  10.626 -0.6111 -0.1327  0.5364
  111OSM    C6S11490   1.287   4.649  10.415 -0.8573  0.3124  0.2552
  111OSM    H6S11491   1.183   4.678  10.442  0.4512  4.1436  1.9137
  111OSM    H6T11492   1.302   4.539  10.402  2.6585  0.3953  2.3185
  111OSM    C7S11493   1.333   4.701  10.281  0.4414 -0.4017  0.2935
  111OSM    H7S11494   1.441   4.676  10.268  0.9673  1.2880  1.0757
  111OSM    H7T11495   1.312   4.810  10.282  1.0435 -0.2458  2.6802
  111OSM    C8S11496   1.233   4.632  10.181 -0.1056 -0.6344 -0.0226
  111OSM    H8S11497   1.136   4.664  10.225  0.0689  0.5322 -0.4446
  111OSM    H8T11498   1.237   4.521  10.187 -1.5849 -0.6689  1.1885
  111OSM    C9S11499   1.233   4.688  10.034  0.0006  0.9071 -0.3617
  111OSM    H9S11500   1.174   4.612   9.977 -2.3115  1.2924  1.3732
  111OSM    H9T11501   1.334   4.711   9.995  0.8345 -1.4607  0.2393
  111OSM   C10S11502   1.153   4.813  10.031 -0.0610 -0.4358  0.1693
  111OSM   H10S11503   1.201   4.895  10.087  1.2328 -0.0928 -1.3816
  111OSM   H10T11504   1.064   4.799  10.096  0.7440 -2.4332  0.9222
  111OSM   C11S11505   1.154   4.872   9.888  0.0616 -0.0073  0.4545
  111OSM   H11S11506   1.100   4.800   9.824 -0.7066  0.7717  0.1998
  111OSM   H11T11507   1.256   4.869   9.845  0.0397  0.0955  0.3923
  111OSM   C12S11508   1.096   5.016   9.881 -0.3568 -0.3736  0.4524
  111OSM   H12S11509   1.140   5.070   9.967  0.5427 -1.6740  0.8345
  111OSM   H12T11510   0.986   5.004   9.882 -0.3981  0.0328  2.1352
  111OSM   C13S11511   1.140   5.087   9.746 -0.8342 -0.0203 -0.5352
  111OSM   H13S11512   1.245   5.125   9.753 -0.9517  0.1257  0.6289
  111OSM   H13T11513   1.088   5.185   9.738 -0.1147  0.4869  0.7004
  111OSM   C14S11514   1.098   5.012   9.624  0.4193 -0.5637  0.5730
  111OSM   H14S11515   1.101   5.099   9.555  2.5014 -2.1142 -1.4361
  111OSM   H14T11516   0.996   4.972   9.642 -0.7842  1.7026 -0.7286
  111OSM   C15S11517   1.193   4.906   9.567 -0.5940 -0.0062  0.3405
  111OSM   H15S11518   1.177   4.808   9.618  1.3520 -0.6645 -0.2185
  111OSM   H15T11519   1.295   4.938   9.596 -0.7692 -0.0068  0.9789
  111OSM   C16S11520   1.174   4.878   9.412 -0.0733  0.3443 -0.3838
  111OSM   H16S11521   1.069   4.848   9.393 -0.9360  3.6552 -1.5557
  111OSM   H16T11522   1.242   4.794   9.387  1.6878  1.8212 -0.8031
  111OSM   C17S11523   1.202   4.993   9.313 -0.4997 -0.0644 -0.3938
  111OSM   H17S11524   1.307   5.027   9.305  0.3948 -1.3858  3.4183
  111OSM   H17T11525   1.147   5.077   9.360  0.9370 -0.3303  1.9365
  111OSM   C18S11526   1.159   4.946   9.172  0.4083 -0.8795 -0.2019
  111OSM   H18S11527   1.147   5.030   9.100 -1.6834  0.5470  1.6875
  111OSM   H18T11528   1.060   4.896   9.176 -0.0802  0.0751 -0.1061
  111OSM   H18U11529   1.238   4.872   9.146  2.0876  0.3379  1.1576
  111OSM    C1F11530   1.873   4.666  10.507 -0.4115 -0.1207  0.1368
  111OSM     OF11531   1.892   4.559  10.559  0.2629  0.5810  0.6418
  111OSM    C2F11532   1.983   4.735  10.422  0.2674  0.2208 -0.6110
  111OSM    H2F11533   2.046   4.811  10.472  1.4474 -0.8407 -0.4517
  111OSM    H2G11534   1.923   4.782  10.341 -0.7647 -1.5423 -0.9330
  111OSM    C3F11535   2.087   4.629  10.363  0.7411 -0.2841 -0.1745
  111OSM    H3F11536   2.108   4.555  10.443  0.0276 -0.4684 -0.1493
  111OSM    H3G11537   2.181   4.688  10.357  1.5314 -1.4568  0.3732
  111OSM    C4F11538   2.040   4.564  10.229 -0.2144  0.5329 -0.4371
  111OSM    H4F11539   1.937   4.525  10.245  0.6774 -0.9528  2.4367
  111OSM    H4G11540   2.111   4.482  10.203  2.4774  2.1684  1.2392
  111OSM    C5F11541   2.034   4.662  10.108 -0.4271  0.2133 -0.2288
  111OSM    H5F11542   2.123   4.729  10.098  1.2573 -1.3136  3.1188
  111OSM    H5G11543   1.944   4.726  10.117 -1.0007 -0.5524 -0.4905
  111OSM    C6F11544   2.033   4.589   9.974 -0.7010 -0.4756 -0.0270
  111OSM    H6F11545   1.929   4.554   9.953 -0.2035 -1.3144 -1.2516
  111OSM    H6G11546   2.097   4.498   9.979 -1.0144 -0.6374  1.7380
  111OSM    C7F11547   2.091   4.658   9.847 -0.2214  0.1953 -0.1839
  111OSM    H7F11548   2.191   4.694   9.879  0.4106 -0.7005 -1.0703
  111OSM    H7G11549   2.034   4.749   9.819 -0.7634 -0.5250 -1.5291
  111OSM    C8F11550   2.107   4.555   9.738 -0.5070 -0.0651 -0.2768
  111OSM    H8F11551   2.169   4.476   9.784  0.5905  2.4242  2.9463
  111OSM    H8G11552   2.170   4.601   9.658 -1.3699  0.4433 -0.6823
  111OSM    C9F11553   1.973   4.518   9.683  0.1301  0.6331  0.1570
  111OSM    H9F11554   1.889   4.502   9.753 -2.0366 -3.2144 -2.9240
  111OSM   C10F11555   1.946   4.508   9.551  0.2523  0.3152 -0.2115
  111OSM   H10F11556   1.841   4.486   9.527 -0.4976  1.4941  1.7150
  111OSM   C11F11557   2.039   4.526   9.434  0.4341 -0.2591 -0.5992
  111OSM   H11F11558   2.053   4.436   9.370 -0.9922 -0.3541 -0.8029
  111OSM   H11G11559   2.139   4.550   9.475 -0.5158 -0.1121  1.7447
  111OSM   C12F11560   1.989   4.639   9.347 -0.5463 -1.2156 -0.0237
  111OSM   H12F11561   2.009   4.737   9.394  0.0366 -0.1851 -2.2712
  111OSM   H12G11562   1.879   4.632   9.329 -0.2251 -2.2994 -1.8517
  111OSM   C13F11563   2.064   4.639   9.212 -0.5001 -0.3730 -0.2442
  111OSM   H13F11564   2.052   4.542   9.158  0.1779 -0.3814 -0.3875
  111OSM   H13G11565   2.174   4.650   9.227 -0.3580 -1.2832 -0.5097
  111OSM   C14F11566   2.020   4.753   9.117  0.0980  0.1374  0.7170
  111OSM   H14F11567   2.046   4.850   9.166 -1.2282  0.1167  1.5345
  111OSM   H14G11568   1.911   4.762   9.098  0.6296  2.5908 -1.9089
  111OSM   C15F11569   2.103   4.762   8.988  0.1982 -0.1691  0.5204
  111OSM   H15F11570   2.209   4.767   9.023  1.5326 -0.6792 -3.0624
  111OSM   H15G11571   2.072   4.850   8.928  0.4294 -1.2184 -1.2097
  111OSM   C16F11572   2.100   4.642   8.897 -0.0884  0.4666  0.5172
  111OSM   H16F11573   1.991   4.630   8.878  0.0366 -3.0383  1.3129
  111OSM   H16G11574   2.139   4.546   8.936  2.4930  0.4950 -1.7532
  111OSM   C17F11575   2.167   4.675   8.764  0.1869 -0.3641  0.3063
  111OSM   H17F11576   2.277   4.676   8.780 -0.0732 -1.3811  2.3778
  111OSM   H17G11577   2.139   4.778   8.731 -0.2477  0.2179  2.3501
  111OSM   C18F11578   2.136   4.567   8.664 -0.0431 -0.8116 -0.1060
  111OSM   H18F11579   2.184   4.593   8.567  2.8718 -0.3781  1.3277
  111OSM   H18G11580   2.027   4.567   8.643 -0.8205  0.1360  3.3485
  111OSM   H18H11581   2.163   4.465   8.699  2.5087  0.8153  3.2677
  112OSM      N11582   1.344   2.599  11.427  0.3480 -0.1936  0.8311
  112OSM    C1511583   1.236   2.703  11.460 -0.8796 -0.5624 -0.4208
  112OSM   H15A11584   1.262   2.795  11.409  0.1858 -0.2589  0.6365
  112OSM   H15B11585   1.231   2.726  11.565 -0.2755  1.6348 -0.8181
  112OSM   H15C11586   1.138   2.667  11.434 -1.9105  1.6815  0.0800
  112OSM    C1411587   1.478   2.660  11.459  0.1301 -0.5176  0.0623
  112OSM   H14A11588   1.511   2.733  11.388  0.3911  0.4560  1.1558
  112OSM   H14B11589   1.555   2.585  11.446  1.4438  1.1353 -2.6002
  112OSM   H14C11590   1.499   2.701  11.557  1.2737  0.2275 -0.4709
  112OSM    C1311591   1.323   2.470  11.507  0.2092 -0.2312  0.0617
  112OSM   H13A11592   1.386   2.391  11.469  0.4973 -0.4729  0.9980
  112OSM   H13B11593   1.222   2.430  11.502  0.6197 -1.1588 -1.2800
  112OSM   H13C11594   1.359   2.484  11.608  0.5154 -0.1544 -0.0600
  112OSM    C1211595   1.332   2.566  11.278 -0.3719  0.4436 -0.1358
  112OSM   H12A11596   1.309   2.655  11.221  2.1059 -0.3042 -2.4903
  112OSM   H12B11597   1.246   2.501  11.269 -2.4371  3.0896 -0.7514
  112OSM    C1111598   1.455   2.492  11.221 -0.0817 -0.0409  0.9955
  112OSM   H11A11599   1.543   2.558  11.233 -0.2674  0.4857 -0.3039
  112OSM   H11B11600   1.439   2.486  11.111  0.2876 -0.3631  0.9556
  112OSM      P11601   1.425   2.233  11.217  0.4761  0.1820 -0.0493
  112OSM    O1311602   1.493   2.125  11.289 -0.3085  0.0486  0.0546
  112OSM    O1411603   1.277   2.231  11.210  0.1761 -0.2962  0.2355
  112OSM    O1111604   1.485   2.236  11.075  0.6090 -0.1210  0.5009
  112OSM    O1211605   1.476   2.369  11.283 -0.9922 -0.0102  0.2149
  112OSM    C1S11606   1.567   2.130  11.022 -0.0164  0.6883  0.9534
  112OSM    H1S11607   1.537   2.027  11.048 -0.0675  0.6878  0.8930
  112OSM    H1T11608   1.672   2.140  11.058 -0.0451 -0.9480  1.5824
  112OSM     NF11609   1.661   2.029  10.829  0.1625  0.2110  0.0725
  112OSM    HNF11610   1.756   2.060  10.829 -0.3940  2.4633 -2.9238
  112OSM    C2S11611   1.582   2.142  10.866 -0.0505 -0.0245 -1.1808
  112OSM    H2S11612   1.481   2.128  10.822 -1.1090 -0.4846  1.2656
  112OSM    C3S11613   1.631   2.285  10.819  0.1476  0.3112 -0.5390
  112OSM    H3S11614   1.723   2.309  10.877 -0.1537  1.2354 -0.4397
  112OSM     O311615   1.545   2.392  10.860  0.5657  0.1973 -0.0670
  112OSM    HO311616   1.491   2.338  10.918  0.3641 -0.5899 -0.9660
  112OSM    C4S11617   1.664   2.278  10.668 -0.2078 -0.5837 -0.0729
  112OSM    H4S11618   1.747   2.214  10.637  0.0991  0.1584 -0.8086
  112OSM    C5S11619   1.591   2.328  10.566  0.1524  0.2050 -0.1329
  112OSM    H5S11620   1.497   2.380  10.588  0.3813  1.3239 -1.6173
  112OSM    C6S11621   1.614   2.312  10.422 -0.0781 -0.0143  0.0782
  112OSM    H6S11622   1.654   2.409  10.388 -0.8485 -0.5214 -2.5022
  112OSM    H6T11623   1.526   2.294  10.356 -0.3463  3.2976 -0.6209
  112OSM    C7S11624   1.731   2.218  10.384  0.0047 -0.2116  0.3245
  112OSM    H7S11625   1.699   2.112  10.399 -0.6467 -0.2251 -0.9987
  112OSM    H7T11626   1.821   2.234  10.447 -0.7411  1.4456  1.0268
  112OSM    C8S11627   1.772   2.248  10.237 -0.0257 -0.4876 -0.7279
  112OSM    H8S11628   1.813   2.350  10.255  0.3831 -0.8520  0.5290
  112OSM    H8T11629   1.681   2.263  10.175 -0.1412 -1.2803 -0.7648
  112OSM    C9S11630   1.877   2.146  10.186  0.4964 -0.1507 -0.4324
  112OSM    H9S11631   1.837   2.044  10.200  0.0141  0.1681  0.5896
  112OSM    H9T11632   1.967   2.145  10.252  1.4708 -1.1466 -1.7214
  112OSM   C10S11633   1.911   2.172  10.037  0.1330  0.0904  0.5965
  112OSM   H10S11634   1.815   2.190   9.982  0.9455  2.4328 -0.1510
  112OSM   H10T11635   1.971   2.080  10.018  0.2877 -0.3252  2.8399
  112OSM   C11S11636   1.996   2.298  10.002  0.0774 -0.0271  0.0505
  112OSM   H11S11637   2.094   2.270  10.045  0.9635  0.3444 -1.6246
  112OSM   H11T11638   1.950   2.389  10.047 -2.4715 -1.5795  0.8028
  112OSM   C12S11639   2.015   2.313   9.848 -0.0953 -0.6256  0.0815
  112OSM   H12S11640   2.084   2.236   9.807 -0.8594  0.7083 -4.1890
  112OSM   H12T11641   2.074   2.406   9.833 -0.2043 -0.4156  0.9164
  112OSM   C13S11642   1.897   2.314   9.753  0.4591 -0.4107 -0.0337
  112OSM   H13S11643   1.809   2.369   9.792 -0.0870  0.5319 -2.4637
  112OSM   H13T11644   1.874   2.207   9.732 -0.3472 -0.0298 -1.1646
  112OSM   C14S11645   1.918   2.385   9.629 -0.4251  0.3071  0.6093
  112OSM   H14S11646   2.020   2.358   9.594  0.0505 -1.3888  3.1293
  112OSM   H14T11647   1.931   2.492   9.656 -1.6784  0.2889  1.3241
  112OSM   C15S11648   1.801   2.368   9.531  0.2896 -0.0086 -0.8657
  112OSM   H15S11649   1.728   2.451   9.524 -0.4420 -0.4249  1.0479
  112OSM   H15T11650   1.745   2.282   9.573 -1.1153  0.7454 -1.1496
  112OSM   C16S11651   1.857   2.343   9.393 -0.0517  0.2998 -0.0883
  112OSM   H16S11652   1.765   2.317   9.337 -0.0650 -0.4975  0.2910
  112OSM   H16T11653   1.935   2.265   9.391  0.9897  1.3216 -1.7487
  112OSM   C17S11654   1.920   2.468   9.326 -0.4020  0.1040  0.5833
  112OSM   H17S11655   1.996   2.496   9.402 -0.5686 -0.9454  1.1450
  112OSM   H17T11656   1.845   2.549   9.309 -0.2482 -0.3947 -3.1937
  112OSM   C18S11657   1.983   2.433   9.190 -0.7134  0.3736  0.3909
  112OSM   H18S11658   1.898   2.413   9.120 -0.5987 -2.8899  1.0525
  112OSM   H18T11659   2.038   2.337   9.194 -0.6980  0.3664  0.0308
  112OSM   H18U11660   2.051   2.509   9.147  1.1131 -1.6862 -0.4922
  112OSM    C1F11661   1.620   1.902  10.827  0.1746 -0.6214 -0.2518
  112OSM     OF11662   1.499   1.871  10.829 -0.5702  0.0266  0.5045
  112OSM    C2F11663   1.725   1.798  10.834  0.7640  0.0740  0.7233
  112OSM    H2F11664   1.710   1.741  10.928  0.9510  1.7287  1.8027
  112OSM    H2G11665   1.827   1.841  10.842  0.5899  0.8309 -0.7522
  112OSM    C3F11666   1.707   1.697  10.723  0.3424 -0.5009 -0.3538
  112OSM    H3F11667   1.613   1.638  10.724 -0.7321  1.1408 -0.6843
  112OSM    H3G11668   1.784   1.616  10.732 -1.4614 -2.3574 -0.8942
  112OSM    C4F11669   1.733   1.764  10.591 -0.3812  0.7049 -0.0924
  112OSM    H4F11670   1.785   1.861  10.598  0.4335  0.2297  0.5507
  112OSM    H4G11671   1.639   1.795  10.540 -1.4884 -2.4153 -0.1800
  112OSM    C5F11672   1.818   1.674  10.497  0.5528 -0.5408  0.6529
  112OSM    H5F11673   1.781   1.570  10.506  0.3829 -0.5837 -0.4552
  112OSM    H5G11674   1.919   1.662  10.541  0.6628  0.1760  0.6100
  112OSM    C6F11675   1.815   1.724  10.358 -0.0155 -0.6535 -0.4222
  112OSM    H6F11676   1.861   1.825  10.352 -0.3244 -0.6016 -3.6774
  112OSM    H6G11677   1.708   1.731  10.332 -0.0829  1.1662  0.2454
  112OSM    C7F11678   1.868   1.622  10.260  0.4626 -0.2798 -0.2538
  112OSM    H7F11679   1.802   1.535  10.278 -0.2765  0.2754 -0.2099
  112OSM    H7G11680   1.971   1.587  10.285 -0.0371 -2.4672 -1.0782
  112OSM    C8F11681   1.854   1.656  10.110  0.5130  0.2471  0.9203
  112OSM    H8F11682   1.911   1.749  10.088  0.7570  0.1836  1.2904
  112OSM    H8G11683   1.745   1.674  10.094  0.7567  2.8861  1.7149
  112OSM    C9F11684   1.898   1.557  10.007 -0.5421 -0.0340 -0.4419
  112OSM    H9F11685   1.858   1.455  10.005  1.2919 -0.8580  1.1874
  112OSM   C10F11686   2.002   1.577   9.929  0.1702  0.8396 -0.1750
  112OSM   H10F11687   2.036   1.496   9.864 -1.7112 -0.2516  0.1324
  112OSM   C11F11688   2.089   1.698   9.925 -0.2502  0.2990 -0.4204
  112OSM   H11F11689   2.190   1.659   9.898 -0.1997  0.2824 -0.2100
  112OSM   H11G11690   2.102   1.754  10.020  0.6964  2.8701 -1.9579
  112OSM   C12F11691   2.048   1.801   9.820  0.2591  0.3492  0.3704
  112OSM   H12F11692   2.115   1.889   9.831 -0.5932  0.8778  1.5354
  112OSM   H12G11693   1.944   1.836   9.839  0.0990  0.2570 -0.3081
  112OSM   C13F11694   2.046   1.744   9.676 -0.3071  0.1781  0.4584
  112OSM   H13F11695   1.981   1.654   9.667  0.2937 -0.2700  0.5914
  112OSM   H13G11696   2.144   1.703   9.644 -1.4501 -1.6476 -0.9406
  112OSM   C14F11697   1.998   1.856   9.577 -0.5275  0.0517  0.1998
  112OSM   H14F11698   2.068   1.943   9.578 -1.2536  0.6428  0.6526
  112OSM   H14G11699   1.901   1.889   9.618 -0.3320  1.0916 -0.1236
  112OSM   C15F11700   1.980   1.805   9.434 -0.0901  0.5635  0.0704
  112OSM   H15F11701   1.914   1.874   9.376 -0.5974  0.1896  0.2070
  112OSM   H15G11702   1.916   1.716   9.447 -1.4718  1.0933 -2.3591
  112OSM   C16F11703   2.122   1.772   9.373  0.5732 -0.6583 -0.0917
  112OSM   H16F11704   2.199   1.740   9.446  0.6346 -0.6778 -0.1649
  112OSM   H16G11705   2.163   1.870   9.342  0.9341 -0.8101 -0.0972
  112OSM   C17F11706   2.119   1.679   9.248 -0.2814 -0.2649 -0.4862
  112OSM   H17F11707   2.022   1.694   9.198  0.6937 -0.1201 -2.4419
  112OSM   H17G11708   2.123   1.573   9.283  0.7147 -0.2790 -0.6060
  112OSM   C18F11709   2.219   1.709   9.139 -0.1106  0.3761  0.3162
  112OSM   H18F11710   2.229   1.628   9.063  0.2099  1.2842 -0.6327
  112OSM   H18G11711   2.315   1.714   9.194 -0.4351  0.4762  0.8811
  112OSM   H18H11712   2.198   1.808   9.093 -1.6461 -1.3029 -2.9243
  113OSM      N11713   5.613   0.347  11.239 -0.3509 -0.1126  0.0152
  113OSM    C1511714   5.624   0.300  11.099  0.0002  0.3063  0.2494
  113OSM   H15A11715   5.722   0.310  11.055  0.4945  0.5828  1.3862
  113OSM   H15B11716   5.563   0.362  11.034  1.6123  0.3079 -1.3538
  113OSM   H15C11717   5.588   0.199  11.107 -0.0589  0.2021 -1.1005
  113OSM    C1411718   5.665   0.242  11.336  0.1146  0.1427  0.1516
  113OSM   H14A11719   5.610   0.149  11.329 -1.4600  0.9414  1.2602
  113OSM   H14B11720   5.663   0.272  11.440 -2.3833 -0.1583  0.2592
  113OSM   H14C11721   5.761   0.201  11.309 -0.6585 -1.5576 -0.2086
  113OSM    C1311722   5.710   0.460  11.260 -0.2715 -0.4804  0.3966
  113OSM   H13A11723   5.811   0.426  11.240  0.3167  1.0640  0.5918
  113OSM   H13B11724   5.706   0.503  11.359 -0.3876 -0.3350  0.3288
  113OSM   H13C11725   5.684   0.538  11.190 -0.3331 -0.0717  0.8724
  113OSM    C1211726   5.468   0.382  11.277 -0.0075  0.2412  0.1692
  113OSM   H12A11727   5.429   0.456  11.209  1.6678  0.1432 -0.9764
  113OSM   H12B11728   5.470   0.422  11.377  1.6064  0.5669  0.0342
  113OSM    C1111729   5.368   0.258  11.291  0.0114  0.0350 -0.1915
  113OSM   H11A11730   5.276   0.301  11.337  0.5653  0.2069  0.7890
  113OSM   H11B11731   5.417   0.190  11.365  1.5254  1.0978 -0.1715
  113OSM      P11732   5.230   0.246  11.064 -0.6376 -0.0577  0.0093
  113OSM    O1311733   5.109   0.160  11.081 -0.1692  0.2789 -0.6809
  113OSM    O1411734   5.219   0.394  11.075  1.2766  0.2011 -0.4418
  113OSM    O1111735   5.303   0.217  10.927 -0.5244  0.4097  0.4655
  113OSM    O1211736   5.341   0.194  11.168 -0.0329 -0.6457 -0.0149
  113OSM    C1S11737   5.343   0.080  10.895  0.4781 -0.4795 -0.7984
  113OSM    H1S11738   5.272   0.017  10.953 -0.6303  1.4471  0.0467
  113OSM    H1T11739   5.443   0.050  10.931  0.2249 -0.0804  0.2939
  113OSM     NF11740   5.359  -0.095  10.735 -0.1678  1.0373  0.4090
  113OSM    HNF11741   5.451  -0.129  10.720 -0.0809  0.3624  2.1853
  113OSM    C2S11742   5.335   0.041  10.744 -0.3180  0.0785 -0.4099
  113OSM    H2S11743   5.231   0.059  10.712  0.3254  3.2415 -1.0546
  113OSM    C3S11744   5.437   0.131  10.672  0.3618  0.1448 -0.1084
  113OSM    H3S11745   5.541   0.114  10.706  0.7423  0.1907 -1.1976
  113OSM     O311746   5.408   0.269  10.699  0.6197 -0.8407  0.0277
  113OSM    HO311747   5.361   0.277  10.782  1.7978  0.2302  0.6301
  113OSM    C4S11748   5.427   0.102  10.523  0.0322 -0.1689 -0.2731
  113OSM    H4S11749   5.326   0.117  10.481  0.2932  1.1364 -0.5002
  113OSM    C5S11750   5.531   0.070  10.440 -0.0230 -0.1918 -0.0882
  113OSM    H5S11751   5.634   0.063  10.478  0.7271  0.5678 -1.8689
  113OSM    C6S11752   5.516   0.039  10.292 -0.4142  0.2093 -1.2736
  113OSM    H6S11753   5.409   0.046  10.262 -1.0943  1.6615  1.1891
  113OSM    H6T11754   5.533  -0.069  10.276  0.6136  0.5680 -2.8254
  113OSM    C7S11755   5.593   0.111  10.183 -0.3410 -0.5757  0.8487
  113OSM    H7S11756   5.702   0.115  10.204  0.5501  1.9606 -3.1179
  113OSM    H7T11757   5.551   0.214  10.180  2.1728  0.5288  1.1031
  113OSM    C8S11758   5.580   0.047  10.051 -0.0416 -0.2822 -0.0096
  113OSM    H8S11759   5.472   0.026  10.040  0.1261 -1.2316  0.0094
  113OSM    H8T11760   5.646  -0.043  10.041  0.9663  0.4638 -0.2616
  113OSM    C9S11761   5.616   0.147   9.938 -0.2171 -0.1083 -0.6134
  113OSM    H9S11762   5.703   0.207   9.973 -1.4891  2.5055 -1.6676
  113OSM    H9T11763   5.543   0.226   9.909  1.4650  1.4155 -0.8442
  113OSM   C10S11764   5.653   0.079   9.798 -0.0816 -0.8708 -0.1285
  113OSM   H10S11765   5.558   0.028   9.768 -1.2856  1.2470 -0.1348
  113OSM   H10T11766   5.736   0.007   9.810 -1.8919 -3.0152  0.3713
  113OSM   C11S11767   5.714   0.179   9.692  0.7290  0.5642 -0.1978
  113OSM   H11S11768   5.802   0.226   9.741 -0.1393  0.9827  0.9841
  113OSM   H11T11769   5.632   0.254   9.692  1.0410  0.9182  1.0860
  113OSM   C12S11770   5.722   0.114   9.556  0.8391 -0.1495  0.4293
  113OSM   H12S11771   5.643   0.038   9.547  0.7960 -0.2284  1.3262
  113OSM   H12T11772   5.816   0.056   9.550  2.3917  2.2288  0.0653
  113OSM   C13S11773   5.716   0.215   9.441 -0.2697 -0.2950  0.6410
  113OSM   H13S11774   5.819   0.257   9.431 -0.5801 -0.1201 -4.1197
  113OSM   H13T11775   5.652   0.299   9.476 -0.1772  0.4697 -0.9291
  113OSM   C14S11776   5.669   0.177   9.301  0.4114 -0.6788  0.4158
  113OSM   H14S11777   5.575   0.117   9.301 -0.8612  1.1190 -1.9693
  113OSM   H14T11778   5.747   0.113   9.254  0.4419 -1.4181  1.4563
  113OSM   C15S11779   5.657   0.300   9.204  0.1841  0.0423  0.7788
  113OSM   H15S11780   5.743   0.362   9.236 -0.5371  0.2148  2.5159
  113OSM   H15T11781   5.563   0.355   9.224 -0.0709  0.0527 -0.3722
  113OSM   C16S11782   5.673   0.255   9.060  0.4131 -0.4879 -0.0584
  113OSM   H16S11783   5.580   0.197   9.041  1.7240 -1.8418 -2.8786
  113OSM   H16T11784   5.753   0.180   9.042 -0.9302 -1.6381 -1.5879
  113OSM   C17S11785   5.690   0.368   8.962 -0.2081  0.3694  0.4681
  113OSM   H17S11786   5.787   0.421   8.977 -0.5119  0.4404  2.3720
  113OSM   H17T11787   5.615   0.446   8.987 -1.9974 -0.9546 -0.5052
  113OSM   C18S11788   5.682   0.319   8.811 -0.0069 -0.5715  0.1816
  113OSM   H18S11789   5.776   0.292   8.758 -0.9944  0.1227 -2.0267
  113OSM   H18T11790   5.642   0.410   8.761  2.9681  2.2910  2.5727
  113OSM   H18U11791   5.607   0.237   8.802  0.4180 -0.8286 -1.1355
  113OSM    C1F11792   5.256  -0.186  10.753  0.4415  0.3153  0.1457
  113OSM     OF11793   5.147  -0.147  10.796 -0.1445  0.6857  0.2421
  113OSM    C2F11794   5.286  -0.335  10.733 -0.4016 -0.9272 -0.0799
  113OSM    H2F11795   5.238  -0.384  10.820 -2.5530  0.2106 -0.5663
  113OSM    H2G11796   5.396  -0.352  10.738 -0.2298  0.4046  1.6151
  113OSM    C3F11797   5.222  -0.375  10.597  0.3775 -0.1308 -0.4029
  113OSM    H3F11798   5.114  -0.351  10.589  0.3318 -0.8703 -2.6913
  113OSM    H3G11799   5.219  -0.486  10.587 -0.0399 -0.0999 -0.6336
  113OSM    C4F11800   5.294  -0.320  10.472 -0.7090  0.0226 -1.1315
  113OSM    H4F11801   5.393  -0.372  10.468 -1.7421 -2.1121 -0.7243
  113OSM    H4G11802   5.314  -0.212  10.483 -0.6926 -0.0113 -0.8257
  113OSM    C5F11803   5.220  -0.336  10.339 -0.3173 -0.4037 -0.6756
  113OSM    H5F11804   5.119  -0.300  10.368  0.5193  1.6694 -0.0971
  113OSM    H5G11805   5.211  -0.444  10.318 -0.0258 -0.6799  0.5458
  113OSM    C6F11806   5.275  -0.268  10.215 -0.8805 -0.4767  0.0718
  113OSM    H6F11807   5.373  -0.316  10.191 -0.2076  0.5921  0.5882
  113OSM    H6G11808   5.302  -0.161  10.232 -0.4356 -0.8732  2.2157
  113OSM    C7F11809   5.171  -0.252  10.105  0.4398  0.3792  0.0118
  113OSM    H7F11810   5.065  -0.235  10.136  1.0159  0.6380  1.9543
  113OSM    H7G11811   5.167  -0.357  10.067  0.9438  0.4889 -0.3529
  113OSM    C8F11812   5.202  -0.144  10.003  0.6557  0.0537 -0.4018
  113OSM    H8F11813   5.308  -0.166   9.976  0.6902 -0.0400 -0.1867
  113OSM    H8G11814   5.195  -0.051  10.063 -0.4069 -0.8563  0.9351
  113OSM    C9F11815   5.105  -0.153   9.891  0.8928  0.3494  0.3345
  113OSM    H9F11816   5.002  -0.172   9.927  0.7004  1.4576  0.4083
  113OSM   C10F11817   5.141  -0.146   9.766  0.5799 -0.0775 -0.3984
  113OSM   H10F11818   5.068  -0.166   9.686 -1.0657  0.9504  0.7811
  113OSM   C11F11819   5.280  -0.123   9.724 -0.0108 -0.2096  0.9110
  113OSM   H11F11820   5.329  -0.216   9.688  2.2589  1.2257  0.0759
  113OSM   H11G11821   5.356  -0.078   9.792  1.1919 -0.9659  0.1077
  113OSM   C12F11822   5.273  -0.019   9.607  0.0638  0.3328 -0.0816
  113OSM   H12F11823   5.357   0.050   9.631 -0.2746 -0.0794  2.5354
  113OSM   H12G11824   5.177   0.036   9.600 -0.1477  0.0649  0.6282
  113OSM   C13F11825   5.292  -0.078   9.461 -0.0466  0.2060 -0.7692
  113OSM   H13F11826   5.211  -0.155   9.459 -1.8080  1.9792 -1.4513
  113OSM   H13G11827   5.389  -0.132   9.458  0.8295  1.3480  2.5296
  113OSM   C14F11828   5.268   0.027   9.357  0.4624  0.4714 -0.0623
  113OSM   H14F11829   5.333   0.116   9.374 -0.6413  1.8189 -2.3286
  113OSM   H14G11830   5.169   0.076   9.370  0.9536  1.2200  1.0073
  113OSM   C15F11831   5.293  -0.023   9.218  0.3276 -0.6123 -0.9933
  113OSM   H15F11832   5.240  -0.120   9.201  0.4604 -1.0817  0.9786
  113OSM   H15G11833   5.402  -0.015   9.197  0.4639  3.1124  0.4153
  113OSM   C16F11834   5.246   0.085   9.115  0.5449  0.2581 -0.2792
  113OSM   H16F11835   5.320   0.168   9.114  0.1465  0.6216  0.1144
  113OSM   H16G11836   5.147   0.122   9.149  0.1028 -0.5665 -0.6288
  113OSM   C17F11837   5.238   0.030   8.971 -0.2379 -0.6728  0.0491
  113OSM   H17F11838   5.201   0.123   8.922  1.3010  1.0413  1.9343
  113OSM   H17G11839   5.172  -0.058   8.956  1.3198 -1.8705  0.0622
  113OSM   C18F11840   5.371  -0.004   8.916  1.0532  0.2140  0.4802
  113OSM   H18F11841   5.365  -0.010   8.805 -0.6329  1.4218  0.4649
  113OSM   H18G11842   5.410  -0.100   8.957  0.0219 -1.1969 -1.6471
  113OSM   H18H11843   5.438   0.082   8.939  0.9797  0.6067 -0.7269
  114OSM      N11844   1.433   1.486  11.054 -0.7587 -0.0071 -0.2192
  114OSM    C1511845   1.410   1.396  10.934 -0.4560 -0.2521  0.1797
  114OSM   H15A11846   1.360   1.307  10.971  1.6115 -1.0111  1.3184
  114OSM   H15B11847   1.510   1.379  10.899 -0.0113  2.2448  0.0292
  114OSM   H15C11848   1.368   1.448  10.849  1.6644  2.8104  0.8314
  114OSM    C1411849   1.479   1.623  11.019  0.7494  0.6059 -0.0022
  114OSM   H14A11850   1.501   1.678  11.110 -0.4900  0.7578  0.2309
  114OSM   H14B11851   1.406   1.676  10.959 -0.2321 -0.3576  0.3043
  114OSM   H14C11852   1.572   1.609  10.966  0.1513 -0.8211 -0.7287
  114OSM    C1311853   1.307   1.487  11.133 -0.1299 -0.0890  0.1604
  114OSM   H13A11854   1.290   1.384  11.162  0.6621 -0.9046 -2.0609
  114OSM   H13B11855   1.224   1.527  11.077  1.0307  1.5474 -0.4725
  114OSM   H13C11856   1.317   1.558  11.213  0.2608  0.1846 -0.1264
  114OSM    C1211857   1.546   1.429  11.135 -0.9756  0.4737  0.2986
  114OSM   H12A11858   1.517   1.344  11.195  2.2749  1.2231  3.2300
  114OSM   H12B11859   1.588   1.503  11.202  0.8283  0.7249 -1.0351
  114OSM    C1111860   1.670   1.377  11.052  0.6469 -0.3421  0.4113
  114OSM   H11A11861   1.685   1.427  10.954  0.5040 -0.9201  0.0914
  114OSM   H11B11862   1.641   1.272  11.031  1.2195 -0.1009 -1.8711
  114OSM      P11863   1.882   1.501  11.131  0.4118 -0.0052 -0.1837
  114OSM    O1311864   1.808   1.627  11.159  0.1169  0.0619 -0.2796
  114OSM    O1411865   1.993   1.465  11.212  0.5747 -0.2740 -0.8159
  114OSM    O1111866   1.921   1.508  10.977 -0.3847 -0.4400 -0.4639
  114OSM    O1211867   1.784   1.371  11.133  0.0711 -0.2907 -0.2602
  114OSM    C1S11868   1.994   1.422  10.900 -0.1928  0.2955 -0.6942
  114OSM    H1S11869   1.935   1.332  10.873  1.6613 -0.8669 -1.0381
  114OSM    H1T11870   2.077   1.367  10.950  0.8960  1.8357 -0.7158
  114OSM     NF11871   2.077   1.412  10.668 -0.3459  0.3999  0.3019
  114OSM    HNF11872   2.169   1.407  10.630  0.3603 -0.4441  2.0122
  114OSM    C2S11873   2.049   1.501  10.781  0.3097  0.1899  0.0681
  114OSM    H2S11874   1.972   1.570  10.740 -0.7083 -0.4169  0.9426
  114OSM    C3S11875   2.171   1.584  10.824  0.2036  0.5998 -0.3153
  114OSM    H3S11876   2.261   1.521  10.840 -1.5226 -2.2010 -0.9003
  114OSM     O311877   2.163   1.648  10.953  0.3314 -0.3743 -0.2251
  114OSM    HO311878   2.075   1.627  10.987  0.6312 -0.7443  0.3417
  114OSM    C4S11879   2.203   1.689  10.718 -0.0063 -0.2231  0.0210
  114OSM    H4S11880   2.288   1.657  10.657 -0.6039  2.4086 -2.3645
  114OSM    C5S11881   2.150   1.808  10.701  0.1220 -0.6974  0.1789
  114OSM    H5S11882   2.082   1.846  10.780  0.0196 -1.3360  0.3998
  114OSM    C6S11883   2.186   1.910  10.595 -0.5158  0.2634 -0.0015
  114OSM    H6S11884   2.223   2.001  10.646 -0.7965  1.5919 -2.0586
  114OSM    H6T11885   2.096   1.944  10.539  0.7468 -0.4011 -2.6297
  114OSM    C7S11886   2.281   1.864  10.488  0.3720 -0.1181 -0.0117
  114OSM    H7S11887   2.251   1.764  10.449  0.3613  1.4122 -4.5917
  114OSM    H7T11888   2.377   1.842  10.539 -0.9464 -0.6195  2.3907
  114OSM    C8S11889   2.295   1.967  10.376  0.1459 -0.6794 -0.8817
  114OSM    H8S11890   2.321   2.067  10.417  1.9239 -1.1903 -0.6809
  114OSM    H8T11891   2.195   1.990  10.333 -0.6187  2.3259  2.0864
  114OSM    C9S11892   2.389   1.921  10.264 -0.5329 -0.3501  0.7748
  114OSM    H9S11893   2.360   1.817  10.237  2.1331 -1.6231  2.4118
  114OSM    H9T11894   2.494   1.920  10.299 -0.2299 -0.5261 -0.1174
  114OSM   C10S11895   2.381   2.014  10.139  0.2139 -0.6054 -0.0650
  114OSM   H10S11896   2.420   2.113  10.168  1.1425 -1.1440  0.5890
  114OSM   H10T11897   2.274   2.031  10.115  0.5527  0.7034 -0.7018
  114OSM   C11S11898   2.449   1.952  10.018  0.4839 -0.1913 -0.5129
  114OSM   H11S11899   2.400   1.853  10.001 -0.7045  0.4623 -0.9679
  114OSM   H11T11900   2.556   1.928  10.038  0.7132 -0.6325 -2.0728
  114OSM   C12S11901   2.421   2.046   9.900  0.0987  0.4131  0.7366
  114OSM   H12S11902   2.465   2.145   9.926  0.8433  0.7189 -1.5036
  114OSM   H12T11903   2.312   2.066   9.890  0.1455  0.2474 -0.1741
  114OSM   C13S11904   2.469   1.995   9.762 -0.5253  0.5099 -0.0543
  114OSM   H13S11905   2.416   1.899   9.746  0.8093 -0.2915  0.1301
  114OSM   H13T11906   2.580   1.990   9.758 -0.3834  3.0432 -1.9067
  114OSM   C14S11907   2.429   2.108   9.651 -0.0269 -0.8781 -0.4377
  114OSM   H14S11908   2.465   2.208   9.682 -1.8026  0.5149 -2.5434
  114OSM   H14T11909   2.318   2.115   9.651 -0.0830 -1.6241 -0.7297
  114OSM   C15S11910   2.483   2.075   9.512 -0.8494  0.3325 -0.1311
  114OSM   H15S11911   2.594   2.083   9.514 -0.9360  1.7366  0.4534
  114OSM   H15T11912   2.455   2.154   9.439  2.0885  0.0361 -1.7176
  114OSM   C16S11913   2.443   1.931   9.468  0.6771 -0.2838 -0.5465
  114OSM   H16S11914   2.332   1.930   9.453  0.6811 -1.2732 -0.5563
  114OSM   H16T11915   2.462   1.858   9.549  0.4589  1.3647  1.0689
  114OSM   C17S11916   2.515   1.877   9.347 -0.6084  0.7904 -0.0088
  114OSM   H17S11917   2.467   1.778   9.331  1.3599 -0.5723  1.8630
  114OSM   H17T11918   2.622   1.867   9.374 -0.2976  2.3058 -0.5736
  114OSM   C18S11919   2.490   1.953   9.217 -0.4203 -0.4345  0.3493
  114OSM   H18S11920   2.387   1.940   9.177 -0.0263 -0.7319 -0.6199
  114OSM   H18T11921   2.553   1.908   9.137 -0.2853 -1.8087  1.2031
  114OSM   H18U11922   2.506   2.061   9.235  0.5610 -0.6861  1.0421
  114OSM    C1F11923   1.973   1.351  10.610 -0.3262  0.1870 -0.0826
  114OSM     OF11924   1.862   1.381  10.648 -0.0244 -0.6211  0.3253
  114OSM    C2F11925   2.000   1.247  10.500  0.0919  0.3933 -0.5039
  114OSM    H2F11926   1.965   1.154  10.550 -3.2452  0.5178 -2.3408
  114OSM    H2G11927   2.107   1.232  10.473 -0.5783 -1.7547 -2.2523
  114OSM    C3F11928   1.928   1.260  10.364 -0.0393 -0.1607 -0.1047
  114OSM    H3F11929   1.964   1.354  10.318  0.2336  1.0710  2.4393
  114OSM    H3G11930   1.818   1.258  10.381  0.0298 -0.0579  0.3752
  114OSM    C4F11931   1.972   1.145  10.273  0.1925 -0.1175 -0.0212
  114OSM    H4F11932   1.961   1.047  10.324  0.6320 -0.0265  0.2570
  114OSM    H4G11933   2.081   1.158  10.255  0.2506  0.2730  0.6101
  114OSM    C5F11934   1.906   1.146  10.134  0.1266  0.3138 -0.2319
  114OSM    H5F11935   1.917   1.245  10.086 -0.7745  0.2103 -0.6695
  114OSM    H5G11936   1.800   1.115  10.143  0.4800 -0.9784 -0.3179
  114OSM    C6F11937   1.965   1.053  10.029  0.2762  0.4554  0.9540
  114OSM    H6F11938   2.072   1.086  10.022  0.5570 -0.1851  2.0237
  114OSM    H6G11939   1.908   1.075   9.936 -0.9033  1.2306  1.8330
  114OSM    C7F11940   1.946   0.903  10.063  0.4639  0.0164  0.4261
  114OSM    H7F11941   1.842   0.889  10.099 -0.7146 -0.0676 -2.7178
  114OSM    H7G11942   2.010   0.882  10.151  1.4666  0.5685 -0.1548
  114OSM    C8F11943   1.977   0.807   9.946 -0.2517 -0.2622 -1.2808
  114OSM    H8F11944   1.972   0.701   9.977  1.7655 -0.2280 -0.7072
  114OSM    H8G11945   2.084   0.828   9.923 -0.2227  1.2682  0.0847
  114OSM    C9F11946   1.884   0.835   9.835  0.4438  0.1126 -0.0541
  114OSM    H9F11947   1.786   0.874   9.867 -0.2622 -0.4320 -1.4514
  114OSM   C10F11948   1.893   0.827   9.703 -0.4799 -0.6882  0.1163
  114OSM   H10F11949   1.809   0.855   9.639  0.4916  2.9723  0.2185
  114OSM   C11F11950   2.008   0.762   9.628 -0.5134 -0.2693  0.0631
  114OSM   H11F11951   2.042   0.673   9.686 -0.0843 -1.0827 -1.3649
  114OSM   H11G11952   2.094   0.832   9.633  0.1843 -1.0490 -0.5757
  114OSM   C12F11953   1.988   0.720   9.486 -0.0264 -0.3238 -0.1659
  114OSM   H12F11954   1.958   0.811   9.429 -0.8581  0.7762  1.9053
  114OSM   H12G11955   1.907   0.647   9.467 -0.4503 -0.0611  0.6216
  114OSM   C13F11956   2.116   0.673   9.404  0.2231  0.3862  0.6767
  114OSM   H13F11957   2.129   0.572   9.450  0.5838 -0.1161 -0.4713
  114OSM   H13G11958   2.207   0.730   9.433  0.6616  0.2525 -0.3894
  114OSM   C14F11959   2.100   0.686   9.258  0.3777 -0.2964 -0.1837
  114OSM   H14F11960   2.198   0.655   9.215 -0.4361 -2.5354 -0.5465
  114OSM   H14G11961   2.088   0.794   9.233  1.6937 -0.0943  0.0205
  114OSM   C15F11962   1.987   0.604   9.190 -0.2658 -0.0666 -0.0894
  114OSM   H15F11963   1.896   0.613   9.254 -0.4597  1.7109 -0.5767
  114OSM   H15G11964   2.038   0.506   9.175 -1.8539 -1.0461  0.5354
  114OSM   C16F11965   1.946   0.656   9.055 -0.5884  0.5501  0.0130
  114OSM   H16F11966   1.879   0.582   9.006 -1.6261  0.4556  1.5163
  114OSM   H16G11967   2.030   0.675   8.985  0.4789 -1.2392  0.7430
  114OSM   C17F11968   1.863   0.786   9.057 -0.0773 -0.4031 -0.5480
  114OSM   H17F11969   1.922   0.868   9.102 -3.3513  2.0136 -0.2668
  114OSM   H17G11970   1.770   0.776   9.116 -1.1856 -1.2701 -2.3527
  114OSM   C18F11971   1.813   0.820   8.913  0.4822  0.5788 -0.0065
  114OSM   H18F11972   1.730   0.894   8.906  0.3219  0.3494 -0.5937
  114OSM   H18G11973   1.783   0.729   8.857  2.2552 -0.9898  1.4776
  114OSM   H18H11974   1.895   0.864   8.852  0.7005 -0.2048 -0.2989
  115OSM      N11975   4.837   1.094  11.196 -0.0360  0.0061  0.1999
  115OSM    C1511976   4.935   1.181  11.268 -0.3167  0.0738  0.4560
  115OSM   H15A11977   4.885   1.277  11.268  0.1215  0.3026  0.4193
  115OSM   H15B11978   5.030   1.174  11.218 -2.4563 -0.3645 -3.9972
  115OSM   H15C11979   4.943   1.144  11.370 -2.8183 -1.0647  0.3080
  115OSM    C1411980   4.913   0.967  11.176  0.5275 -0.4018  0.3824
  115OSM   H14A11981   4.937   0.920  11.270 -0.5276  1.1141  1.4544
  115OSM   H14B11982   5.015   0.987  11.146 -0.3221  4.5656 -0.0184
  115OSM   H14C11983   4.858   0.892  11.120 -1.2287  0.8388  0.3723
  115OSM    C1311984   4.710   1.076  11.274  0.5501 -0.8492  0.2331
  115OSM   H13A11985   4.720   1.035  11.374  1.5648 -0.4488  0.3093
  115OSM   H13B11986   4.649   0.995  11.237  0.5544 -0.7780  0.0693
  115OSM   H13C11987   4.651   1.162  11.298  1.3163 -0.6385  1.4441
  115OSM    C1211988   4.815   1.150  11.056 -0.3969 -0.7491  0.0821
  115OSM   H12A11989   4.767   1.082  10.987 -2.6155 -0.8738  1.6359
  115OSM   H12B11990   4.911   1.169  11.009 -0.8621 -0.1463 -0.6427
  115OSM    C1111991   4.734   1.279  11.036 -0.6458  0.1189 -0.4243
  115OSM   H11A11992   4.636   1.271  11.087 -1.3047 -0.8338 -1.7648
  115OSM   H11B11993   4.696   1.280  10.932 -0.3046 -0.5360 -0.5623
  115OSM      P11994   4.891   1.471  10.973 -0.3599 -0.3352  0.2489
  115OSM    O1311995   4.966   1.590  11.024  0.6975  0.2912  0.1164
  115OSM    O1411996   4.971   1.375  10.892  0.1770  0.2044 -0.1572
  115OSM    O1111997   4.768   1.524  10.884 -0.4526  0.2536  0.2001
  115OSM    O1211998   4.808   1.395  11.078 -1.0935 -0.1960  0.1940
  115OSM    C1S11999   4.806   1.562  10.753  0.4257  0.0956  0.2516
  115OSM    H1S12000   4.846   1.474  10.698 -0.9368  0.3370 -1.1778
  115OSM    H1T12001   4.874   1.650  10.747 -2.5880  2.7152  1.7199
  115OSM     NF12002   4.737   1.636  10.539  0.4664  0.3314 -0.4060
  115OSM    HNF12003   4.746   1.734  10.521  1.1218 -0.0446 -2.4065
  115OSM    C2S12004   4.683   1.598  10.671 -0.1168 -0.1452  0.3169
  115OSM    H2S12005   4.619   1.507  10.671  0.9414 -0.9244  1.3373
  115OSM    C3S12006   4.596   1.707  10.739 -0.3734  0.5169 -0.2333
  115OSM    H3S12007   4.665   1.794  10.732  0.9185 -0.5100 -0.6745
  115OSM     O312008   4.572   1.690  10.881  0.5556 -0.0167  0.3796
  115OSM    HO312009   4.615   1.605  10.897 -1.1862 -1.6531 -2.6475
  115OSM    C4S12010   4.470   1.711  10.662  1.2579 -0.7124  0.2674
  115OSM    H4S12011   4.465   1.805  10.606  1.1798 -0.2349  1.0733
  115OSM    C5S12012   4.364   1.619  10.662  0.8721  0.0084 -0.0025
  115OSM    H5S12013   4.369   1.523  10.716 -0.3701  0.5692  1.1595
  115OSM    C6S12014   4.248   1.635  10.565 -0.2627  0.0079 -0.2152
  115OSM    H6S12015   4.279   1.695  10.476  1.1408  0.8174  0.7757
  115OSM    H6T12016   4.165   1.686  10.616 -0.1916  0.7308 -0.8021
  115OSM    C7S12017   4.179   1.508  10.511 -0.3097  0.2862  0.3800
  115OSM    H7S12018   4.149   1.449  10.601 -3.1072 -0.2581 -0.7887
  115OSM    H7T12019   4.258   1.453  10.456 -1.6587 -0.1616 -1.2006
  115OSM    C8S12020   4.054   1.544  10.418 -0.1816  1.3778  0.2405
  115OSM    H8S12021   3.987   1.605  10.482 -0.3902  0.3022  1.0716
  115OSM    H8T12022   3.986   1.459  10.395  1.2901  0.4910 -1.0504
  115OSM    C9S12023   4.070   1.617  10.290 -0.8392 -0.4315  0.4796
  115OSM    H9S12024   4.114   1.717  10.310 -1.3968  0.0080 -0.4044
  115OSM    H9T12025   3.971   1.633  10.241 -0.7023 -1.5468 -0.2090
  115OSM   C10S12026   4.153   1.530  10.191  0.5503  0.4631 -0.1134
  115OSM   H10S12027   4.091   1.438  10.189  0.7617  0.3071  0.3482
  115OSM   H10T12028   4.251   1.492  10.229 -0.1244 -0.1304  1.1214
  115OSM   C11S12029   4.161   1.578  10.049  0.3981  0.4719 -0.2107
  115OSM   H11S12030   4.232   1.513   9.995 -0.5707 -0.4952 -0.3470
  115OSM   H11T12031   4.204   1.681  10.049  0.4422  0.4675 -1.4629
  115OSM   C12S12032   4.021   1.590   9.982  0.5587 -0.0856  0.3849
  115OSM   H12S12033   4.044   1.654   9.894 -2.6345  1.5771  0.5836
  115OSM   H12T12034   3.952   1.656  10.039 -1.4998 -0.1668 -1.8973
  115OSM   C13S12035   3.950   1.458   9.938  0.4133 -0.1130  0.3921
  115OSM   H13S12036   3.887   1.418  10.021 -0.0478 -2.2831 -0.9269
  115OSM   H13T12037   4.018   1.376   9.909 -0.5948 -0.6462 -0.5785
  115OSM   C14S12038   3.856   1.479   9.824 -0.2016  0.0836  0.4917
  115OSM   H14S12039   3.802   1.576   9.835  0.7884  1.0623 -2.1593
  115OSM   H14T12040   3.783   1.396   9.815 -1.7806  0.9781  3.7146
  115OSM   C15S12041   3.925   1.514   9.687  0.0283 -0.4126 -0.2409
  115OSM   H15S12042   3.983   1.423   9.659 -0.9692 -0.7311 -1.3660
  115OSM   H15T12043   4.005   1.587   9.711  1.6686 -1.8674 -1.1061
  115OSM   C16S12044   3.833   1.562   9.572 -0.7047  0.2492  0.9940
  115OSM   H16S12045   3.794   1.665   9.589 -1.6436 -0.3149  2.4992
  115OSM   H16T12046   3.745   1.497   9.587  0.1206 -0.8649  1.0881
  115OSM   C17S12047   3.897   1.553   9.438  0.2245 -0.8445 -0.7361
  115OSM   H17S12048   3.989   1.614   9.433 -0.2618  0.0149  0.4555
  115OSM   H17T12049   3.821   1.583   9.362  0.9480 -1.2781 -1.6587
  115OSM   C18S12050   3.933   1.413   9.396 -0.3875 -0.2606  1.1549
  115OSM   H18S12051   3.985   1.348   9.470  0.8521 -1.3461 -0.6005
  115OSM   H18T12052   4.000   1.420   9.308 -0.6827 -1.5153  0.8081
  115OSM   H18U12053   3.836   1.368   9.366 -0.5289 -0.2305  1.5593
  115OSM    C1F12054   4.791   1.550  10.453  0.2728  0.3629 -0.2189
  115OSM     OF12055   4.774   1.429  10.470  0.2223  0.2703 -0.3829
  115OSM    C2F12056   4.864   1.608  10.340 -0.3334 -0.0963 -0.0055
  115OSM    H2F12057   4.973   1.606  10.363 -0.5975 -1.4026  1.2920
  115OSM    H2G12058   4.835   1.715  10.330 -2.6376 -0.6476  0.2572
  115OSM    C3F12059   4.827   1.531  10.201  0.6311  0.2689 -0.0173
  115OSM    H3F12060   4.716   1.518  10.198  0.7023 -0.2451 -0.5670
  115OSM    H3G12061   4.866   1.428  10.209 -1.7108 -0.6155  1.1611
  115OSM    C4F12062   4.881   1.609  10.079  0.5576  0.3212 -0.4503
  115OSM    H4F12063   4.986   1.644  10.089  0.6163  0.0138  0.0684
  115OSM    H4G12064   4.840   1.712  10.081 -0.0484  0.0706  0.4726
  115OSM    C5F12065   4.845   1.540   9.946 -0.3943 -0.5036  0.4099
  115OSM    H5F12066   4.748   1.489   9.961 -0.0038 -0.8235  2.0821
  115OSM    H5G12067   4.928   1.467   9.936  0.0771 -0.0180  0.6893
  115OSM    C6F12068   4.840   1.628   9.819 -0.9146  0.1492  0.3201
  115OSM    H6F12069   4.936   1.682   9.832  0.4184 -0.6304 -4.3630
  115OSM    H6G12070   4.751   1.694   9.831  0.3019  1.7210  1.0215
  115OSM    C7F12071   4.838   1.550   9.693 -0.1008  0.4765 -0.7105
  115OSM    H7F12072   4.749   1.485   9.684  0.0471  0.0619  0.6187
  115OSM    H7G12073   4.918   1.474   9.704  0.3043  0.7810 -1.4544
  115OSM    C8F12074   4.860   1.628   9.563 -0.3570 -0.1019  0.5658
  115OSM    H8F12075   4.947   1.694   9.583  0.7110 -1.5464  0.8681
  115OSM    H8G12076   4.771   1.693   9.551  0.2291  0.7408  0.7027
  115OSM    C9F12077   4.900   1.554   9.443  0.1814 -0.2238 -0.0883
  115OSM    H9F12078   4.993   1.496   9.454 -0.3828 -1.0079  0.7721
  115OSM   C10F12079   4.832   1.547   9.322  0.2040  0.2672 -0.1495
  115OSM   H10F12080   4.883   1.481   9.251 -0.2406 -0.2494  0.0097
  115OSM   C11F12081   4.696   1.600   9.281 -0.6098  0.2742 -0.2312
  115OSM   H11F12082   4.668   1.645   9.379  1.7842  0.2454  0.5146
  115OSM   H11G12083   4.631   1.516   9.249  1.3789 -0.5078 -2.3944
  115OSM   C12F12084   4.722   1.715   9.186  0.5038  0.3061 -0.5499
  115OSM   H12F12085   4.795   1.778   9.240  0.4987  0.2072 -0.4279
  115OSM   H12G12086   4.633   1.779   9.169  0.3183  0.2387  0.1471
  115OSM   C13F12087   4.782   1.658   9.058 -0.5327  0.6210 -0.1252
  115OSM   H13F12088   4.742   1.558   9.033 -0.0892  0.2205  0.7665
  115OSM   H13G12089   4.890   1.636   9.066 -0.4493  0.9775 -0.2407
  115OSM   C14F12090   4.769   1.768   8.949 -0.3039 -0.4853  0.4159
  115OSM   H14F12091   4.794   1.862   9.003 -0.5911 -1.0058  1.4851
  115OSM   H14G12092   4.663   1.778   8.917  0.2652 -1.4086 -1.9956
  115OSM   C15F12093   4.863   1.739   8.824 -0.7277  0.8033 -0.2894
  115OSM   H15F12094   4.828   1.645   8.777 -1.6878  0.8573  0.2982
  115OSM   H15G12095   4.968   1.730   8.859 -1.3692  3.0183  2.6954
  115OSM   C16F12096   4.849   1.851   8.720  0.0713  0.4771  0.4168
  115OSM   H16F12097   4.739   1.859   8.702 -0.4347 -2.5913  1.5986
  115OSM   H16G12098   4.895   1.826   8.622  1.4815 -1.2703  1.4805
  115OSM   C17F12099   4.912   1.984   8.772  0.6979 -0.0342  0.7668
  115OSM   H17F12100   4.992   2.022   8.704 -0.0665  2.5040  1.1630
  115OSM   H17G12101   4.971   1.964   8.864  2.8939 -0.6159 -0.6916
  115OSM   C18F12102   4.812   2.095   8.800  0.3922 -0.5760  0.5878
  115OSM   H18F12103   4.868   2.178   8.848 -1.0879  0.1685  1.0978
  115OSM   H18G12104   4.739   2.081   8.883  0.4108  1.7752  1.0748
  115OSM   H18H12105   4.758   2.130   8.708  1.7045 -0.0004  0.0132
  116OSM      N12106   1.238   4.440  11.075 -0.1523  0.3872 -0.3412
  116OSM    C1512107   1.340   4.393  11.175  0.5458 -0.1809 -0.5523
  116OSM   H15A12108   1.299   4.415  11.273  0.8323  0.5841 -0.5940
  116OSM   H15B12109   1.436   4.442  11.174 -0.5375  2.3080  2.1218
  116OSM   H15C12110   1.356   4.287  11.178 -0.7633 -0.4020 -0.6653
  116OSM    C1412111   1.112   4.361  11.094 -0.7177 -0.2589  0.2716
  116OSM   H14A12112   1.027   4.378  11.030 -1.0564  0.0073  0.7851
  116OSM   H14B12113   1.091   4.371  11.199  0.8747 -0.4418  0.6401
  116OSM   H14C12114   1.135   4.256  11.089  0.1454 -0.0596 -0.2238
  116OSM    C1312115   1.210   4.582  11.090 -0.1153 -0.2896 -0.5762
  116OSM   H13A12116   1.308   4.628  11.092  0.7540 -2.0536  2.0581
  116OSM   H13B12117   1.164   4.602  11.185  1.0936  0.3757 -0.1136
  116OSM   H13C12118   1.155   4.621  11.006  0.9067 -2.3108 -2.2904
  116OSM    C1212119   1.285   4.403  10.940  0.1312  0.1470  0.8626
  116OSM   H12A12120   1.212   4.431  10.866  1.0480  0.9951  0.2586
  116OSM   H12B12121   1.281   4.295  10.939 -1.1744  0.1770  1.2186
  116OSM    C1112122   1.418   4.457  10.893 -0.3273 -0.3880 -0.2778
  116OSM   H11A12123   1.422   4.568  10.892  2.0950 -0.4143 -1.0700
  116OSM   H11B12124   1.433   4.435  10.785 -1.2319 -2.3016 -0.0427
  116OSM      P12125   1.556   4.235  10.930 -0.1376 -0.9432 -0.0795
  116OSM    O1312126   1.680   4.199  10.999 -0.0785  0.7175 -0.2354
  116OSM    O1412127   1.429   4.164  10.956  0.0619  0.5560  0.2322
  116OSM    O1112128   1.585   4.225  10.777  0.5099  0.5970 -0.0292
  116OSM    O1212129   1.533   4.398  10.955 -0.2680 -0.1978  0.2612
  116OSM    C1S12130   1.707   4.263  10.717 -0.2280 -0.3245 -0.2466
  116OSM    H1S12131   1.786   4.192  10.752  0.4319 -0.1481 -1.3005
  116OSM    H1T12132   1.744   4.364  10.744 -0.9253  0.5014 -2.1644
  116OSM     NF12133   1.832   4.267  10.501  0.1230  0.3837  0.3706
  116OSM    HNF12134   1.862   4.357  10.469 -0.5920  1.0535  1.5386
  116OSM    C2S12135   1.699   4.252  10.563 -0.0350  0.0874  0.0493
  116OSM    H2S12136   1.658   4.153  10.533 -1.6327  0.6353  0.3288
  116OSM    C3S12137   1.597   4.350  10.505  0.0652 -0.7431 -0.1651
  116OSM    H3S12138   1.618   4.452  10.544 -1.4245  0.2098 -1.6872
  116OSM     O312139   1.462   4.323  10.549  0.4632  0.3485  0.3007
  116OSM    HO312140   1.471   4.261  10.622 -1.8171 -0.2156  0.1761
  116OSM    C4S12141   1.596   4.354  10.356  0.3404  0.3202 -0.7243
  116OSM    H4S12142   1.526   4.275  10.324  0.4271 -0.0696  0.0333
  116OSM    C5S12143   1.659   4.437  10.272  0.2502  0.1060 -0.1238
  116OSM    H5S12144   1.734   4.515  10.294  1.3171 -0.4467 -1.6383
  116OSM    C6S12145   1.647   4.429  10.124  0.1540 -0.5451  0.3937
  116OSM    H6S12146   1.573   4.349  10.103 -0.4759  0.0176  0.4450
  116OSM    H6T12147   1.746   4.389  10.093 -0.1136 -1.2934  0.4807
  116OSM    C7S12148   1.608   4.561  10.058  0.1490 -0.1415  0.9721
  116OSM    H7S12149   1.694   4.628  10.077 -0.8188  1.5243 -0.1843
  116OSM    H7T12150   1.511   4.606  10.089 -0.6566 -1.0977 -0.0903
  116OSM    C8S12151   1.594   4.529   9.906 -0.0462 -0.2489  0.1364
  116OSM    H8S12152   1.500   4.473   9.885  0.2530 -0.5471 -0.4239
  116OSM    H8T12153   1.678   4.459   9.890  0.1872  0.1140 -0.2536
  116OSM    C9S12154   1.631   4.650   9.819 -0.0633 -0.3603 -0.4635
  116OSM    H9S12155   1.742   4.643   9.820 -0.0965 -2.3372  2.3366
  116OSM    H9T12156   1.596   4.751   9.847  0.0546  0.7833 -3.9473
  116OSM   C10S12157   1.581   4.619   9.682  0.4639 -0.1466  0.3454
  116OSM   H10S12158   1.471   4.602   9.681  0.4507 -0.0577 -0.0621
  116OSM   H10T12159   1.609   4.515   9.652  0.1229  0.2523 -1.5133
  116OSM   C11S12160   1.624   4.713   9.572  0.6429  0.7842 -0.3559
  116OSM   H11S12161   1.730   4.730   9.598  0.4634 -1.4911  2.3196
  116OSM   H11T12162   1.577   4.813   9.564  1.7905  1.2698 -1.3153
  116OSM   C12S12163   1.611   4.650   9.439  0.4933 -0.8288 -0.1089
  116OSM   H12S12164   1.641   4.545   9.419  0.3514 -0.7800 -0.6029
  116OSM   H12T12165   1.678   4.712   9.375  0.6704 -1.5914 -0.6843
  116OSM   C13S12166   1.468   4.662   9.384  0.0202  0.9082 -0.1162
  116OSM   H13S12167   1.432   4.763   9.415  0.9603  0.8576  1.2382
  116OSM   H13T12168   1.398   4.580   9.410  2.7444 -0.8162  2.5088
  116OSM   C14S12169   1.458   4.666   9.234 -0.5081 -0.2210  0.0146
  116OSM   H14S12170   1.349   4.660   9.212 -0.4259 -0.7637 -0.2900
  116OSM   H14T12171   1.513   4.588   9.176  0.6487  3.0882 -3.8214
  116OSM   C15S12172   1.501   4.802   9.183 -0.5518  0.1600 -0.0504
  116OSM   H15S12173   1.603   4.824   9.220  1.4981 -0.5811 -4.5649
  116OSM   H15T12174   1.429   4.871   9.232 -0.1103 -2.3618  4.7190
  116OSM   C16S12175   1.505   4.819   9.030  0.4970  0.0185  0.2692
  116OSM   H16S12176   1.400   4.820   8.991  1.5070  1.5540 -2.7541
  116OSM   H16T12177   1.564   4.746   8.971  1.2021  1.0968 -0.3934
  116OSM   C17S12178   1.560   4.960   8.989  0.2380  0.7769 -0.2385
  116OSM   H17S12179   1.597   4.944   8.885  1.3005 -0.5608  0.3192
  116OSM   H17T12180   1.652   4.961   9.051  0.7733 -2.2982 -0.8412
  116OSM   C18S12181   1.452   5.070   8.994 -0.0359  0.0689 -0.7378
  116OSM   H18S12182   1.465   5.170   8.947 -1.5397  0.0045 -1.3374
  116OSM   H18T12183   1.422   5.095   9.098  1.3040  3.3805 -1.0232
  116OSM   H18U12184   1.367   5.021   8.942 -1.5187 -0.2062  1.7802
  116OSM    C1F12185   1.920   4.168  10.506  0.3729  0.1667 -0.5733
  116OSM     OF12186   1.880   4.050  10.529 -0.3071  0.2613 -0.1097
  116OSM    C2F12187   2.061   4.189  10.476 -0.8007 -0.7226 -0.3630
  116OSM    H2F12188   2.118   4.149  10.563 -2.9051  0.6619  1.8023
  116OSM    H2G12189   2.083   4.294  10.448 -0.5557  0.0195  2.2901
  116OSM    C3F12190   2.111   4.103  10.361  0.0908  0.5792  0.4121
  116OSM    H3F12191   2.089   3.997  10.387  1.9892 -0.3140 -1.3150
  116OSM    H3G12192   2.219   4.122  10.342  0.6605 -2.0387  0.5703
  116OSM    C4F12193   2.029   4.135  10.233 -0.0504  0.7736 -0.6240
  116OSM    H4F12194   2.045   4.243  10.209  1.9452  0.8533  0.7598
  116OSM    H4G12195   1.921   4.120  10.254 -0.0129  1.5492  0.2151
  116OSM    C5F12196   2.065   4.049  10.112  0.8198 -0.7957  0.6725
  116OSM    H5F12197   2.081   3.940  10.128  0.3659 -0.7218  1.7404
  116OSM    H5G12198   2.165   4.092  10.087 -0.4471  2.7889  1.1207
  116OSM    C6F12199   1.960   4.090  10.007  0.3759  0.0572  0.4130
  116OSM    H6F12200   1.953   4.199   9.985 -1.2385 -0.2898 -0.9735
  116OSM    H6G12201   1.856   4.060  10.031  0.1745 -1.9182 -2.4042
  116OSM    C7F12202   1.984   4.011   9.877 -0.0738 -0.1629 -0.4818
  116OSM    H7F12203   1.913   4.031   9.795  1.6941  0.9146 -1.8161
  116OSM    H7G12204   1.969   3.904   9.904  1.0582 -0.2021  0.0754
  116OSM    C8F12205   2.127   4.028   9.815  0.8125 -0.3571 -0.1232
  116OSM    H8F12206   2.136   3.941   9.748  1.1417 -2.5186  2.5645
  116OSM    H8G12207   2.209   4.012   9.888  1.5959  0.4264 -0.8161
  116OSM    C9F12208   2.131   4.164   9.746  0.1998  0.1380  0.5499
  116OSM    H9F12209   2.120   4.244   9.821 -0.9622 -0.0047  0.5352
  116OSM   C10F12210   2.152   4.205   9.618  0.3943  0.7780  0.6390
  116OSM   H10F12211   2.165   4.312   9.597 -1.4146  0.5240 -2.3916
  116OSM   C11F12212   2.187   4.099   9.514 -0.2227  0.4067 -0.5971
  116OSM   H11F12213   2.132   4.004   9.530  2.1725 -0.4984  3.6699
  116OSM   H11G12214   2.292   4.064   9.521 -0.3597 -0.4997 -2.3297
  116OSM   C12F12215   2.186   4.158   9.371 -0.2726 -0.0280 -0.0679
  116OSM   H12F12216   2.262   4.240   9.366  1.3835 -1.3730  1.6830
  116OSM   H12G12217   2.086   4.204   9.353 -0.5803 -0.5367  0.3216
  116OSM   C13F12218   2.207   4.040   9.272  0.1899  0.6453 -0.0414
  116OSM   H13F12219   2.132   3.960   9.286 -0.2264  0.8894 -0.8010
  116OSM   H13G12220   2.309   4.006   9.299 -0.0832  0.7278  1.1745
  116OSM   C14F12221   2.199   4.076   9.124 -0.2448  0.0580 -0.3819
  116OSM   H14F12222   2.290   4.137   9.107 -1.7729  2.7811  0.5717
  116OSM   H14G12223   2.107   4.136   9.107 -0.6377 -0.2434  0.6187
  116OSM   C15F12224   2.199   3.963   9.024 -0.1194  1.3123  0.5806
  116OSM   H15F12225   2.099   3.914   9.023  0.4329  0.1506  0.4220
  116OSM   H15G12226   2.273   3.889   9.062 -0.9700 -0.2145 -0.5710
  116OSM   C16F12227   2.230   4.005   8.880 -0.2795 -0.2790  0.3628
  116OSM   H16F12228   2.329   4.054   8.872 -0.1777 -0.6065 -0.3714
  116OSM   H16G12229   2.158   4.084   8.849  0.9617  0.2332 -1.2973
  116OSM   C17F12230   2.232   3.892   8.784  0.2568 -0.3932 -0.3722
  116OSM   H17F12231   2.147   3.822   8.799  0.5910 -0.5922  0.6336
  116OSM   H17G12232   2.328   3.842   8.810  0.3690  0.3393  0.6495
  116OSM   C18F12233   2.225   3.937   8.636 -0.1768 -0.2700 -0.3207
  116OSM   H18F12234   2.137   4.006   8.634  0.6621  0.8175 -0.9902
  116OSM   H18G12235   2.198   3.856   8.565  0.1915 -1.5682  0.9712
  116OSM   H18H12236   2.317   3.994   8.609 -0.2635 -0.8632 -1.9806
  117OSM      N12237   5.460   4.983  11.415 -0.0937  0.1073 -0.9251
  117OSM    C1512238   5.338   4.919  11.476  0.6161  0.4852 -0.0765
  117OSM   H15A12239   5.338   4.932  11.583  0.0198  2.8837 -0.3070
  117OSM   H15B12240   5.328   4.814  11.452 -0.1594  1.2551 -3.7231
  117OSM   H15C12241   5.250   4.962  11.431  0.6729 -0.2995 -0.9893
  117OSM    C1412242   5.474   5.134  11.451  0.2057  0.1529  0.3296
  117OSM   H14A12243   5.400   5.196  11.402  0.4421 -0.3837 -0.7206
  117OSM   H14B12244   5.570   5.171  11.420  0.7488  0.3989  2.1752
  117OSM   H14C12245   5.464   5.145  11.558  2.1523 -2.3040  0.8573
  117OSM    C1312246   5.581   4.926  11.476 -0.3747  0.5616 -0.0721
  117OSM   H13A12247   5.599   4.826  11.440  2.1084  0.8591  0.1518
  117OSM   H13B12248   5.571   4.920  11.583 -1.3540  0.1954 -0.1782
  117OSM   H13C12249   5.670   4.978  11.442 -0.1924 -0.7438 -1.7173
  117OSM    C1212250   5.460   4.976  11.261 -0.2071 -0.3695 -0.6412
  117OSM   H12A12251   5.372   5.020  11.216 -0.0503  1.3477  0.6308
  117OSM   H12B12252   5.454   4.870  11.244 -0.0813 -1.0361  2.6685
  117OSM    C1112253   5.588   5.014  11.182  0.0350 -0.0153  0.8163
  117OSM   H11A12254   5.554   5.002  11.077 -2.1223 -1.2455  1.5938
  117OSM   H11B12255   5.669   4.943  11.209  0.3069 -0.2257 -0.4466
  117OSM      P12256   5.787   5.195  11.181  0.2541  0.0322 -0.0692
  117OSM    O1312257   5.770   5.335  11.139  0.1607 -0.5393 -0.0796
  117OSM    O1412258   5.868   5.179  11.307 -0.2060 -0.2033  0.6366
  117OSM    O1112259   5.836   5.111  11.061 -0.6196  0.8636  0.7670
  117OSM    O1212260   5.637   5.145  11.203 -0.3731  0.5571 -0.0478
  117OSM    C1S12261   5.778   5.109  10.930 -0.4069  0.2191  0.1834
  117OSM    H1S12262   5.712   5.197  10.916  1.2375  1.3823 -0.5192
  117OSM    H1T12263   5.731   5.008  10.930  1.2050 -0.6216 -2.2139
  117OSM     NF12264   5.814   5.126  10.693 -0.1090  0.3950  0.2915
  117OSM    HNF12265   5.817   5.051  10.628 -0.0895  0.6067  0.0478
  117OSM    C2S12266   5.885   5.108  10.815 -0.7675 -0.4399  0.4850
  117OSM    H2S12267   5.957   5.191  10.827  0.3466 -1.0675 -1.3779
  117OSM    C3S12268   5.976   4.992  10.813  0.3528  0.4897 -0.2529
  117OSM    H3S12269   5.922   4.896  10.806 -0.9299  1.2438 -1.2368
  117OSM     O312270   6.042   4.972  10.937 -0.0652  0.3359  0.0042
  117OSM    HO312271   5.997   5.031  10.998  0.6669 -1.1025  2.0319
  117OSM    C4S12272   6.073   5.001  10.701  0.3270 -0.4785  0.1234
  117OSM    H4S12273   6.118   5.102  10.703  1.4482 -0.9499 -0.4765
  117OSM    C5S12274   6.093   4.910  10.605  0.0801  0.2177 -0.1031
  117OSM    H5S12275   6.064   4.804  10.610  1.5825 -0.2671 -0.8982
  117OSM    C6S12276   6.174   4.936  10.485  0.7350  0.3059  0.5376
  117OSM    H6S12277   6.262   4.868  10.485 -0.1175 -0.8420  1.6022
  117OSM    H6T12278   6.223   5.036  10.479 -0.0585  0.6989  0.3756
  117OSM    C7S12279   6.098   4.896  10.357  0.0179  0.3178 -0.2448
  117OSM    H7S12280   6.004   4.954  10.345 -1.1881 -1.8858 -2.2722
  117OSM    H7T12281   6.080   4.787  10.369 -0.4618  0.3447 -0.6524
  117OSM    C8S12282   6.194   4.924  10.244 -0.3827  0.1021  0.3720
  117OSM    H8S12283   6.296   4.883  10.258  0.5093  1.8994 -0.5219
  117OSM    H8T12284   6.222   5.031  10.257  4.1649 -1.1154  2.8044
  117OSM    C9S12285   6.140   4.889  10.103  0.6584  0.7005  0.6192
  117OSM    H9S12286   6.042   4.940  10.096 -0.1150 -0.7122  1.0141
  117OSM    H9T12287   6.127   4.779  10.097  0.2922  0.7544  0.4576
  117OSM   C10S12288   6.228   4.937   9.986 -0.1609  0.3842  0.1199
  117OSM   H10S12289   6.329   4.890   9.991 -0.2560 -0.0843 -1.6177
  117OSM   H10T12290   6.239   5.048   9.996 -0.4539  0.2735  2.0695
  117OSM   C11S12291   6.169   4.911   9.847 -0.4954  0.4273  0.8444
  117OSM   H11S12292   6.072   4.959   9.821 -0.3690 -0.3609 -1.2540
  117OSM   H11T12293   6.165   4.801   9.833 -1.1063  0.6523 -1.0609
  117OSM   C12S12294   6.273   4.965   9.739 -0.3394 -1.2283 -0.1373
  117OSM   H12S12295   6.380   4.934   9.739  0.6690  1.7534 -2.9814
  117OSM   H12T12296   6.276   5.074   9.759  0.1091 -0.8474 -2.0769
  117OSM   C13S12297   6.220   4.955   9.599  0.5162 -0.0986 -0.6626
  117OSM   H13S12298   6.123   5.010   9.603  0.3039 -0.4789 -0.4631
  117OSM   H13T12299   6.196   4.851   9.569  1.3068 -0.4169 -0.2251
  117OSM   C14S12300   6.291   5.042   9.490  0.1396  0.2152 -0.5857
  117OSM   H14S12301   6.329   5.130   9.544 -0.7637 -0.4793  1.2781
  117OSM   H14T12302   6.224   5.065   9.404 -0.7405 -1.7047 -0.4896
  117OSM   C15S12303   6.410   4.966   9.433  0.1834 -0.4351 -0.2458
  117OSM   H15S12304   6.390   4.865   9.392  2.7160 -0.2950 -2.0852
  117OSM   H15T12305   6.477   4.941   9.518 -1.8569 -1.9773  1.0031
  117OSM   C16S12306   6.489   5.042   9.327  0.2202 -0.2062  0.0884
  117OSM   H16S12307   6.588   4.999   9.301  0.7335  2.3306 -2.6809
  117OSM   H16T12308   6.504   5.150   9.349 -0.7016  0.3622 -1.9133
  117OSM   C17S12309   6.431   5.044   9.188 -0.4461  0.2266  0.0014
  117OSM   H17S12310   6.330   5.091   9.196  0.5185  2.5996 -0.6563
  117OSM   H17T12311   6.410   4.940   9.154 -1.5839 -0.6444  3.0723
  117OSM   C18S12312   6.512   5.119   9.083 -0.0539 -0.2387  0.0768
  117OSM   H18S12313   6.460   5.113   8.985 -0.8033 -0.9806  0.5019
  117OSM   H18T12314   6.610   5.068   9.080  0.4111  0.5590  1.2659
  117OSM   H18U12315   6.531   5.222   9.119 -2.4357 -0.3843  2.0460
  117OSM    C1F12316   5.753   5.243  10.663 -0.6559 -0.8987  0.3751
  117OSM     OF12317   5.776   5.346  10.730 -0.1518 -0.3943  0.4663
  117OSM    C2F12318   5.669   5.249  10.538 -0.4205  0.0549  0.3551
  117OSM    H2F12319   5.629   5.352  10.524 -0.4320 -0.0965 -0.8358
  117OSM    H2G12320   5.591   5.172  10.552 -1.0080  0.5908  0.1019
  117OSM    C3F12321   5.743   5.218  10.404  0.0895  0.0930 -0.8387
  117OSM    H3F12322   5.815   5.136  10.425 -0.5884 -0.7453 -1.7158
  117OSM    H3G12323   5.813   5.303  10.388  1.1820  0.0034  2.6096
  117OSM    C4F12324   5.659   5.175  10.279 -0.2723 -0.3597  0.0660
  117OSM    H4F12325   5.585   5.256  10.259 -1.2100 -1.2152 -0.0190
  117OSM    H4G12326   5.605   5.079  10.294 -1.6704  0.4910  0.8090
  117OSM    C5F12327   5.752   5.175  10.153  0.4071 -0.0096 -0.1422
  117OSM    H5F12328   5.853   5.139  10.183 -0.2724 -1.6425  0.3141
  117OSM    H5G12329   5.769   5.277  10.114 -1.1733  0.6976  0.9339
  117OSM    C6F12330   5.704   5.092  10.031 -0.2434  0.5757  0.4971
  117OSM    H6F12331   5.606   5.132   9.997 -0.9166 -0.9247  0.5815
  117OSM    H6G12332   5.681   4.995  10.081  0.8711  1.3503  2.6281
  117OSM    C7F12333   5.816   5.091   9.917 -0.0590  0.1070 -0.4348
  117OSM    H7F12334   5.907   5.039   9.952  2.0636  2.1593 -2.5181
  117OSM    H7G12335   5.832   5.196   9.885  3.6271  0.2283  1.2874
  117OSM    C8F12336   5.767   5.023   9.788  0.3801  0.3493 -0.6317
  117OSM    H8F12337   5.730   4.923   9.821 -0.8592  0.6229 -1.1391
  117OSM    H8G12338   5.859   5.020   9.726  1.8247 -0.0552  1.4442
  117OSM    C9F12339   5.656   5.096   9.716  0.0321  0.3184  0.3150
  117OSM    H9F12340   5.570   5.124   9.778  0.5097  0.1921  1.0569
  117OSM   C10F12341   5.662   5.158   9.594 -0.2220  0.1073 -0.5329
  117OSM   H10F12342   5.569   5.208   9.564 -0.7374 -0.2379  0.4493
  117OSM   C11F12343   5.776   5.167   9.503 -0.0276  0.7538 -0.0968
  117OSM   H11F12344   5.868   5.130   9.553 -1.6986 -2.5243  0.8383
  117OSM   H11G12345   5.791   5.271   9.467  1.4072  0.7400  0.3901
  117OSM   C12F12346   5.758   5.075   9.374  1.0362  0.0481  0.3975
  117OSM   H12F12347   5.733   4.973   9.410 -0.8965  1.1423  2.4612
  117OSM   H12G12348   5.851   5.065   9.314  2.1947  1.1822  1.8954
  117OSM   C13F12349   5.651   5.136   9.277 -0.1322 -0.7169  0.8456
  117OSM   H13F12350   5.688   5.229   9.227 -1.7122 -0.6319 -0.2675
  117OSM   H13G12351   5.560   5.170   9.330  0.6713 -1.2896  2.6421
  117OSM   C14F12352   5.612   5.040   9.166  0.0720  0.0928 -0.1261
  117OSM   H14F12353   5.538   4.964   9.198  1.1962 -0.5409  1.0229
  117OSM   H14G12354   5.703   4.989   9.127 -0.7120 -0.4471 -1.2969
  117OSM   C15F12355   5.553   5.126   9.056  0.0166 -0.4349  0.0201
  117OSM   H15F12356   5.622   5.197   9.005  0.5466 -1.7117 -1.1216
  117OSM   H15G12357   5.468   5.185   9.097  1.8827  0.9079  2.2048
  117OSM   C16F12358   5.481   5.043   8.952  0.2398 -0.0809  0.1864
  117OSM   H16F12359   5.423   4.960   8.998  3.5734 -2.7248  0.1203
  117OSM   H16G12360   5.569   5.011   8.891  1.3414  2.6727  0.1882
  117OSM   C17F12361   5.399   5.130   8.852 -0.5899  0.1141 -0.1062
  117OSM   H17F12362   5.457   5.215   8.810  0.2022 -0.3669 -0.0105
  117OSM   H17G12363   5.325   5.194   8.904  1.8409  3.6434 -0.6194
  117OSM   C18F12364   5.337   5.048   8.740 -0.2337  0.4073  0.3396
  117OSM   H18F12365   5.410   4.977   8.695 -0.3982 -1.1517  2.3972
  117OSM   H18G12366   5.294   5.109   8.657  2.0680  1.9464  0.2058
  117OSM   H18H12367   5.253   4.994   8.788  0.0378  1.5223  2.1430
  118OSM      N12368   6.422   0.328  11.264  0.2168  0.1237  0.8269
  118OSM    C1512369   6.499   0.293  11.389 -0.3798 -0.4926  0.4494
  118OSM   H15A12370   6.525   0.385  11.439  0.9959 -0.3605 -0.4691
  118OSM   H15B12371   6.593   0.244  11.370  1.3431  1.4436  3.2007
  118OSM   H15C12372   6.441   0.237  11.461  0.8959 -2.0145  0.3499
  118OSM    C1412373   6.309   0.420  11.305  0.5808  0.0826 -0.3625
  118OSM   H14A12374   6.253   0.453  11.218  1.2702  0.7229 -0.5720
  118OSM   H14B12375   6.349   0.509  11.351 -0.3387  0.3945 -0.1390
  118OSM   H14C12376   6.233   0.372  11.364 -2.7081  1.6977 -2.9067
  118OSM    C1312377   6.519   0.387  11.174  0.1833  0.1168  0.3311
  118OSM   H13A12378   6.474   0.441  11.092 -0.1154  1.6835  1.4775
  118OSM   H13B12379   6.597   0.319  11.144  1.4812  1.2017  1.1499
  118OSM   H13C12380   6.572   0.463  11.229 -0.3853  2.1774 -1.8201
  118OSM    C1212381   6.359   0.200  11.211 -0.2824  0.1379 -0.7759
  118OSM   H12A12382   6.291   0.157  11.283  0.1133  0.5019 -0.1721
  118OSM   H12B12383   6.443   0.132  11.201  0.2239  0.9647 -2.4878
  118OSM    C1112384   6.280   0.206  11.076 -0.3470 -1.3127 -0.8391
  118OSM   H11A12385   6.279   0.106  11.029  0.3331 -0.9744 -1.5845
  118OSM   H11B12386   6.329   0.270  11.000 -1.0567  0.1559 -0.1189
  118OSM      P12387   6.022   0.196  11.146  0.0920  0.2502  0.0407
  118OSM    O1312388   6.031   0.048  11.138 -0.7514 -0.7033 -0.5270
  118OSM    O1412389   5.982   0.262  11.273  0.6032 -0.4776  0.8652
  118OSM    O1112390   5.922   0.241  11.035  0.0783  0.3337  0.0383
  118OSM    O1212391   6.150   0.263  11.085  0.2010 -0.5647  0.4292
  118OSM    C1S12392   5.929   0.168  10.908  0.2356 -0.1832  0.6061
  118OSM    H1S12393   5.877   0.070  10.924 -0.0713  0.3829  3.5811
  118OSM    H1T12394   6.033   0.147  10.875  0.0870 -0.1624  0.1205
  118OSM     NF12395   5.906   0.180  10.664 -0.4081 -0.3954 -0.6572
  118OSM    HNF12396   5.963   0.235  10.604  1.3976  0.6337  1.8617
  118OSM    C2S12397   5.858   0.236  10.786  0.7063 -1.2223  0.6517
  118OSM    H2S12398   5.749   0.219  10.803  0.6621 -0.8333  0.7779
  118OSM    C3S12399   5.875   0.395  10.786  0.1496 -0.5997  0.2199
  118OSM    H3S12400   5.982   0.407  10.757 -0.0855  0.0787 -0.4011
  118OSM     O312401   5.851   0.463  10.909  0.0155 -0.1450 -0.2082
  118OSM    HO312402   5.884   0.405  10.979 -1.3995 -0.5428  0.1711
  118OSM    C4S12403   5.795   0.453  10.678  0.0481 -0.1611  0.1069
  118OSM    H4S12404   5.866   0.472  10.596 -0.7795  0.9933 -0.3564
  118OSM    C5S12405   5.663   0.474  10.669  0.1427  0.0154  0.6253
  118OSM    H5S12406   5.602   0.443  10.756  0.7941  2.1265  1.8963
  118OSM    C6S12407   5.604   0.546  10.547 -0.1326  0.0796 -0.2547
  118OSM    H6S12408   5.577   0.652  10.566  0.8981  0.8355 -2.6165
  118OSM    H6T12409   5.515   0.490  10.512 -1.5739  1.6650  0.7421
  118OSM    C7S12410   5.686   0.558  10.418 -0.5564  0.4472 -0.1768
  118OSM    H7S12411   5.786   0.602  10.436 -0.6008  0.0360  1.1891
  118OSM    H7T12412   5.621   0.619  10.351 -2.4939 -0.8683  0.4037
  118OSM    C8S12413   5.698   0.425  10.351 -0.5621  0.2353  0.5704
  118OSM    H8S12414   5.622   0.416  10.270  0.5936  0.0236 -0.5128
  118OSM    H8T12415   5.672   0.346  10.425 -0.6107 -0.9863 -0.7083
  118OSM    C9S12416   5.835   0.389  10.289  0.1318 -0.3023  0.5321
  118OSM    H9S12417   5.836   0.285  10.250  0.7367  0.6334 -2.0829
  118OSM    H9T12418   5.897   0.389  10.381  0.0479  2.0266  0.6467
  118OSM   C10S12419   5.898   0.496  10.189 -0.1001 -0.3895 -0.1454
  118OSM   H10S12420   6.004   0.467  10.178 -0.1737 -1.1025  0.8738
  118OSM   H10T12421   5.898   0.600  10.230  1.9974 -0.7478  0.8799
  118OSM   C11S12422   5.836   0.479  10.051 -0.1226 -0.1896  0.1461
  118OSM   H11S12423   5.731   0.515  10.047 -0.4755 -1.2787 -3.8687
  118OSM   H11T12424   5.858   0.379  10.008 -1.6583  0.5279 -2.5484
  118OSM   C12S12425   5.897   0.565   9.932 -0.5426  0.1865 -0.3425
  118OSM   H12S12426   6.008   0.561   9.927 -0.5737 -1.4314 -0.3848
  118OSM   H12T12427   5.857   0.669   9.938 -2.3915 -0.5619  1.6763
  118OSM   C13S12428   5.857   0.512   9.793 -0.4394 -0.2790 -0.4991
  118OSM   H13S12429   5.748   0.495   9.783 -0.4991  0.1837 -0.6501
  118OSM   H13T12430   5.919   0.420   9.796 -0.2815 -0.1860 -0.8954
  118OSM   C14S12431   5.908   0.599   9.683  0.4313 -0.7333  0.1047
  118OSM   H14S12432   6.015   0.620   9.705 -0.3616  4.4317  0.3932
  118OSM   H14T12433   5.857   0.694   9.710  1.1269  0.5643 -2.7040
  118OSM   C15S12434   5.869   0.565   9.544  0.5345  0.3913  0.0094
  118OSM   H15S12435   5.768   0.520   9.532  2.3465 -3.7958 -1.6168
  118OSM   H15T12436   5.925   0.473   9.517  1.0084  0.1384  1.7025
  118OSM   C16S12437   5.880   0.674   9.442  0.1919  0.3840 -1.1715
  118OSM   H16S12438   5.989   0.693   9.437  0.2217  0.0636 -1.8772
  118OSM   H16T12439   5.820   0.761   9.478  0.9828  0.6173 -0.3635
  118OSM   C17S12440   5.855   0.623   9.303 -0.2798  1.0551  0.9748
  118OSM   H17S12441   5.761   0.565   9.294  0.9495 -0.7845 -1.1066
  118OSM   H17T12442   5.925   0.545   9.265 -0.2692  2.0568 -1.1781
  118OSM   C18S12443   5.880   0.733   9.200 -0.1638  0.2909  0.8038
  118OSM   H18S12444   5.802   0.812   9.214  0.1504  0.3845  2.1664
  118OSM   H18T12445   5.861   0.700   9.096  0.8601 -0.7095  0.9177
  118OSM   H18U12446   5.973   0.793   9.208  0.3497 -0.5657  1.3806
  118OSM    C1F12447   5.884   0.056  10.630  0.2450  0.5886  0.6054
  118OSM     OF12448   5.800  -0.017  10.688  0.0373  0.3475  0.5083
  118OSM    C2F12449   5.961   0.006  10.505  0.5128  0.2876  0.5029
  118OSM    H2F12450   6.068   0.015  10.533  0.0983 -1.8412  3.2178
  118OSM    H2G12451   5.948   0.083  10.426  2.4090  0.1208 -0.0295
  118OSM    C3F12452   5.923  -0.137  10.471 -0.6095 -1.0209 -0.6059
  118OSM    H3F12453   5.814  -0.154  10.460 -1.1194  0.6338  1.2591
  118OSM    H3G12454   5.956  -0.206  10.552  0.3461 -0.5866 -0.6171
  118OSM    C4F12455   5.982  -0.184  10.341 -0.6546 -0.0740  0.7466
  118OSM    H4F12456   5.934  -0.277  10.305  0.2793 -0.1250 -0.3946
  118OSM    H4G12457   6.089  -0.213  10.352 -0.0385  1.8799  0.2805
  118OSM    C5F12458   5.971  -0.071  10.236 -0.2113  0.5725 -0.0824
  118OSM    H5F12459   6.032   0.019  10.258  0.6253 -0.2597  1.1213
  118OSM    H5G12460   5.862  -0.057  10.228 -0.2769  1.2872  1.7790
  118OSM    C6F12461   6.024  -0.124  10.097 -0.1685 -0.0371 -0.7080
  118OSM    H6F12462   5.978  -0.225  10.094  1.8519 -1.1354  1.3154
  118OSM    H6G12463   6.135  -0.134  10.095 -0.0817  0.0599  1.3127
  118OSM    C7F12464   5.967  -0.050   9.983 -0.0650 -0.0262  0.7537
  118OSM    H7F12465   6.007   0.053   9.987  0.6458 -0.1867 -1.1194
  118OSM    H7G12466   5.857  -0.044   9.995 -0.2822 -3.2142  1.1848
  118OSM    C8F12467   6.002  -0.110   9.846  0.1572  0.3919 -0.2630
  118OSM    H8F12468   5.948  -0.060   9.763  3.5147  2.9908 -1.0934
  118OSM    H8G12469   5.963  -0.214   9.839 -0.5791  0.5798  0.7701
  118OSM    C9F12470   6.147  -0.109   9.829  0.4265 -0.2702 -0.8301
  118OSM    H9F12471   6.211  -0.179   9.884  0.1017  0.4488  0.4885
  118OSM   C10F12472   6.217  -0.034   9.745  0.4705  0.3533 -0.3306
  118OSM   H10F12473   6.325  -0.054   9.739  0.2328 -0.6210 -1.7766
  118OSM   C11F12474   6.164   0.069   9.650  0.2502 -0.6951  0.5321
  118OSM   H11F12475   6.222   0.160   9.677 -1.1547  0.2129  0.5885
  118OSM   H11G12476   6.057   0.087   9.672 -0.1212 -2.1711  0.0608
  118OSM   C12F12477   6.183   0.021   9.510 -0.0933  0.4593 -0.2919
  118OSM   H12F12478   6.108  -0.060   9.500  1.5473 -0.8316 -3.5962
  118OSM   H12G12479   6.282  -0.027   9.494 -0.3975 -0.3321  0.1571
  118OSM   C13F12480   6.153   0.127   9.406 -0.0256  0.2267  0.1282
  118OSM   H13F12481   6.216   0.217   9.422  2.4430 -1.2284 -0.7992
  118OSM   H13G12482   6.052   0.171   9.416  0.1589  0.9533 -1.0966
  118OSM   C14F12483   6.178   0.085   9.256  0.3031 -0.1523 -0.6046
  118OSM   H14F12484   6.104   0.004   9.242  1.4019 -1.5953  1.4740
  118OSM   H14G12485   6.276   0.037   9.239 -0.3470 -1.6202 -0.3519
  118OSM   C15F12486   6.156   0.200   9.158  0.0461 -0.0999  0.2203
  118OSM   H15F12487   6.210   0.291   9.192  2.5699 -0.7969 -1.7053
  118OSM   H15G12488   6.046   0.215   9.155 -0.2074 -1.7581  0.3175
  118OSM   C16F12489   6.190   0.175   9.006 -0.1249 -0.0459  0.4676
  118OSM   H16F12490   6.107   0.106   8.977  1.6845 -3.4830  2.7117
  118OSM   H16G12491   6.286   0.121   8.998  0.2234  0.7416 -0.8981
  118OSM   C17F12492   6.200   0.293   8.911  0.2803 -0.0831 -0.6994
  118OSM   H17F12493   6.212   0.254   8.808  0.8137  0.0916 -0.7087
  118OSM   H17G12494   6.291   0.349   8.944  1.3438 -2.3763  0.4752
  118OSM   C18F12495   6.084   0.390   8.913  0.3284 -0.6679 -0.9217
  118OSM   H18F12496   5.992   0.345   8.870 -1.0388 -1.3900  2.4889
  118OSM   H18G12497   6.121   0.472   8.847  2.4250 -0.2318  0.6636
  118OSM   H18H12498   6.073   0.428   9.017  0.1236 -0.2921 -1.0762
  119OSM      N12499   6.089   5.533  11.268 -0.9473 -0.2514  0.0123
  119OSM    C1512500   6.110   5.534  11.121  0.0000  0.1498  0.3183
  119OSM   H15A12501   6.065   5.450  11.070  4.6144 -0.1179 -4.0028
  119OSM   H15B12502   6.212   5.537  11.085 -0.0936  2.0844  0.0918
  119OSM   H15C12503   6.048   5.616  11.087  0.2442  1.0238  1.8861
  119OSM    C1412504   5.948   5.575  11.298  0.1435 -0.1469  0.1626
  119OSM   H14A12505   5.929   5.677  11.268  2.3073  0.4969  0.7231
  119OSM   H14B12506   5.931   5.573  11.405 -1.3365 -1.3619 -0.0670
  119OSM   H14C12507   5.874   5.510  11.254 -1.1793  1.6357 -0.3608
  119OSM    C1312508   6.134   5.400  11.316  0.1252  0.5547 -0.5980
  119OSM   H13A12509   6.065   5.325  11.280  0.1748  0.9037 -1.4658
  119OSM   H13B12510   6.141   5.398  11.423  0.2936  1.2509 -0.5900
  119OSM   H13C12511   6.231   5.366  11.283  0.1047 -0.3764  0.2753
  119OSM    C1212512   6.171   5.642  11.335  0.3595 -0.4222 -0.6584
  119OSM   H12A12513   6.132   5.661  11.434  2.0637  3.0597 -0.5257
  119OSM   H12B12514   6.150   5.733  11.282  0.5811 -1.0313 -1.8338
  119OSM    C1112515   6.327   5.643  11.349  0.8067  0.5161 -0.8180
  119OSM   H11A12516   6.359   5.556  11.411  0.5289  1.2060  0.3168
  119OSM   H11B12517   6.354   5.725  11.418  0.1630  0.4430 -0.4652
  119OSM      P12518   6.499   5.549  11.191 -0.3343  0.2913 -0.1662
  119OSM    O1312519   6.634   5.611  11.206 -0.2319 -0.2289  0.4412
  119OSM    O1412520   6.472   5.425  11.261 -0.0016  0.2798  0.5112
  119OSM    O1112521   6.488   5.516  11.043  0.8325  0.3946  0.2938
  119OSM    O1212522   6.392   5.653  11.229  0.4608  0.2564 -0.2619
  119OSM    C1S12523   6.470   5.622  10.951 -0.1675  0.7820 -0.0059
  119OSM    H1S12524   6.563   5.682  10.941 -0.1924  1.3198  2.5112
  119OSM    H1T12525   6.388   5.694  10.970 -0.0965  0.6425  0.8596
  119OSM     NF12526   6.436   5.651  10.712 -0.0408 -0.0763 -0.6050
  119OSM    HNF12527   6.343   5.675  10.687 -0.0987  0.4222  0.0878
  119OSM    C2S12528   6.442   5.551  10.815 -0.5207 -0.5895  0.1909
  119OSM    H2S12529   6.537   5.495  10.803 -0.6182 -0.7762  0.2740
  119OSM    C3S12530   6.320   5.465  10.830 -0.3522 -0.2491  0.2913
  119OSM    H3S12531   6.237   5.533  10.857  0.2495  0.6412 -0.0474
  119OSM     O312532   6.326   5.362  10.924  0.1437  0.2951  0.0744
  119OSM    HO312533   6.399   5.380  10.984 -0.4882 -0.5925  1.1198
  119OSM    C4S12534   6.293   5.412  10.697 -0.2205  0.2338 -0.0029
  119OSM    H4S12535   6.369   5.349  10.650 -0.4166  0.2527 -0.3563
  119OSM    C5S12536   6.182   5.427  10.625  0.3636 -0.5833 -0.1168
  119OSM    H5S12537   6.093   5.471  10.673  0.0237 -0.9562 -0.4024
  119OSM    C6S12538   6.166   5.359  10.493  0.9254 -0.5232 -0.6875
  119OSM    H6S12539   6.084   5.285  10.502  0.8478 -0.4339 -0.6510
  119OSM    H6T12540   6.260   5.302  10.480  0.5727 -1.8748  2.0412
  119OSM    C7S12541   6.138   5.444  10.374  0.3232  0.3496 -0.4331
  119OSM    H7S12542   6.206   5.531  10.375  1.7180 -0.6871  1.0395
  119OSM    H7T12543   6.034   5.484  10.375 -0.7990 -2.2716  2.1594
  119OSM    C8S12544   6.154   5.355  10.244 -0.2714 -0.2691  0.2418
  119OSM    H8S12545   6.106   5.256  10.262  1.9769 -1.3282  0.8828
  119OSM    H8T12546   6.261   5.326  10.249  1.0979  3.9891 -0.6908
  119OSM    C9S12547   6.120   5.432  10.120 -0.0523 -0.7694 -0.2843
  119OSM    H9S12548   6.196   5.507  10.090 -0.4249 -0.2449  0.0661
  119OSM    H9T12549   6.021   5.476  10.146  1.1381  1.4819  0.7112
  119OSM   C10S12550   6.081   5.339  10.004  0.0020 -0.2981  0.0812
  119OSM   H10S12551   5.994   5.274  10.026 -1.8642  1.2947 -2.1158
  119OSM   H10T12552   6.176   5.284   9.986  0.1785  0.8231 -3.1315
  119OSM   C11S12553   6.054   5.415   9.870 -0.0261  0.2175  0.3335
  119OSM   H11S12554   6.113   5.508   9.876  2.4329 -1.2900  1.2966
  119OSM   H11T12555   5.944   5.424   9.860 -0.0598 -1.3332 -1.3075
  119OSM   C12S12556   6.105   5.346   9.744  0.0244  0.5616  0.8223
  119OSM   H12S12557   6.063   5.243   9.736 -1.1109  1.0265  0.5175
  119OSM   H12T12558   6.213   5.326   9.759  0.7522  3.1476 -0.4097
  119OSM   C13S12559   6.085   5.433   9.616  0.1394 -0.4030  0.2686
  119OSM   H13S12560   6.134   5.532   9.617  0.9068 -0.5034 -4.5929
  119OSM   H13T12561   5.978   5.462   9.608 -0.2322 -1.7695 -0.1069
  119OSM   C14S12562   6.129   5.349   9.491 -0.3158 -0.1158  0.1174
  119OSM   H14S12563   6.059   5.264   9.474 -3.0033  2.2528 -1.5933
  119OSM   H14T12564   6.231   5.308   9.507  0.2028  0.7639 -0.7905
  119OSM   C15S12565   6.125   5.436   9.364  0.2393 -0.0288  0.0885
  119OSM   H15S12566   6.222   5.464   9.319 -0.7024  1.9520 -0.8222
  119OSM   H15T12567   6.086   5.536   9.392  0.4390  0.3468 -0.9128
  119OSM   C16S12568   6.044   5.389   9.241  0.3737  0.2604  0.0635
  119OSM   H16S12569   5.939   5.376   9.277  0.5671 -1.0137  0.1979
  119OSM   H16T12570   6.080   5.291   9.203 -0.3207  0.1514 -0.3391
  119OSM   C17S12571   6.054   5.494   9.131  0.0127  0.0423  0.0518
  119OSM   H17S12572   6.022   5.587   9.184  1.2529  1.1220 -1.0363
  119OSM   H17T12573   5.970   5.481   9.059  0.1518  0.7359 -0.2422
  119OSM   C18S12574   6.185   5.498   9.050 -0.1374 -0.2974  0.4920
  119OSM   H18S12575   6.202   5.403   8.993 -0.6452  0.4244 -0.9180
  119OSM   H18T12576   6.274   5.516   9.113  1.0115 -1.2514 -0.7906
  119OSM   H18U12577   6.183   5.590   8.988  1.5414 -0.2407  0.4807
  119OSM    C1F12578   6.547   5.715  10.672 -0.2592  0.1921  0.4884
  119OSM     OF12579   6.660   5.696  10.719 -0.2356 -0.1402 -0.7596
  119OSM    C2F12580   6.520   5.820  10.569  0.4951  0.3419 -0.2545
  119OSM    H2F12581   6.505   5.921  10.615 -0.9661  0.7495 -1.5593
  119OSM    H2G12582   6.428   5.808  10.508  1.1354 -1.5050 -0.9252
  119OSM    C3F12583   6.635   5.848  10.468  0.0102 -0.4287 -0.4561
  119OSM    H3F12584   6.648   5.753  10.412 -0.2877 -0.6799 -0.1005
  119OSM    H3G12585   6.726   5.883  10.522 -0.3053 -0.3771  0.0390
  119OSM    C4F12586   6.591   5.946  10.361  0.1514 -1.0546  0.1610
  119OSM    H4F12587   6.595   6.044  10.413 -0.8928 -1.9291  1.9709
  119OSM    H4G12588   6.486   5.929  10.331 -0.6871  1.3050  1.4977
  119OSM    C5F12589   6.671   5.942  10.229 -0.6681 -0.2319 -0.0244
  119OSM    H5F12590   6.654   5.844  10.181 -0.1684  0.4596 -1.6680
  119OSM    H5G12591   6.779   5.939  10.256 -0.8109 -1.2570  0.4563
  119OSM    C6F12592   6.647   6.063  10.146 -0.0239 -0.1435  0.1579
  119OSM    H6F12593   6.730   6.132  10.172  0.1938 -0.6719  0.8924
  119OSM    H6G12594   6.545   6.098  10.168  0.6053  0.5172  2.2019
  119OSM    C7F12595   6.639   6.039   9.995  0.3491 -1.1236 -0.3635
  119OSM    H7F12596   6.580   6.116   9.941 -0.4879 -0.3729  1.5270
  119OSM    H7G12597   6.580   5.946   9.979 -0.3529 -0.6049 -0.8689
  119OSM    C8F12598   6.776   6.044   9.930 -0.8237  0.2427 -0.4592
  119OSM    H8F12599   6.755   6.010   9.826 -1.9902 -3.0560  0.7245
  119OSM    H8G12600   6.850   5.971   9.967 -2.3290 -0.7687  0.7073
  119OSM    C9F12601   6.836   6.181   9.924  0.2708  0.3635 -0.1492
  119OSM    H9F12602   6.896   6.212  10.011  1.2049  1.9841 -1.3052
  119OSM   C10F12603   6.821   6.272   9.825 -0.3184 -0.1991 -0.1693
  119OSM   H10F12604   6.892   6.357   9.828  2.2694 -2.2099 -0.8891
  119OSM   C11F12605   6.739   6.257   9.697  0.5430  0.2156 -0.7331
  119OSM   H11F12606   6.669   6.343   9.695 -0.0269 -0.1670  1.0308
  119OSM   H11G12607   6.681   6.164   9.713  2.3877 -0.6084  1.8472
  119OSM   C12F12608   6.830   6.235   9.573  0.7516  0.6822 -0.8233
  119OSM   H12F12609   6.901   6.150   9.588 -0.2195  0.0459  0.2854
  119OSM   H12G12610   6.900   6.320   9.559  0.3901  0.9478 -1.0183
  119OSM   C13F12611   6.753   6.217   9.442  0.1067  0.2779 -0.0518
  119OSM   H13F12612   6.722   6.319   9.412 -0.7434 -0.0941 -0.4727
  119OSM   H13G12613   6.658   6.162   9.459  0.1345  0.1224 -0.3954
  119OSM   C14F12614   6.835   6.149   9.341  0.0687  0.4221 -0.7255
  119OSM   H14F12615   6.812   6.042   9.362  0.2292  0.3123 -1.1093
  119OSM   H14G12616   6.943   6.171   9.354  0.0738  0.2978 -0.5466
  119OSM   C15F12617   6.791   6.186   9.195 -0.1639 -0.5155 -0.0309
  119OSM   H15F12618   6.681   6.193   9.205 -0.0288 -1.5730  3.5457
  119OSM   H15G12619   6.817   6.103   9.126 -0.3156 -0.1641 -0.5172
  119OSM   C16F12620   6.838   6.319   9.144  0.0377  0.1598 -0.5935
  119OSM   H16F12621   6.949   6.319   9.143  0.0657  0.5926  0.8054
  119OSM   H16G12622   6.818   6.397   9.221 -1.1721  1.0135 -1.7188
  119OSM   C17F12623   6.769   6.380   9.026 -0.0004 -0.6154  0.1301
  119OSM   H17F12624   6.795   6.487   9.013  0.2867 -0.7987 -0.9139
  119OSM   H17G12625   6.660   6.376   9.045  0.1021  1.7565  1.5976
  119OSM   C18F12626   6.781   6.303   8.894 -0.0493  0.1457 -0.5208
  119OSM   H18F12627   6.721   6.336   8.807 -0.5205  0.5179 -0.0623
  119OSM   H18G12628   6.745   6.200   8.910 -1.9916  1.0723  1.4849
  119OSM   H18H12629   6.889   6.305   8.867  0.5037 -0.1912  1.5199
  120OSM      N12630   6.383   2.206  11.021  0.5072  0.4174  0.8201
  120OSM    C1512631   6.391   2.304  11.134 -1.0419 -0.7661  0.2223
  120OSM   H15A12632   6.303   2.295  11.196 -2.7687 -1.8427 -2.1999
  120OSM   H15B12633   6.385   2.405  11.095  0.3444 -0.9331 -0.4962
  120OSM   H15C12634   6.474   2.298  11.203 -1.2597  0.6461  0.6471
  120OSM    C1412635   6.424   2.066  11.062  0.3774 -0.3914  0.1393
  120OSM   H14A12636   6.526   2.060  11.097  0.5630 -3.0143 -0.6507
  120OSM   H14B12637   6.412   1.994  10.983  1.2425 -0.0445 -0.3176
  120OSM   H14C12638   6.371   2.035  11.151 -3.0370  0.0365 -1.5972
  120OSM    C1312639   6.240   2.203  10.992  0.4695  1.1059  0.8579
  120OSM   H13A12640   6.204   2.302  10.967 -2.1016 -0.0225 -0.3546
  120OSM   H13B12641   6.182   2.174  11.079  0.2109 -0.2127  0.2606
  120OSM   H13C12642   6.211   2.139  10.911  0.5229  1.1420  0.8104
  120OSM    C1212643   6.462   2.264  10.908 -0.7013 -0.1424  0.6394
  120OSM   H12A12644   6.563   2.289  10.938 -0.5690  1.1907 -0.8171
  120OSM   H12B12645   6.422   2.361  10.882  0.2262  0.3743  1.1052
  120OSM    C1112646   6.489   2.172  10.782  0.5991 -0.2081  0.2576
  120OSM   H11A12647   6.524   2.229  10.693  2.4842 -1.6641 -0.0139
  120OSM   H11B12648   6.393   2.127  10.748  0.5158 -0.4110  0.7501
  120OSM      P12649   6.735   2.086  10.796  0.0712  0.5260 -0.2511
  120OSM    O1312650   6.784   2.220  10.841 -0.4206  0.4002  0.1713
  120OSM    O1412651   6.800   1.968  10.859 -0.2449 -0.1650 -0.6925
  120OSM    O1112652   6.748   2.064  10.640 -0.3891 -0.1571 -0.1873
  120OSM    O1212653   6.579   2.068  10.819 -0.8635 -0.0237  1.2100
  120OSM    C1S12654   6.814   1.953  10.582  0.2208  0.3674  0.5350
  120OSM    H1S12655   6.746   1.866  10.586  0.4975 -0.1149 -2.5399
  120OSM    H1T12656   6.902   1.924  10.644  0.6926 -0.7753 -0.6109
  120OSM     NF12657   6.925   1.862  10.386  0.1716  1.0154 -0.0390
  120OSM    HNF12658   7.024   1.867  10.382  0.2170  0.5617  0.4891
  120OSM    C2S12659   6.853   1.977  10.437 -0.8602 -0.0360  0.2017
  120OSM    H2S12660   6.765   1.999  10.374  1.5962 -0.1153 -3.5461
  120OSM    C3S12661   6.941   2.103  10.425 -0.4556  0.3000 -0.2944
  120OSM    H3S12662   7.026   2.099  10.496 -0.2963 -1.9575 -0.5320
  120OSM     O312663   6.877   2.224  10.464 -0.0661  0.0436 -0.1540
  120OSM    HO312664   6.813   2.193  10.528  0.4809 -0.2647  0.2611
  120OSM    C4S12665   6.989   2.110  10.279 -0.5864 -0.0513 -0.4153
  120OSM    H4S12666   7.054   2.024  10.258 -0.6484 -0.7346  1.9598
  120OSM    C5S12667   6.956   2.198  10.186  0.8345 -0.1748 -0.4730
  120OSM    H5S12668   6.893   2.286  10.205 -1.4826 -1.9425  0.4580
  120OSM    C6S12669   7.018   2.191  10.045  0.7991  0.0629  0.2937
  120OSM    H6S12670   6.958   2.256   9.978  0.1033  0.9105  1.6953
  120OSM    H6T12671   7.026   2.088  10.004 -0.4428  0.6773 -1.6038
  120OSM    C7S12672   7.156   2.270  10.044  0.6327  0.8922  0.4165
  120OSM    H7S12673   7.218   2.232  10.128  0.5140  2.2379  1.1383
  120OSM    H7T12674   7.129   2.376  10.060 -3.1262  0.6705 -2.8047
  120OSM    C8S12675   7.246   2.269   9.919 -0.2660  0.1317 -0.0362
  120OSM    H8S12676   7.245   2.160   9.895  0.1472 -0.4289  2.2389
  120OSM    H8T12677   7.351   2.303   9.932 -0.7690  2.1607 -1.0193
  120OSM    C9S12678   7.184   2.362   9.820  0.0428 -0.4198 -0.1052
  120OSM    H9S12679   7.195   2.467   9.855 -0.8593 -0.7371  1.2060
  120OSM    H9T12680   7.075   2.340   9.829 -0.3414  1.3893 -0.0090
  120OSM   C10S12681   7.224   2.342   9.674  0.3754  1.1210 -0.2960
  120OSM   H10S12682   7.205   2.233   9.665 -1.7894  1.2793  1.4724
  120OSM   H10T12683   7.331   2.369   9.662 -0.1349  2.7447 -1.5544
  120OSM   C11S12684   7.128   2.420   9.581 -0.3674  0.2095  0.1700
  120OSM   H11S12685   7.117   2.528   9.605 -4.5928 -0.2456  0.9280
  120OSM   H11T12686   7.026   2.376   9.583  0.2140 -1.2082  0.0954
  120OSM   C12S12687   7.186   2.417   9.437  0.0497 -0.1032 -0.4309
  120OSM   H12S12688   7.219   2.313   9.421  1.2311  0.7464 -4.7314
  120OSM   H12T12689   7.277   2.478   9.422  1.4176 -1.4978  1.7479
  120OSM   C13S12690   7.083   2.427   9.319 -0.3847 -0.2280  0.2553
  120OSM   H13S12691   7.020   2.516   9.339  2.7754  2.1026  0.5294
  120OSM   H13T12692   7.009   2.345   9.333 -0.6987 -0.5396 -2.5517
  120OSM   C14S12693   7.147   2.407   9.184 -1.0062  0.0720  0.1381
  120OSM   H14S12694   7.216   2.320   9.191 -1.0964  0.0072  0.2350
  120OSM   H14T12695   7.199   2.497   9.145  1.2376 -0.0408  2.5294
  120OSM   C15S12696   7.026   2.395   9.084  0.4248  0.3646  0.4134
  120OSM   H15S12697   6.953   2.476   9.100 -1.4435 -0.6015 -2.5702
  120OSM   H15T12698   6.971   2.299   9.097  1.3007 -0.3363 -0.8844
  120OSM   C16S12699   7.068   2.406   8.934 -0.4278  0.2033  0.5298
  120OSM   H16S12700   7.115   2.507   8.929  0.5511 -0.2247  0.9303
  120OSM   H16T12701   6.978   2.404   8.868 -0.0191 -0.4987 -0.0184
  120OSM   C17S12702   7.172   2.299   8.894 -0.0005  0.3411 -0.2312
  120OSM   H17S12703   7.126   2.198   8.889 -0.1716  0.4565 -1.2022
  120OSM   H17T12704   7.254   2.291   8.969 -0.7656 -0.5577  0.5239
  120OSM   C18S12705   7.230   2.316   8.757  0.5714 -0.9841 -0.3415
  120OSM   H18S12706   7.290   2.410   8.756 -0.6762 -0.1778 -0.7028
  120OSM   H18T12707   7.156   2.327   8.675  2.4356  3.8149 -1.7419
  120OSM   H18U12708   7.311   2.243   8.734  0.2088 -0.9153 -1.9884
  120OSM    C1F12709   6.856   1.758  10.348 -0.1254 -0.0304 -0.6248
  120OSM     OF12710   6.738   1.751  10.371 -0.1069 -0.0722  0.2977
  120OSM    C2F12711   6.931   1.647  10.281  0.0521 -0.3540 -0.6677
  120OSM    H2F12712   6.912   1.549  10.332  1.0160 -1.0187 -1.5579
  120OSM    H2G12713   7.042   1.651  10.282  0.1091 -1.1647 -1.9046
  120OSM    C3F12714   6.879   1.631  10.135  0.2441  0.0620  0.0463
  120OSM    H3F12715   6.773   1.600  10.132  0.9874 -2.6726 -0.6353
  120OSM    H3G12716   6.940   1.553  10.085 -0.6457  0.1501 -1.2181
  120OSM    C4F12717   6.905   1.752  10.044 -0.0706 -0.1087 -0.4773
  120OSM    H4F12718   7.006   1.791  10.069 -0.0961 -0.3785  0.0731
  120OSM    H4G12719   6.832   1.827  10.083 -1.7851 -0.4625 -2.7907
  120OSM    C5F12720   6.882   1.744   9.898  0.2235  0.6471  0.2761
  120OSM    H5F12721   6.775   1.718   9.886  0.1024  1.3088 -0.1069
  120OSM    H5G12722   6.947   1.672   9.843  1.3127  0.2910  1.9584
  120OSM    C6F12723   6.905   1.876   9.838 -0.2047  0.3043  0.0944
  120OSM    H6F12724   7.010   1.903   9.859 -0.6324  1.1569  1.2551
  120OSM    H6G12725   6.837   1.949   9.888 -2.0307 -0.2892 -1.4352
  120OSM    C7F12726   6.862   1.886   9.688 -0.1457 -0.5571  0.3215
  120OSM    H7F12727   6.760   1.846   9.666  0.2697 -0.4586 -2.0904
  120OSM    H7G12728   6.934   1.829   9.625  0.6324 -1.5146  1.9982
  120OSM    C8F12729   6.866   2.028   9.643  0.2697  0.1330 -0.2541
  120OSM    H8F12730   6.974   2.048   9.655  0.3489 -0.4907  0.0891
  120OSM    H8G12731   6.816   2.091   9.721  0.8144  1.8850 -1.2556
  120OSM    C9F12732   6.814   2.082   9.511 -0.1107  0.2705  0.5149
  120OSM    H9F12733   6.709   2.116   9.507  0.0016  0.5246 -0.8311
  120OSM   C10F12734   6.884   2.080   9.392  0.5771 -0.5815  0.4168
  120OSM   H10F12735   6.842   2.132   9.304  0.0392 -0.8203  0.5282
  120OSM   C11F12736   7.018   2.020   9.379  0.1099  0.8726 -0.3515
  120OSM   H11F12737   7.066   1.978   9.471  0.9223  1.4961 -0.4756
  120OSM   H11G12738   7.083   2.099   9.334  1.0948 -0.5257 -1.4561
  120OSM   C12F12739   7.025   1.893   9.287  0.0719 -0.6842 -0.5104
  120OSM   H12F12740   6.925   1.844   9.294 -0.2954 -0.0168 -0.8545
  120OSM   H12G12741   7.110   1.830   9.318  2.3855  2.5587  0.3142
  120OSM   C13F12742   7.052   1.921   9.146 -0.4499  0.1350 -0.3430
  120OSM   H13F12743   7.150   1.969   9.126 -0.9361  3.0549  3.2343
  120OSM   H13G12744   6.981   1.997   9.108 -1.7425 -1.1855 -0.6464
  120OSM   C14F12745   7.019   1.799   9.054  0.4610  0.4964 -0.3921
  120OSM   H14F12746   6.922   1.749   9.076  0.2360  1.6268  1.3781
  120OSM   H14G12747   7.101   1.730   9.084  0.5225  0.4292 -0.7174
  120OSM   C15F12748   7.041   1.837   8.909  0.4388  0.4792  0.3053
  120OSM   H15F12749   7.093   1.758   8.851  2.5991  1.3598  0.9640
  120OSM   H15G12750   7.106   1.922   8.881 -0.2978  0.5995 -1.1836
  120OSM   C16F12751   6.906   1.849   8.823  0.3121 -0.0346 -0.3760
  120OSM   H16F12752   6.937   1.905   8.732  1.9675 -0.5854 -0.1936
  120OSM   H16G12753   6.823   1.904   8.872 -0.8070 -3.0914  1.4499
  120OSM   C17F12754   6.852   1.718   8.787  0.4195 -0.0376  0.5077
  120OSM   H17F12755   6.838   1.648   8.873  0.3855 -1.8184 -0.8909
  120OSM   H17G12756   6.930   1.668   8.726  0.4743 -1.7429  1.8995
  120OSM   C18F12757   6.723   1.723   8.702  0.3941 -0.1672 -0.0129
  120OSM   H18F12758   6.681   1.620   8.696 -0.7464  0.2559  0.4395
  120OSM   H18G12759   6.755   1.757   8.601 -0.2919 -0.3479 -0.2998
  120OSM   H18H12760   6.642   1.787   8.743  0.2646 -0.1482 -0.2995
  121OSM      N12761   4.697   5.701  11.038  0.3631  0.3292  0.5201
  121OSM    C1512762   4.737   5.671  11.176 -0.0879  0.3426 -0.2225
  121OSM   H15A12763   4.716   5.757  11.238 -0.4838 -0.0676  0.2123
  121OSM   H15B12764   4.843   5.665  11.197 -0.0133 -0.4686 -0.7740
  121OSM   H15C12765   4.688   5.588  11.223  0.6447  0.2792  0.4471
  121OSM    C1412766   4.545   5.705  11.032 -0.4571  0.0043  0.4560
  121OSM   H14A12767   4.504   5.755  11.119 -0.4105  0.2865  0.3155
  121OSM   H14B12768   4.497   5.609  11.043 -0.2519 -0.0297  1.1639
  121OSM   H14C12769   4.512   5.756  10.944 -2.5537  0.6693  1.5613
  121OSM    C1312770   4.755   5.827  10.990 -0.1063 -0.3063 -0.3596
  121OSM   H13A12771   4.728   5.908  11.057 -0.0531 -1.5331  1.2233
  121OSM   H13B12772   4.718   5.852  10.892 -0.4017 -4.0231 -1.3523
  121OSM   H13C12773   4.863   5.825  10.993 -0.0983  0.6900  1.0284
  121OSM    C1212774   4.748   5.590  10.944  0.4200  0.9378  0.2688
  121OSM   H12A12775   4.716   5.615  10.844  2.3220  0.3309 -0.5316
  121OSM   H12B12776   4.698   5.494  10.951 -1.1029  1.6533 -0.3064
  121OSM    C1112777   4.897   5.548  10.953 -0.3414 -0.0732 -0.3034
  121OSM   H11A12778   4.952   5.643  10.973 -3.4448  2.4597 -2.7966
  121OSM   H11B12779   4.937   5.499  10.862  0.0425  1.3897 -0.9611
  121OSM      P12780   4.881   5.319  11.083 -0.2846 -0.0286 -0.2006
  121OSM    O1312781   4.987   5.241  11.148 -0.3937  0.1887  0.0941
  121OSM    O1412782   4.744   5.306  11.138  0.5858 -0.0604 -0.2969
  121OSM    O1112783   4.870   5.266  10.937 -0.0848 -0.0410 -0.3308
  121OSM    O1212784   4.924   5.470  11.068  0.2429  0.3226 -0.2382
  121OSM    C1S12785   4.755   5.263  10.861 -0.7292 -0.2537  0.4208
  121OSM    H1S12786   4.674   5.329  10.899  0.0705  0.3280  1.1559
  121OSM    H1T12787   4.699   5.167  10.873 -3.1959  1.1805  1.1425
  121OSM     NF12788   4.640   5.295  10.637  0.4634 -0.6053  0.2785
  121OSM    HNF12789   4.629   5.211  10.583  0.0533 -1.3515  1.4758
  121OSM    C2S12790   4.769   5.295  10.709  0.0881  0.2982  0.0491
  121OSM    H2S12791   4.816   5.396  10.709  1.0680 -0.1374  0.6252
  121OSM    C3S12792   4.875   5.197  10.654  0.1143 -0.1792  0.2265
  121OSM    H3S12793   4.840   5.093  10.675  1.3503 -0.3029  1.8365
  121OSM     O312794   4.994   5.204  10.725 -0.5198 -0.0215 -0.1850
  121OSM    HO312795   4.978   5.254  10.806  0.4797 -2.1292  1.4126
  121OSM    C4S12796   4.898   5.228  10.510  0.2848  0.0984  0.1987
  121OSM    H4S12797   4.922   5.333  10.491  0.6490  0.1865  1.0834
  121OSM    C5S12798   4.895   5.139  10.414  0.2432  0.9487  0.3405
  121OSM    H5S12799   4.880   5.031  10.433  2.6544  0.0566 -2.1498
  121OSM    C6S12800   4.913   5.177  10.275 -0.3592 -0.2118 -0.0535
  121OSM    H6S12801   4.996   5.115  10.234 -1.6724 -3.1669  1.4511
  121OSM    H6T12802   4.946   5.283  10.270  0.3353 -0.3960  0.3638
  121OSM    C7S12803   4.786   5.151  10.184  0.2357 -0.0203 -0.0657
  121OSM    H7S12804   4.705   5.217  10.223  0.7742 -0.5066  2.0179
  121OSM    H7T12805   4.762   5.043  10.191  1.9472 -0.3992  0.4187
  121OSM    C8S12806   4.803   5.179  10.037 -0.3300 -0.0775  0.3656
  121OSM    H8S12807   4.804   5.290  10.029  1.0227  0.0751  2.0043
  121OSM    H8T12808   4.716   5.150   9.976 -0.5605  0.5278  0.4016
  121OSM    C9S12809   4.933   5.125   9.970 -0.4636 -0.1704 -0.1565
  121OSM    H9S12810   4.920   5.016   9.954  2.3417 -0.6439  0.3087
  121OSM    H9T12811   5.019   5.136  10.038 -0.2892  1.5703 -0.6048
  121OSM   C10S12812   4.970   5.200   9.838  0.0270  0.5537 -0.2057
  121OSM   H10S12813   5.059   5.153   9.792  0.5492  0.7302  0.5973
  121OSM   H10T12814   4.998   5.304   9.863  1.1165  0.3658 -0.6161
  121OSM   C11S12815   4.862   5.193   9.735  1.2413 -0.2016  0.0748
  121OSM   H11S12816   4.795   5.281   9.740  0.3534 -0.8528  0.0159
  121OSM   H11T12817   4.798   5.105   9.759 -0.1791  0.9446  0.6730
  121OSM   C12S12818   4.918   5.188   9.598 -0.1489 -0.1101 -0.3985
  121OSM   H12S12819   4.997   5.112   9.585 -0.3288 -0.0804 -1.8455
  121OSM   H12T12820   4.969   5.283   9.571 -0.5548 -0.2302 -1.6768
  121OSM   C13S12821   4.815   5.156   9.490 -0.9959  0.8639  0.0964
  121OSM   H13S12822   4.759   5.251   9.478 -0.6366  1.1008  0.2705
  121OSM   H13T12823   4.742   5.080   9.527  2.9269 -2.9347  0.8143
  121OSM   C14S12824   4.877   5.116   9.355 -0.4189 -0.4003  0.7260
  121OSM   H14S12825   4.795   5.125   9.280  0.2227 -1.1155 -0.0852
  121OSM   H14T12826   4.907   5.009   9.358  0.9016 -0.0177  2.6418
  121OSM   C15S12827   4.989   5.219   9.316  0.1561 -0.7950  0.7250
  121OSM   H15S12828   5.068   5.237   9.391 -0.1703 -0.0313  0.8921
  121OSM   H15T12829   4.935   5.316   9.312 -2.4480 -2.1187  1.0907
  121OSM   C16S12830   5.069   5.177   9.184 -0.2205 -0.4635  1.2393
  121OSM   H16S12831   5.143   5.257   9.164 -0.5973 -0.5073 -0.5148
  121OSM   H16T12832   4.999   5.180   9.097  0.1560  3.0300  0.9156
  121OSM   C17S12833   5.162   5.054   9.179 -0.3065 -0.1080  0.1037
  121OSM   H17S12834   5.226   5.058   9.089 -1.1169 -1.4707 -0.5685
  121OSM   H17T12835   5.091   4.971   9.158 -2.8902  2.0616 -0.4011
  121OSM   C18S12836   5.237   5.018   9.305 -0.2062 -0.0559  0.9397
  121OSM   H18S12837   5.266   4.911   9.300  0.1939  0.1096 -1.4917
  121OSM   H18T12838   5.169   5.037   9.392 -0.8677  0.4801  0.3174
  121OSM   H18U12839   5.318   5.088   9.332 -1.9539  1.5023  2.4397
  121OSM    C1F12840   4.551   5.403  10.639 -0.1296  0.2966  0.1561
  121OSM     OF12841   4.552   5.492  10.719 -0.0212 -0.1321 -0.9656
  121OSM    C2F12842   4.443   5.395  10.534 -1.0273 -0.3287  1.0665
  121OSM    H2F12843   4.378   5.305  10.538 -3.3671  1.2709  1.2543
  121OSM    H2G12844   4.505   5.380  10.443 -0.2673  1.3041  1.2897
  121OSM    C3F12845   4.363   5.523  10.519  0.1706 -0.2347 -0.4248
  121OSM    H3F12846   4.429   5.609  10.493  0.7132 -1.2903 -2.8456
  121OSM    H3G12847   4.321   5.541  10.620 -0.0583  0.3501 -0.6195
  121OSM    C4F12848   4.265   5.517  10.399  0.2535 -0.0452  0.2045
  121OSM    H4F12849   4.198   5.432  10.425  1.2734 -0.7483  0.5858
  121OSM    H4G12850   4.324   5.487  10.310 -0.3640  1.7889 -0.8783
  121OSM    C5F12851   4.193   5.650  10.367  0.0022 -0.7742  0.3504
  121OSM    H5F12852   4.214   5.722  10.448  1.6792 -0.9125  0.0691
  121OSM    H5G12853   4.085   5.624  10.371  0.8381 -5.4417 -0.5152
  121OSM    C6F12854   4.236   5.714  10.233 -0.9401  0.4200 -0.2697
  121OSM    H6F12855   4.246   5.640  10.151 -1.4849 -0.6738  0.6299
  121OSM    H6G12856   4.342   5.748  10.239 -0.8082 -0.2241  1.7594
  121OSM    C7F12857   4.151   5.837  10.198 -0.1513  0.0228  0.1871
  121OSM    H7F12858   4.155   5.926  10.265  2.1436  0.9465 -1.0581
  121OSM    H7G12859   4.046   5.806  10.216 -0.7094  2.1175  0.8172
  121OSM    C8F12860   4.168   5.889  10.051 -0.4087 -0.4038 -0.3992
  121OSM    H8F12861   4.103   5.979  10.046  1.6799  1.2561  0.4338
  121OSM    H8G12862   4.149   5.807   9.978  2.7497 -0.1302 -1.6784
  121OSM    C9F12863   4.307   5.938  10.037 -0.2409  0.5027  0.5709
  121OSM    H9F12864   4.373   5.970  10.118  0.2691  2.7089 -0.6338
  121OSM   C10F12865   4.357   5.936   9.912 -0.3250 -0.2657  0.0523
  121OSM   H10F12866   4.462   5.966   9.894  0.0475 -1.0654  0.8126
  121OSM   C11F12867   4.285   5.887   9.788 -0.4901  0.3995  0.4868
  121OSM   H11F12868   4.175   5.888   9.800 -0.6435  2.2763 -0.7157
  121OSM   H11G12869   4.313   5.780   9.774 -0.7692 -0.0740  3.1340
  121OSM   C12F12870   4.346   5.973   9.682 -0.1493 -0.2757  0.7456
  121OSM   H12F12871   4.457   5.963   9.676 -0.2959 -1.2028 -1.1269
  121OSM   H12G12872   4.321   6.081   9.683 -0.8010 -0.3948 -0.5841
  121OSM   C13F12873   4.280   5.926   9.554 -1.0104  0.3174  0.5224
  121OSM   H13F12874   4.172   5.953   9.553 -0.2744  3.8341 -0.9989
  121OSM   H13G12875   4.302   5.820   9.532  2.3197  1.0108 -0.0158
  121OSM   C14F12876   4.359   6.012   9.442  0.3759  0.7366 -0.2956
  121OSM   H14F12877   4.468   6.012   9.460  0.9823 -3.2435 -2.8075
  121OSM   H14G12878   4.315   6.113   9.460  0.5566  0.6234  0.8414
  121OSM   C15F12879   4.326   5.970   9.302 -0.7083 -0.1764  0.5642
  121OSM   H15F12880   4.220   5.996   9.278 -0.4954 -0.2774 -0.5444
  121OSM   H15G12881   4.354   5.864   9.285 -0.8787 -0.1315 -0.0146
  121OSM   C16F12882   4.410   6.038   9.187  0.1791 -0.9582  0.5430
  121OSM   H16F12883   4.379   6.144   9.179  1.6358 -0.5332  0.1177
  121OSM   H16G12884   4.380   5.984   9.095  0.2546 -2.5966  1.4384
  121OSM   C17F12885   4.563   6.028   9.191  0.1543  0.1961 -0.6025
  121OSM   H17F12886   4.610   6.095   9.265  2.0965 -3.2090  1.4742
  121OSM   H17G12887   4.612   6.050   9.094  0.8998  1.2656  0.0067
  121OSM   C18F12888   4.617   5.889   9.221  0.3596  0.4775  0.2766
  121OSM   H18F12889   4.610   5.865   9.330 -1.1033 -2.4109 -0.3550
  121OSM   H18G12890   4.726   5.897   9.200  0.9202 -1.2460  2.1798
  121OSM   H18H12891   4.561   5.808   9.169  1.7093 -1.6765  1.9807
  122OSM      N12892   0.374   2.967  10.874  0.4014 -0.5007 -0.1948
  122OSM    C1512893   0.252   2.910  10.945 -0.4542 -0.0771  0.1915
  122OSM   H15A12894   0.282   2.867  11.039 -2.7559  0.2207  1.1168
  122OSM   H15B12895   0.202   2.841  10.878  0.7737 -0.6272 -0.1905
  122OSM   H15C12896   0.170   2.977  10.965 -0.2164  0.7235 -1.3305
  122OSM    C1412897   0.329   3.044  10.752 -0.4332 -0.6754  0.0969
  122OSM   H14A12898   0.414   3.070  10.690  0.1838 -1.2650  0.6662
  122OSM   H14B12899   0.275   3.130  10.787  0.3375 -0.3105  0.4104
  122OSM   H14C12900   0.271   2.977  10.690  0.7347 -0.9554 -0.7379
  122OSM    C1312901   0.450   3.065  10.966 -0.1634  0.6869  0.4384
  122OSM   H13A12902   0.385   3.141  11.006 -0.6314 -0.5775  2.2625
  122OSM   H13B12903   0.528   3.116  10.913  0.2105 -1.3048 -1.0395
  122OSM   H13C12904   0.488   3.012  11.053 -0.5037 -2.0573 -0.9662
  122OSM    C1212905   0.462   2.845  10.829  0.7318  0.3509  0.0734
  122OSM   H12A12906   0.530   2.881  10.754 -0.6408 -0.6610 -1.7524
  122OSM   H12B12907   0.402   2.780  10.767 -3.1327  0.7600  2.9489
  122OSM    C1112908   0.526   2.759  10.941 -0.1526 -0.4561  0.1118
  122OSM   H11A12909   0.589   2.817  11.011 -2.6041  2.5377  0.0300
  122OSM   H11B12910   0.604   2.690  10.902 -1.1740 -1.2752 -0.5589
  122OSM      P12911   0.391   2.543  10.961  0.4783 -0.2747 -0.4014
  122OSM    O1312912   0.470   2.450  11.035 -0.5758  0.0422  0.3235
  122OSM    O1412913   0.243   2.531  10.970  0.1664  0.1794  0.8758
  122OSM    O1112914   0.427   2.537  10.812  0.3969  0.5822  0.1034
  122OSM    O1212915   0.430   2.688  11.008 -0.1781  0.2023  0.5639
  122OSM    C1S12916   0.329   2.519  10.706 -1.1450  0.1283  0.4339
  122OSM    H1S12917   0.253   2.600  10.707  0.3042  1.5412  0.9176
  122OSM    H1T12918   0.278   2.421  10.715 -1.0738  0.2347  2.4442
  122OSM     NF12919   0.278   2.515  10.460  0.3321  0.4188  0.0646
  122OSM    HNF12920   0.253   2.423  10.430  0.8656  0.1082  0.5643
  122OSM    C2S12921   0.385   2.525  10.559  0.0364 -0.2072 -0.1538
  122OSM    H2S12922   0.435   2.623  10.546 -0.2430 -0.0223  0.1565
  122OSM    C3S12923   0.494   2.407  10.544  0.1098  0.0760 -0.0891
  122OSM    H3S12924   0.440   2.310  10.548  0.9806 -0.4101  0.1468
  122OSM     O312925   0.581   2.401  10.662 -0.0869 -0.7388  0.0520
  122OSM    HO312926   0.535   2.456  10.726 -0.2343 -0.0862 -0.6002
  122OSM    C4S12927   0.570   2.407  10.415 -0.2141  0.2677 -0.1665
  122OSM    H4S12928   0.518   2.348  10.338 -2.2174  0.7593  0.7393
  122OSM    C5S12929   0.691   2.455  10.392  0.3373  0.1936  0.5044
  122OSM    H5S12930   0.749   2.486  10.481 -0.1113 -0.8969  1.2073
  122OSM    C6S12931   0.762   2.446  10.257  0.4392 -0.3239  0.6819
  122OSM    H6S12932   0.801   2.541  10.214  3.4222 -0.9407  1.7748
  122OSM    H6T12933   0.701   2.394  10.179 -1.1760  1.4815  0.6641
  122OSM    C7S12934   0.888   2.367  10.289 -0.2384  0.6664 -0.2456
  122OSM    H7S12935   0.867   2.272  10.342 -0.7982 -0.2984 -2.0937
  122OSM    H7T12936   0.957   2.427  10.353 -0.4188 -1.3649  1.9923
  122OSM    C8S12937   0.971   2.328  10.163  0.4015 -0.4806  0.0282
  122OSM    H8S12938   1.071   2.297  10.199  0.7757 -0.5239 -1.0411
  122OSM    H8T12939   0.987   2.421  10.105 -0.3781  0.1420  0.7673
  122OSM    C9S12940   0.907   2.213  10.083  0.4950  0.5964  0.2597
  122OSM    H9S12941   0.798   2.222  10.064  0.2155 -1.9053  0.3221
  122OSM    H9T12942   0.919   2.118  10.140  0.9815  1.2223  1.2479
  122OSM   C10S12943   0.977   2.183   9.948 -0.1068 -0.2480  0.7054
  122OSM   H10S12944   0.909   2.112   9.897 -2.3996  2.6312 -0.5012
  122OSM   H10T12945   1.075   2.131   9.941 -0.1498 -0.2689  0.2307
  122OSM   C11S12946   0.990   2.304   9.856  0.1281 -0.5593  0.3547
  122OSM   H11S12947   1.044   2.281   9.761 -0.8527  0.4999 -0.4872
  122OSM   H11T12948   1.046   2.387   9.905  0.2429 -0.2246 -0.3199
  122OSM   C12S12949   0.846   2.366   9.824  0.9116  0.0939  0.1284
  122OSM   H12S12950   0.808   2.392   9.925  1.7607 -0.0843  0.5024
  122OSM   H12T12951   0.787   2.286   9.773 -0.5758 -0.1759  2.1739
  122OSM   C13S12952   0.861   2.494   9.741 -0.4634 -0.2701 -0.4436
  122OSM   H13S12953   0.934   2.556   9.797 -2.4922  1.6259  0.2527
  122OSM   H13T12954   0.763   2.544   9.724 -0.5736 -0.7002 -1.1174
  122OSM   C14S12955   0.929   2.459   9.606  0.0013 -0.4773 -0.3469
  122OSM   H14S12956   0.892   2.359   9.578  0.0340 -0.8048  0.7431
  122OSM   H14T12957   1.039   2.445   9.613 -0.0310 -0.8040 -0.4697
  122OSM   C15S12958   0.892   2.562   9.499 -0.1317 -0.1263  0.0542
  122OSM   H15S12959   0.924   2.664   9.530 -0.3095  0.2046 -0.8042
  122OSM   H15T12960   0.783   2.564   9.482 -0.4226  2.5198  1.7039
  122OSM   C16S12961   0.958   2.532   9.359 -0.6792 -0.4254 -0.5022
  122OSM   H16S12962   0.973   2.422   9.350  1.1598 -0.2029 -0.5570
  122OSM   H16T12963   1.060   2.576   9.360 -1.0906  0.5849  0.8857
  122OSM   C17S12964   0.875   2.601   9.240 -0.4426 -0.2133  0.2951
  122OSM   H17S12965   0.944   2.602   9.153 -0.4031  0.3490  0.3253
  122OSM   H17T12966   0.864   2.710   9.259 -0.3256 -0.1421 -0.0313
  122OSM   C18S12967   0.748   2.527   9.208  0.3589  0.0754  0.3690
  122OSM   H18S12968   0.695   2.499   9.301 -0.8110 -0.1511 -0.3389
  122OSM   H18T12969   0.785   2.430   9.168  1.5304  0.3340  0.7979
  122OSM   H18U12970   0.681   2.583   9.139 -0.3529 -0.5745  0.5110
  122OSM    C1F12971   0.187   2.611  10.447 -0.6951  0.0648 -0.4692
  122OSM     OF12972   0.197   2.705  10.525 -0.2430  0.0284 -0.3295
  122OSM    C2F12973   0.079   2.596  10.350 -0.4970  0.0142 -0.4756
  122OSM    H2F12974  -0.020   2.633  10.384 -1.4473 -3.6643  1.2573
  122OSM    H2G12975   0.065   2.488  10.331 -0.7475 -0.1586  0.6131
  122OSM    C3F12976   0.099   2.683  10.225 -0.5421 -0.1594  0.0082
  122OSM    H3F12977   0.100   2.792  10.246 -2.5666 -0.3676  1.4776
  122OSM    H3G12978   0.013   2.675  10.155 -0.4202 -0.0007 -0.1611
  122OSM    C4F12979   0.222   2.646  10.131  0.5608 -0.3668 -0.7141
  122OSM    H4F12980   0.199   2.546  10.090  0.0958 -0.3062 -0.6005
  122OSM    H4G12981   0.315   2.643  10.192 -0.6261 -0.6907  1.1739
  122OSM    C5F12982   0.224   2.749  10.016 -0.0639  0.6073 -0.0514
  122OSM    H5F12983   0.252   2.849  10.056  0.6114  1.4517 -2.4432
  122OSM    H5G12984   0.122   2.765   9.975 -0.3922 -0.6582  0.2412
  122OSM    C6F12985   0.331   2.713   9.910  0.1446 -0.4396  0.2545
  122OSM    H6F12986   0.305   2.614   9.867  2.4543 -0.5169 -1.1195
  122OSM    H6G12987   0.425   2.691   9.967  0.7723 -2.0772 -1.3123
  122OSM    C7F12988   0.341   2.818   9.794 -0.0265  1.0393 -0.2818
  122OSM    H7F12989   0.410   2.784   9.714  0.4347 -0.0948  0.5657
  122OSM    H7G12990   0.378   2.912   9.840 -0.1129  0.8619  0.1546
  122OSM    C8F12991   0.201   2.854   9.727  0.0859  0.4663  0.4862
  122OSM    H8F12992   0.136   2.893   9.809 -0.4389 -1.2370  0.9393
  122OSM    H8G12993   0.152   2.763   9.686 -1.1668  1.3366 -0.0122
  122OSM    C9F12994   0.232   2.955   9.615  0.2594  0.0817  0.4148
  122OSM    H9F12995   0.222   3.060   9.647 -0.1764  0.0611  0.3594
  122OSM   C10F12996   0.264   2.937   9.483 -0.7418  0.4096 -0.2036
  122OSM   H10F12997   0.269   3.025   9.417 -0.4441 -0.2657 -1.1108
  122OSM   C11F12998   0.291   2.807   9.417 -0.1534 -0.3099  0.2534
  122OSM   H11F12999   0.204   2.738   9.419 -0.7104  0.3797  0.1378
  122OSM   H11G13000   0.371   2.752   9.471 -0.1308 -0.4778  0.0510
  122OSM   C12F13001   0.349   2.814   9.272 -0.7245 -0.6469  0.0369
  122OSM   H12F13002   0.299   2.890   9.208  2.6835  0.4636 -1.5716
  122OSM   H12G13003   0.330   2.718   9.219  0.2615 -0.5327 -0.5428
  122OSM   C13F13004   0.499   2.850   9.260 -0.2760 -0.2112  0.0583
  122OSM   H13F13005   0.561   2.764   9.293  1.3247  0.6572 -0.5587
  122OSM   H13G13006   0.527   2.941   9.317 -0.7594  1.1391 -1.7467
  122OSM   C14F13007   0.544   2.870   9.115  0.1932  0.7110 -0.1950
  122OSM   H14F13008   0.484   2.956   9.076 -0.3686  0.5110  0.2215
  122OSM   H14G13009   0.514   2.780   9.058  2.2580  0.5575 -1.1392
  122OSM   C15F13010   0.692   2.902   9.107  0.1304 -0.0355 -0.3644
  122OSM   H15F13011   0.739   2.879   9.205 -1.5302 -2.7206 -0.1058
  122OSM   H15G13012   0.691   3.013   9.096 -1.5499  0.0791  0.5350
  122OSM   C16F13013   0.773   2.841   8.994  0.7494  0.0817 -0.0366
  122OSM   H16F13014   0.754   2.733   8.982 -1.3097  0.2065  1.4791
  122OSM   H16G13015   0.883   2.843   9.013  0.5774  1.0689  0.9766
  122OSM   C17F13016   0.750   2.914   8.860  0.3621 -0.1242  0.3436
  122OSM   H17F13017   0.812   3.006   8.853 -1.2532  1.0502  1.0006
  122OSM   H17G13018   0.645   2.947   8.873  0.3557  0.2161 -0.4985
  122OSM   C18F13019   0.747   2.821   8.743  0.3477 -0.4646  0.4159
  122OSM   H18F13020   0.826   2.743   8.732 -0.5997 -1.2014 -1.7594
  122OSM   H18G13021   0.743   2.876   8.646  1.1053 -0.5212  0.3424
  122OSM   H18H13022   0.657   2.757   8.754 -0.2203  0.2460 -0.0386
  123OSM      N13023   4.108   2.233   5.840 -0.3361 -0.0512 -0.3493
  123OSM    C1513024   4.118   2.372   5.799 -0.5808 -0.1975  0.3013
  123OSM   H15A13025   4.047   2.390   5.720  0.9104  0.7527 -0.9006
  123OSM   H15B13026   4.220   2.392   5.767 -2.0242  2.5921 -3.4088
  123OSM   H15C13027   4.100   2.431   5.888  0.9868  1.5614 -0.4677
  123OSM    C1413028   3.960   2.196   5.837 -0.5580  0.4902 -0.1854
  123OSM   H14A13029   3.912   2.216   5.742  0.1546 -0.4039 -0.7571
  123OSM   H14B13030   3.903   2.242   5.916 -0.2277 -0.3728  0.5771
  123OSM   H14C13031   3.953   2.089   5.852 -3.0684  0.6289  0.1059
  123OSM    C1313032   4.170   2.143   5.747 -0.2498 -0.0039  0.0957
  123OSM   H13A13033   4.275   2.162   5.732  0.6707 -2.3500  2.6894
  123OSM   H13B13034   4.122   2.150   5.651  0.9004 -0.0592 -0.4975
  123OSM   H13C13035   4.164   2.037   5.767 -0.3048 -0.4937 -2.2246
  123OSM    C1213036   4.161   2.209   5.980 -0.5803  0.4040 -0.0890
  123OSM   H12A13037   4.268   2.216   5.987 -0.5843 -0.2704  0.8272
  123OSM   H12B13038   4.130   2.109   6.003 -0.8509  0.2825 -0.9391
  123OSM    C1113039   4.123   2.295   6.101  0.5051  0.2003 -0.3981
  123OSM   H11A13040   4.165   2.250   6.194 -1.1356 -1.0371 -0.2059
  123OSM   H11B13041   4.014   2.297   6.121  0.1134 -0.9854 -2.1745
  123OSM      P13042   4.309   2.462   6.104  0.2985  0.3274 -0.2756
  123OSM    O1313043   4.394   2.345   6.063  0.3344  0.0513  0.4551
  123OSM    O1413044   4.343   2.589   6.046 -0.7984  0.6428  0.3778
  123OSM    O1113045   4.309   2.477   6.263  0.0184 -0.6436  0.5791
  123OSM    O1213046   4.156   2.435   6.082  0.2492  0.5750 -0.0256
  123OSM    C1S13047   4.205   2.553   6.324 -0.3585 -0.2196 -0.4676
  123OSM    H1S13048   4.104   2.507   6.311 -0.2999 -0.2212 -0.9249
  123OSM    H1T13049   4.207   2.654   6.279  1.3436 -0.0513 -0.0752
  123OSM     NF13050   4.138   2.625   6.548 -0.0215 -0.4536  0.1153
  123OSM    HNF13051   4.151   2.721   6.573  1.1923 -0.7760  0.8149
  123OSM    C2S13052   4.245   2.569   6.473 -0.1731 -0.5429 -0.5871
  123OSM    H2S13053   4.261   2.466   6.512  0.0130 -1.3427 -2.6385
  123OSM    C3S13054   4.378   2.646   6.483 -0.2741 -0.2694  0.2485
  123OSM    H3S13055   4.343   2.744   6.445 -2.0201 -1.1380 -0.5631
  123OSM     O313056   4.487   2.598   6.406 -0.5827 -0.5363  0.3004
  123OSM    HO313057   4.454   2.539   6.339 -0.8507  2.6300 -2.6247
  123OSM    C4S13058   4.420   2.656   6.625  0.5086 -0.4761 -0.7234
  123OSM    H4S13059   4.440   2.566   6.684 -1.0970  0.3597  1.2031
  123OSM    C5S13060   4.428   2.780   6.689  0.6705  0.0712  0.4287
  123OSM    H5S13061   4.413   2.876   6.638  1.5307  0.4513  0.8564
  123OSM    C6S13062   4.451   2.804   6.831 -0.2310 -0.2890  0.4063
  123OSM    H6S13063   4.372   2.874   6.866  0.0611 -0.7624  2.0915
  123OSM    H6T13064   4.548   2.856   6.846 -0.7454  0.9199 -0.3594
  123OSM    C7S13065   4.455   2.687   6.930  0.7242 -0.1391 -0.6584
  123OSM    H7S13066   4.523   2.607   6.892 -0.8768 -1.2138 -1.4080
  123OSM    H7T13067   4.353   2.644   6.932  1.3512 -1.7033 -0.6632
  123OSM    C8S13068   4.491   2.726   7.077 -0.4013  0.3173  0.9755
  123OSM    H8S13069   4.418   2.806   7.105  0.3704  1.9611 -1.3920
  123OSM    H8T13070   4.591   2.775   7.081 -0.0248 -0.3203 -0.3403
  123OSM    C9S13071   4.484   2.610   7.179 -0.2347 -0.0218 -0.2116
  123OSM    H9S13072   4.544   2.528   7.135 -2.2662 -1.4273 -0.5169
  123OSM    H9T13073   4.379   2.573   7.172  0.6436 -2.4173 -2.0407
  123OSM   C10S13074   4.531   2.657   7.318 -0.1602 -0.0405  0.5427
  123OSM   H10S13075   4.466   2.740   7.353  1.0270  1.2438 -0.2139
  123OSM   H10T13076   4.625   2.709   7.291 -1.7402  3.0167  0.5441
  123OSM   C11S13077   4.551   2.557   7.431 -0.1971  1.1915  0.9273
  123OSM   H11S13078   4.629   2.483   7.404 -1.5228  0.0502  0.0856
  123OSM   H11T13079   4.459   2.495   7.438  0.1841  0.3021 -1.1930
  123OSM   C12S13080   4.577   2.623   7.560 -0.3654  0.3489  0.2272
  123OSM   H12S13081   4.526   2.720   7.575 -0.9997 -0.0738  0.8139
  123OSM   H12T13082   4.685   2.650   7.553 -0.0496 -1.2462 -3.0467
  123OSM   C13S13083   4.546   2.531   7.684  0.2742 -0.0509  0.3552
  123OSM   H13S13084   4.603   2.435   7.677  1.7479  0.8498 -0.4896
  123OSM   H13T13085   4.440   2.500   7.674  0.3176 -0.1176  0.0821
  123OSM   C14S13086   4.567   2.604   7.814  0.1562  0.0059  0.2503
  123OSM   H14S13087   4.489   2.682   7.828 -0.1654 -0.4894  1.3623
  123OSM   H14T13088   4.665   2.655   7.813 -0.0835  0.5258  1.5241
  123OSM   C15S13089   4.543   2.511   7.937  0.6541 -0.3996 -0.3929
  123OSM   H15S13090   4.636   2.450   7.934  0.8567 -0.1028 -3.6850
  123OSM   H15T13091   4.453   2.449   7.918  0.0942  0.0903  0.5757
  123OSM   C16S13092   4.540   2.588   8.067 -0.2129 -0.2635  0.0516
  123OSM   H16S13093   4.439   2.636   8.074 -0.2377 -0.5255  1.7572
  123OSM   H16T13094   4.619   2.665   8.081  0.8007 -1.1876 -0.4558
  123OSM   C17S13095   4.575   2.496   8.185  0.2794 -0.1083 -0.1704
  123OSM   H17S13096   4.677   2.460   8.165 -0.1211 -1.6045  0.3494
  123OSM   H17T13097   4.507   2.408   8.183  1.3021 -0.9079 -0.3027
  123OSM   C18S13098   4.570   2.569   8.320 -0.2462  0.4155 -0.6926
  123OSM   H18S13099   4.478   2.544   8.377  1.0934 -1.1902  0.8876
  123OSM   H18T13100   4.576   2.678   8.301 -0.3228  0.3767 -0.9514
  123OSM   H18U13101   4.656   2.540   8.383 -0.8502  1.9749  0.9313
  123OSM    C1F13102   4.021   2.567   6.578  0.3991  0.0563  0.4129
  123OSM     OF13103   3.985   2.462   6.526  0.2363 -0.1865  0.5668
  123OSM    C2F13104   3.922   2.641   6.660  0.4449  0.0195 -0.7269
  123OSM    H2F13105   3.826   2.593   6.633  1.1452  0.8962 -5.9005
  123OSM    H2G13106   3.917   2.747   6.628  0.3465  0.2742  0.1101
  123OSM    C3F13107   3.931   2.632   6.817  0.0572  0.5459 -0.1766
  123OSM    H3F13108   3.944   2.527   6.853  1.7500  0.0136 -2.1271
  123OSM    H3G13109   3.839   2.678   6.857  0.9597  0.9816  1.4981
  123OSM    C4F13110   4.058   2.701   6.870 -0.7017  0.8793 -0.7018
  123OSM    H4F13111   4.040   2.808   6.846  1.3107  1.7806  1.3641
  123OSM    H4G13112   4.150   2.672   6.816  0.9359 -1.6330  2.9787
  123OSM    C5F13113   4.098   2.681   7.018 -0.0133 -0.2435  0.3010
  123OSM    H5F13114   4.188   2.745   7.030 -0.9504  1.0481  0.6457
  123OSM    H5G13115   4.124   2.580   7.054  0.6514 -0.4762 -0.7829
  123OSM    C6F13116   3.992   2.745   7.117 -0.5567  0.0729 -0.8749
  123OSM    H6F13117   3.897   2.691   7.096 -0.2573 -1.5609  1.4747
  123OSM    H6G13118   3.979   2.853   7.096 -2.7601  0.3873  1.5822
  123OSM    C7F13119   4.022   2.727   7.268  1.2832  0.2411  0.0960
  123OSM    H7F13120   4.036   2.617   7.278 -2.9240 -0.6004 -1.1137
  123OSM    H7G13121   3.927   2.746   7.323  0.4390 -0.4014 -1.0598
  123OSM    C8F13122   4.143   2.811   7.321 -0.0769 -0.0688 -0.8049
  123OSM    H8F13123   4.123   2.921   7.319 -2.1020 -0.3632  0.2905
  123OSM    H8G13124   4.228   2.793   7.252 -0.5470  2.5783 -2.2241
  123OSM    C9F13125   4.170   2.765   7.464 -0.0472  0.0453  0.4534
  123OSM    H9F13126   4.186   2.657   7.475  1.5330  0.2214  0.1916
  123OSM   C10F13127   4.178   2.837   7.581  0.1829  0.1026 -0.0369
  123OSM   H10F13128   4.207   2.782   7.672 -2.8614 -1.7722 -0.0665
  123OSM   C11F13129   4.167   2.985   7.597  0.3297 -0.4246 -0.1483
  123OSM   H11F13130   4.096   3.032   7.526 -1.6446 -0.1073  1.9133
  123OSM   H11G13131   4.267   3.031   7.587  0.6116 -0.7687  0.8824
  123OSM   C12F13132   4.107   3.013   7.734 -0.2911 -0.4185  0.0698
  123OSM   H12F13133   4.017   2.952   7.759 -0.1650 -0.5369  0.2331
  123OSM   H12G13134   4.059   3.112   7.747  1.1760  0.1918  1.0163
  123OSM   C13F13135   4.209   2.996   7.854  0.0736  0.2948  0.7286
  123OSM   H13F13136   4.291   3.070   7.857 -0.1039  0.6919 -1.7688
  123OSM   H13G13137   4.251   2.894   7.840 -0.7416  0.1641 -1.0134
  123OSM   C14F13138   4.132   2.992   7.987  0.6227 -0.5080 -0.0046
  123OSM   H14F13139   4.078   2.895   7.986  1.1899 -0.8494  1.0338
  123OSM   H14G13140   4.053   3.069   8.005  3.3963  2.1304  1.7780
  123OSM   C15F13141   4.226   2.982   8.108 -0.3062 -0.0219  0.4774
  123OSM   H15F13142   4.282   3.077   8.123  1.5133 -0.8521 -0.7204
  123OSM   H15G13143   4.298   2.899   8.091 -0.5441 -0.8667  3.1230
  123OSM   C16F13144   4.147   2.958   8.239  0.0253  0.8717  0.1481
  123OSM   H16F13145   4.114   2.853   8.255  0.4245  0.9073  1.2572
  123OSM   H16G13146   4.051   3.013   8.229 -1.6220 -1.9696 -0.6327
  123OSM   C17F13147   4.219   3.002   8.362  0.1272 -0.2894 -0.5668
  123OSM   H17F13148   4.159   2.998   8.455  0.3122 -0.7242 -0.4652
  123OSM   H17G13149   4.256   3.105   8.342  4.3481 -1.2911  1.1240
  123OSM   C18F13150   4.345   2.916   8.391 -0.3399 -0.3606 -0.0582
  123OSM   H18F13151   4.315   2.819   8.435 -2.4424  0.4417  0.4193
  123OSM   H18G13152   4.400   2.958   8.478 -0.5660 -3.4358  1.7309
  123OSM   H18H13153   4.418   2.907   8.308 -1.1015  1.2298 -0.9411
  124OSM      N13154   6.177   0.212   6.399  0.4410  0.1388  0.4556
  124OSM    C1513155   6.154   0.276   6.528 -0.2587  0.8834  0.7449
  124OSM   H15A13156   6.118   0.377   6.517  0.3410  0.8074 -3.4685
  124OSM   H15B13157   6.247   0.278   6.584 -0.4133 -1.3402  1.1875
  124OSM   H15C13158   6.088   0.219   6.592  0.7642 -1.1347  0.0886
  124OSM    C1413159   6.288   0.293   6.338 -0.1041  0.0371  0.3075
  124OSM   H14A13160   6.336   0.248   6.252  1.9294 -0.0760  1.4265
  124OSM   H14B13161   6.363   0.317   6.412 -1.3753 -0.3315  1.7499
  124OSM   H14C13162   6.252   0.392   6.316  0.5451  0.5027  1.2549
  124OSM    C1313163   6.211   0.069   6.430  0.2233 -0.1400  0.0735
  124OSM   H13A13164   6.286   0.067   6.508 -2.2443  1.2168  2.6696
  124OSM   H13B13165   6.250   0.022   6.341 -0.1933  1.7579 -1.1564
  124OSM   H13C13166   6.121   0.020   6.466 -0.5529  0.8404 -0.4871
  124OSM    C1213167   6.050   0.219   6.314 -1.4210 -0.1486  0.1751
  124OSM   H12A13168   6.075   0.161   6.227 -3.9436 -1.2812  0.1393
  124OSM   H12B13169   6.044   0.326   6.296  0.5664  0.0903  0.7045
  124OSM    C1113170   5.915   0.147   6.367  0.2179 -0.5765  0.7810
  124OSM   H11A13171   5.843   0.183   6.290  1.2336  0.9640  0.5045
  124OSM   H11B13172   5.899   0.191   6.467  3.1621  2.2406  0.1628
  124OSM      P13173   5.891  -0.084   6.484  0.1867 -0.4415  0.1686
  124OSM    O1313174   5.759  -0.144   6.452  0.7949  0.3716 -0.5304
  124OSM    O1413175   6.002  -0.170   6.509  0.4498 -0.3937 -0.2809
  124OSM    O1113176   5.879   0.015   6.609 -0.6213 -0.1927  0.4728
  124OSM    O1213177   5.932   0.004   6.362 -0.2788  0.1136  0.1861
  124OSM    C1S13178   5.921  -0.013   6.744 -0.5484  0.0960 -0.6717
  124OSM    H1S13179   6.029  -0.041   6.743 -1.0172 -1.8572 -0.4071
  124OSM    H1T13180   5.864  -0.104   6.772 -2.9411  1.8503  0.5401
  124OSM     NF13181   5.925   0.018   6.980 -0.3196  0.0408 -0.0692
  124OSM    HNF13182   5.844  -0.024   7.020 -0.8209  0.8908 -0.1602
  124OSM    C2S13183   5.887   0.086   6.855 -0.6373  0.5989 -0.5494
  124OSM    H2S13184   5.954   0.172   6.833 -2.0409  1.6716 -0.7988
  124OSM    C3S13185   5.742   0.144   6.848  0.6622  0.0342  0.1646
  124OSM    H3S13186   5.669   0.062   6.863  0.7724  0.0899  1.0754
  124OSM     O313187   5.702   0.207   6.731  0.3812  0.5263 -0.2655
  124OSM    HO313188   5.769   0.171   6.672 -0.3150  0.1217 -0.8297
  124OSM    C4S13189   5.720   0.251   6.951 -0.4004  0.0364 -0.3612
  124OSM    H4S13190   5.759   0.351   6.925 -2.9651  0.9182 -1.1623
  124OSM    C5S13191   5.658   0.240   7.072 -0.1066  0.0932  0.3002
  124OSM    H5S13192   5.599   0.150   7.092  0.5870 -0.5214 -0.3581
  124OSM    C6S13193   5.653   0.354   7.166  0.3555  0.2486  0.0823
  124OSM    H6S13194   5.547   0.373   7.196  0.3270  1.0316 -0.4847
  124OSM    H6T13195   5.685   0.448   7.117  1.3946 -0.7952 -1.3632
  124OSM    C7S13196   5.735   0.324   7.287 -0.2013 -0.6356  0.8378
  124OSM    H7S13197   5.731   0.415   7.350 -0.4951 -0.5040  0.6329
  124OSM    H7T13198   5.840   0.301   7.258 -0.7769 -1.6054 -0.6259
  124OSM    C8S13199   5.687   0.195   7.368 -0.5874 -0.7249 -0.1611
  124OSM    H8S13200   5.713   0.110   7.302 -1.9423 -1.8581  0.7247
  124OSM    H8T13201   5.578   0.209   7.384 -0.6760 -0.8221 -0.6433
  124OSM    C9S13202   5.772   0.204   7.503  0.0639 -0.5545  0.1302
  124OSM    H9S13203   5.741   0.297   7.554  0.7686 -0.1761 -0.1233
  124OSM    H9T13204   5.879   0.230   7.486  0.3054 -1.5655 -0.0022
  124OSM   C10S13205   5.752   0.084   7.594 -0.4115 -0.1459  0.6313
  124OSM   H10S13206   5.786  -0.002   7.532 -1.2681 -0.3349  0.4221
  124OSM   H10T13207   5.646   0.055   7.608  0.4838 -4.3173  0.2411
  124OSM   C11S13208   5.828   0.092   7.726  0.4391  0.1457 -0.0536
  124OSM   H11S13209   5.795   0.179   7.788  0.7344 -1.0422  1.8648
  124OSM   H11T13210   5.936   0.110   7.708  0.0168  0.4268 -2.6061
  124OSM   C12S13211   5.804  -0.033   7.813 -0.6061 -0.2599  0.1106
  124OSM   H12S13212   5.843  -0.121   7.757  0.1696 -1.6208  2.6471
  124OSM   H12T13213   5.697  -0.039   7.841 -0.8051 -0.0136 -0.5652
  124OSM   C13S13214   5.882  -0.021   7.944  0.5088  0.1411 -0.8583
  124OSM   H13S13215   5.854   0.073   7.996 -2.1550 -1.2023  0.2923
  124OSM   H13T13216   5.990  -0.027   7.917  0.7678  2.1321 -0.4285
  124OSM   C14S13217   5.849  -0.141   8.044  0.1658 -0.3726  0.4430
  124OSM   H14S13218   5.846  -0.240   7.995 -0.7531  0.0309 -0.3501
  124OSM   H14T13219   5.746  -0.122   8.082  0.3864 -0.1483  0.9322
  124OSM   C15S13220   5.937  -0.138   8.162  0.2109  0.1095  0.0760
  124OSM   H15S13221   5.926  -0.044   8.220 -0.5923  0.6454 -0.9179
  124OSM   H15T13222   6.046  -0.147   8.141  0.6497  1.2311  1.7071
  124OSM   C16S13223   5.909  -0.252   8.267 -0.7442  0.2763  0.7033
  124OSM   H16S13224   5.988  -0.233   8.343 -1.5995  0.2780  1.6160
  124OSM   H16T13225   5.926  -0.350   8.216 -0.2610  0.5870  0.2496
  124OSM   C17S13226   5.785  -0.220   8.341  0.7519 -0.0472 -0.0036
  124OSM   H17S13227   5.764  -0.309   8.405 -0.4994 -0.1960 -0.5911
  124OSM   H17T13228   5.695  -0.210   8.276  0.1744 -1.4712  0.5278
  124OSM   C18S13229   5.784  -0.104   8.437 -0.4403 -0.4763  0.8580
  124OSM   H18S13230   5.874  -0.097   8.503  0.0747  0.6163  0.0696
  124OSM   H18T13231   5.694  -0.096   8.502 -0.5401  0.4944  0.6162
  124OSM   H18U13232   5.789  -0.014   8.372  3.1654  0.9669  2.7945
  124OSM    C1F13233   6.055  -0.010   7.017 -0.1480 -0.0082  0.2281
  124OSM     OF13234   6.148   0.046   6.960  0.1500  0.0540 -0.1025
  124OSM    C2F13235   6.069  -0.105   7.130 -0.6119  0.0488  0.7262
  124OSM    H2F13236   6.147  -0.179   7.102  0.9633  1.0808  2.2650
  124OSM    H2G13237   5.976  -0.161   7.157 -0.3480 -0.6023  0.3008
  124OSM    C3F13238   6.126  -0.031   7.247 -0.2106  0.4261 -0.8152
  124OSM    H3F13239   6.064   0.058   7.275  0.7694  0.9817 -0.3677
  124OSM    H3G13240   6.226   0.008   7.222 -0.7721  2.2080 -0.4248
  124OSM    C4F13241   6.143  -0.122   7.372 -0.3309 -0.5005 -0.3303
  124OSM    H4F13242   6.241  -0.176   7.370 -1.0378 -1.8234 -0.4995
  124OSM    H4G13243   6.065  -0.201   7.373 -1.6246  0.7400 -0.4666
  124OSM    C5F13244   6.124  -0.050   7.505  0.3898  0.1550 -0.1092
  124OSM    H5F13245   6.041   0.023   7.495 -1.8239 -2.2277 -0.1026
  124OSM    H5G13246   6.219   0.001   7.528  0.1896  1.7506 -2.4243
  124OSM    C6F13247   6.085  -0.151   7.617  1.1463 -0.3750 -0.2999
  124OSM    H6F13248   5.983  -0.189   7.596  0.8570 -0.5242  1.2964
  124OSM    H6G13249   6.071  -0.096   7.713 -1.6667  0.7358 -1.2242
  124OSM    C7F13250   6.186  -0.262   7.639  0.2705 -0.2644  0.3025
  124OSM    H7F13251   6.283  -0.212   7.659  0.3686  0.2489 -1.3246
  124OSM    H7G13252   6.196  -0.313   7.541  2.0177  2.1237 -0.8632
  124OSM    C8F13253   6.145  -0.362   7.747  0.4961  0.1926  0.3870
  124OSM    H8F13254   6.124  -0.295   7.833  1.7861  2.1207 -0.7036
  124OSM    H8G13255   6.234  -0.425   7.770 -0.0241 -0.4388  0.6745
  124OSM    C9F13256   6.026  -0.452   7.719 -0.9629 -0.5983  0.7534
  124OSM    H9F13257   6.004  -0.474   7.613 -0.5332 -1.8271  0.8990
  124OSM   C10F13258   5.965  -0.518   7.814 -0.1587  0.1505 -0.5719
  124OSM   H10F13259   5.881  -0.579   7.778  1.4623 -0.4460 -3.7372
  124OSM   C11F13260   5.995  -0.515   7.964 -0.0334 -0.1533  0.4772
  124OSM   H11F13261   5.908  -0.472   8.017 -1.2808 -1.1288 -0.7175
  124OSM   H11G13262   6.091  -0.459   7.975  0.1906 -0.0794 -1.4178
  124OSM   C12F13263   6.014  -0.661   8.023  0.0875  0.2805 -0.1218
  124OSM   H12F13264   6.087  -0.655   8.107 -0.9267 -0.2574  0.8334
  124OSM   H12G13265   6.053  -0.722   7.940  1.8290  1.7930 -0.4893
  124OSM   C13F13266   5.876  -0.710   8.073  0.1448  0.1860 -0.5587
  124OSM   H13F13267   5.880  -0.820   8.080  0.4709  0.2925  1.4292
  124OSM   H13G13268   5.809  -0.678   7.990  1.1722  0.1607 -1.4208
  124OSM   C14F13269   5.835  -0.661   8.212  0.1490 -0.3264 -1.0130
  124OSM   H14F13270   5.849  -0.551   8.220  0.2753 -0.4700  1.6093
  124OSM   H14G13271   5.904  -0.686   8.295 -1.7782 -0.2849  0.6556
  124OSM   C15F13272   5.689  -0.705   8.240 -0.5530  0.0814  0.8359
  124OSM   H15F13273   5.682  -0.816   8.243  1.1405 -0.0252  2.3739
  124OSM   H15G13274   5.613  -0.668   8.168 -0.6815 -0.7825  0.5175
  124OSM   C16F13275   5.648  -0.669   8.384 -0.2391  0.1479  0.5274
  124OSM   H16F13276   5.642  -0.562   8.415 -2.6275 -0.5372  2.8596
  124OSM   H16G13277   5.710  -0.722   8.460 -0.7251  2.4230  2.6645
  124OSM   C17F13278   5.500  -0.707   8.418  0.3351  0.1886 -0.1687
  124OSM   H17F13279   5.478  -0.807   8.376 -1.0286 -0.0200  0.9937
  124OSM   H17G13280   5.442  -0.630   8.363  2.4418  0.4420 -2.2100
  124OSM   C18F13281   5.478  -0.717   8.567  0.2967 -0.1462  0.4812
  124OSM   H18F13282   5.480  -0.626   8.632  1.5002  0.2009 -0.0113
  124OSM   H18G13283   5.561  -0.769   8.620  0.3295 -0.8439 -0.2451
  124OSM   H18H13284   5.379  -0.765   8.579 -0.1251 -0.2790 -2.6821
  125OSM      N13285   6.256   1.433   5.904  0.3546 -0.3336  0.2357
  125OSM    C1513286   6.354   1.418   5.795 -0.5913  0.4527 -0.0805
  125OSM   H15A13287   6.392   1.514   5.762 -1.7698  0.8753 -0.2803
  125OSM   H15B13288   6.316   1.353   5.717 -0.5948 -0.5317  0.7233
  125OSM   H15C13289   6.443   1.365   5.826 -1.4913  0.2486  2.3394
  125OSM    C1413290   6.146   1.516   5.845  0.1858  1.0988 -0.3036
  125OSM   H14A13291   6.136   1.483   5.743  2.4261 -1.4668  0.1818
  125OSM   H14B13292   6.169   1.619   5.869 -0.1656  1.3102 -0.8632
  125OSM   H14C13293   6.057   1.494   5.903  0.9644  1.5154  1.0946
  125OSM    C1313294   6.196   1.301   5.936  0.1460  0.5484 -0.7948
  125OSM   H13A13295   6.127   1.319   6.017 -2.3738 -0.9511 -2.4818
  125OSM   H13B13296   6.265   1.232   5.982 -2.5965 -1.2956  0.8009
  125OSM   H13C13297   6.144   1.261   5.850  0.0800  0.0888 -0.5424
  125OSM    C1213298   6.291   1.499   6.035  0.2665 -0.5173 -0.0930
  125OSM   H12A13299   6.339   1.594   6.014  0.5792 -0.2023  1.8407
  125OSM   H12B13300   6.363   1.436   6.084 -2.0978 -3.0415  0.3452
  125OSM    C1113301   6.184   1.531   6.143 -0.1924  0.2671 -0.4316
  125OSM   H11A13302   6.097   1.593   6.110  0.2430  0.4036 -1.3503
  125OSM   H11B13303   6.233   1.591   6.222 -1.3532 -1.5972  1.8511
  125OSM      P13304   6.031   1.413   6.321  0.1658  0.2250  0.1036
  125OSM    O1313305   5.911   1.481   6.273 -0.3069 -0.5114  0.0695
  125OSM    O1413306   6.017   1.281   6.389 -0.3876  0.4206  0.1158
  125OSM    O1113307   6.110   1.504   6.426 -0.0754  0.3107  0.0920
  125OSM    O1213308   6.136   1.409   6.204 -0.7308 -0.1609 -0.6765
  125OSM    C1S13309   6.050   1.625   6.468 -0.0183  0.2438  0.7344
  125OSM    H1S13310   5.941   1.615   6.489 -0.2660  2.4828  0.8072
  125OSM    H1T13311   6.062   1.706   6.393  0.6795 -0.0085  0.5723
  125OSM     NF13312   6.050   1.778   6.672 -0.2304  0.3580 -0.1237
  125OSM    HNF13313   6.090   1.869   6.678  2.9939 -0.8278 -1.6267
  125OSM    C2S13314   6.131   1.673   6.594 -0.0362 -0.6670 -0.0634
  125OSM    H2S13315   6.145   1.579   6.651 -0.3501 -0.6233  0.0888
  125OSM    C3S13316   6.263   1.725   6.555  1.0759 -0.0038 -0.4290
  125OSM    H3S13317   6.248   1.815   6.492 -1.6048 -1.6935 -2.3921
  125OSM     O313318   6.343   1.630   6.481  0.0916  0.3611  0.3674
  125OSM    HO313319   6.273   1.568   6.461 -1.0183  1.2999  1.2111
  125OSM    C4S13320   6.337   1.764   6.677 -0.1906 -0.0078 -0.9659
  125OSM    H4S13321   6.305   1.865   6.707 -2.1098 -1.0654  0.7774
  125OSM    C5S13322   6.437   1.707   6.751  0.6870  0.1990  0.5489
  125OSM    H5S13323   6.480   1.610   6.722  0.8983  0.2144  0.8027
  125OSM    C6S13324   6.498   1.779   6.870  0.1744 -0.8442 -0.0050
  125OSM    H6S13325   6.461   1.883   6.878  3.4815  0.3487  2.0716
  125OSM    H6T13326   6.607   1.795   6.853  0.2964 -1.9611 -0.3399
  125OSM    C7S13327   6.463   1.703   7.000  0.0899  0.3283  0.1833
  125OSM    H7S13328   6.530   1.615   7.009  1.2848  1.3164  1.4492
  125OSM    H7T13329   6.356   1.677   6.997 -0.3233  1.9733 -0.5619
  125OSM    C8S13330   6.492   1.785   7.128  0.8527 -0.3336 -0.0123
  125OSM    H8S13331   6.443   1.885   7.128  0.6851 -0.3968 -1.0518
  125OSM    H8T13332   6.598   1.815   7.117  0.8970  1.0358  3.2208
  125OSM    C9S13333   6.471   1.709   7.255  0.1397 -0.4042 -0.3238
  125OSM    H9S13334   6.542   1.624   7.256 -0.1433 -0.6410  0.7086
  125OSM    H9T13335   6.366   1.672   7.254 -1.3240  3.2962 -2.0902
  125OSM   C10S13336   6.487   1.795   7.382  0.1421 -0.7679  0.5700
  125OSM   H10S13337   6.404   1.868   7.370  0.8104 -0.3842 -2.2920
  125OSM   H10T13338   6.580   1.856   7.377 -0.9094  0.9968  1.4261
  125OSM   C11S13339   6.488   1.715   7.511 -0.3602  0.5024  0.8334
  125OSM   H11S13340   6.569   1.639   7.520 -0.7474 -0.3014 -1.6563
  125OSM   H11T13341   6.394   1.655   7.511  0.3407 -0.6435  1.9754
  125OSM   C12S13342   6.479   1.807   7.638  0.1184  0.0276  0.1067
  125OSM   H12S13343   6.390   1.873   7.635 -1.3474 -1.7497  1.7125
  125OSM   H12T13344   6.571   1.870   7.633 -0.7618  1.3539  0.2614
  125OSM   C13S13345   6.481   1.724   7.769 -0.4510  0.1238  0.8002
  125OSM   H13S13346   6.563   1.651   7.752  0.1519  0.9888 -0.2030
  125OSM   H13T13347   6.389   1.668   7.796 -0.5824 -0.6205 -1.0313
  125OSM   C14S13348   6.524   1.803   7.889 -0.1198 -0.8399  0.0846
  125OSM   H14S13349   6.460   1.893   7.879  0.8264 -0.3910 -3.4621
  125OSM   H14T13350   6.630   1.835   7.895 -0.9212  2.2197 -0.5653
  125OSM   C15S13351   6.488   1.733   8.021  0.2880  0.2666  0.2483
  125OSM   H15S13352   6.541   1.636   8.026 -1.4690 -0.7360  0.0630
  125OSM   H15T13353   6.379   1.713   8.027  0.6688 -1.5648  1.7675
  125OSM   C16S13354   6.532   1.804   8.148 -0.2986 -0.0657  0.0767
  125OSM   H16S13355   6.486   1.905   8.146 -0.4479 -0.1357 -0.0750
  125OSM   H16T13356   6.642   1.812   8.152 -0.1060 -1.8322 -0.4705
  125OSM   C17S13357   6.484   1.741   8.270  0.2314  0.4255 -0.6018
  125OSM   H17S13358   6.373   1.733   8.276  0.2818 -0.0865 -0.3124
  125OSM   H17T13359   6.512   1.800   8.360  0.0120 -2.8355  1.7737
  125OSM   C18S13360   6.534   1.601   8.304  1.0109 -0.0096 -0.2610
  125OSM   H18S13361   6.489   1.524   8.238  0.7085 -2.0138  2.1325
  125OSM   H18T13362   6.499   1.567   8.404 -0.3866 -1.1129 -1.0845
  125OSM   H18U13363   6.644   1.586   8.296  1.0057 -0.3880  0.3080
  125OSM    C1F13364   5.939   1.732   6.742  0.7747 -0.1400 -0.1327
  125OSM     OF13365   5.918   1.614   6.762 -0.5025  0.2770 -0.2756
  125OSM    C2F13366   5.849   1.849   6.793  0.4572  0.2537 -0.3271
  125OSM    H2F13367   5.764   1.873   6.725 -1.0417  4.1730  2.5609
  125OSM    H2G13368   5.925   1.930   6.790  0.4983  0.1920 -1.6774
  125OSM    C3F13369   5.807   1.834   6.939 -0.6115 -0.2094  0.3181
  125OSM    H3F13370   5.739   1.746   6.946 -1.8352  0.7802  1.3340
  125OSM    H3G13371   5.753   1.928   6.963  2.3260  1.4173  1.1446
  125OSM    C4F13372   5.924   1.825   7.035  0.1810  0.4403 -0.3587
  125OSM    H4F13373   6.009   1.893   7.015  1.9005 -1.7249 -0.8244
  125OSM    H4G13374   5.962   1.721   7.042 -0.2907  0.3685  2.5014
  125OSM    C5F13375   5.872   1.846   7.176  0.2553  0.5768  0.3617
  125OSM    H5F13376   5.811   1.754   7.192  1.3580  0.0378  1.6157
  125OSM    H5G13377   5.798   1.928   7.176 -0.2835  0.1588 -1.5185
  125OSM    C6F13378   5.976   1.846   7.291 -1.1291  0.1503 -0.0422
  125OSM    H6F13379   6.037   1.938   7.273  0.0391 -0.4138  0.8744
  125OSM    H6G13380   6.036   1.753   7.278 -1.7565 -0.2007 -0.4814
  125OSM    C7F13381   5.908   1.834   7.424  0.0003 -1.1334  0.5086
  125OSM    H7F13382   5.870   1.731   7.439 -1.4148 -0.8804 -0.9911
  125OSM    H7G13383   5.822   1.905   7.414  1.1608  0.0843 -1.5717
  125OSM    C8F13384   6.000   1.875   7.541  0.3487  0.3711  0.3961
  125OSM    H8F13385   5.937   1.862   7.632  0.9712  0.2180  0.8102
  125OSM    H8G13386   6.022   1.984   7.533 -3.9764  1.5384  1.7653
  125OSM    C9F13387   6.117   1.774   7.556 -0.8092 -0.7064  0.0499
  125OSM    H9F13388   6.180   1.761   7.467  0.8480 -2.6111  1.4210
  125OSM   C10F13389   6.135   1.706   7.674 -0.1101  0.0482 -0.0492
  125OSM   H10F13390   6.221   1.637   7.681  1.4366  2.0628  3.9887
  125OSM   C11F13391   6.040   1.704   7.789 -0.1470 -0.0405 -0.0254
  125OSM   H11F13392   6.057   1.602   7.830 -4.2269 -1.4032 -1.3224
  125OSM   H11G13393   5.932   1.708   7.766 -0.3717  2.1834  1.1454
  125OSM   C12F13394   6.058   1.804   7.902 -0.0030 -0.5656 -1.1078
  125OSM   H12F13395   6.045   1.910   7.868 -2.1067 -0.6738 -0.7867
  125OSM   H12G13396   6.156   1.793   7.953  0.8038  0.2023 -2.4147
  125OSM   C13F13397   5.954   1.784   8.013 -0.2946 -0.5466 -0.1705
  125OSM   H13F13398   5.990   1.702   8.079  0.4830  0.9358  1.3081
  125OSM   H13G13399   5.857   1.750   7.969 -0.2343 -1.6001  0.4735
  125OSM   C14F13400   5.933   1.897   8.109 -0.1465 -0.2483 -0.2410
  125OSM   H14F13401   5.876   1.974   8.053 -0.7890 -1.7193 -1.6803
  125OSM   H14G13402   6.025   1.947   8.146  1.2576 -1.5420 -1.8332
  125OSM   C15F13403   5.857   1.838   8.222  1.0726  0.0872 -0.5089
  125OSM   H15F13404   5.775   1.773   8.183 -0.1419  1.1551  0.1971
  125OSM   H15G13405   5.798   1.920   8.267  0.9047  0.3630 -1.2101
  125OSM   C16F13406   5.921   1.762   8.334 -0.5456  0.5334  0.5233
  125OSM   H16F13407   6.024   1.799   8.354 -0.5432  0.3855  0.7865
  125OSM   H16G13408   5.926   1.656   8.299 -1.7854  0.2953  1.0179
  125OSM   C17F13409   5.851   1.755   8.469 -0.8196 -0.5629 -0.1602
  125OSM   H17F13410   5.902   1.675   8.528  0.3744 -0.6285 -1.2251
  125OSM   H17G13411   5.749   1.714   8.456 -0.8319 -0.2340 -1.1986
  125OSM   C18F13412   5.843   1.894   8.546  0.5051 -0.1741  0.8668
  125OSM   H18F13413   5.941   1.935   8.577  0.6476  0.8923 -0.8866
  125OSM   H18G13414   5.782   1.874   8.637 -0.2608  0.8841  0.6044
  125OSM   H18H13415   5.781   1.964   8.487 -0.2438 -0.9708  0.6843
  126OSM      N13416   3.832   1.475   6.315 -0.3284 -0.1225 -0.5138
  126OSM    C1513417   3.919   1.597   6.320  0.0105 -0.1890 -0.1722
  126OSM   H15A13418   3.901   1.683   6.257 -1.7635 -0.1169  0.3732
  126OSM   H15B13419   4.017   1.568   6.287  0.2067  0.9032 -0.5890
  126OSM   H15C13420   3.928   1.639   6.419  2.9002  1.7944 -1.1526
  126OSM    C1413421   3.693   1.521   6.339  0.1180  0.0623 -0.1664
  126OSM   H14A13422   3.625   1.438   6.354  3.1774 -2.3453  1.4289
  126OSM   H14B13423   3.654   1.582   6.259  0.4918  1.1332  0.4405
  126OSM   H14C13424   3.681   1.572   6.434 -0.1311  0.0202 -0.1747
  126OSM    C1313425   3.852   1.427   6.173  0.1488 -0.3525 -0.6242
  126OSM   H13A13426   3.799   1.487   6.101 -3.0244 -2.8682 -0.6152
  126OSM   H13B13427   3.793   1.337   6.168  1.3689 -1.0972 -2.4480
  126OSM   H13C13428   3.954   1.404   6.145  0.0882 -0.6675 -0.5864
  126OSM    C1213429   3.877   1.364   6.415 -0.2245 -0.3937  0.3149
  126OSM   H12A13430   3.963   1.312   6.377  0.6439  1.3970 -0.2626
  126OSM   H12B13431   3.805   1.284   6.426 -2.2198  1.4717  1.5528
  126OSM    C1113432   3.907   1.423   6.557  0.7178  0.5706 -1.1488
  126OSM   H11A13433   3.978   1.508   6.550 -1.9301  3.2858  1.8039
  126OSM   H11B13434   3.958   1.345   6.617  1.3767  2.3189  0.6833
  126OSM      P13435   3.684   1.368   6.675 -0.2385 -0.1809 -0.3147
  126OSM    O1313436   3.586   1.439   6.756 -0.2585 -0.3680 -0.0547
  126OSM    O1413437   3.635   1.300   6.555  0.0934 -0.9120 -0.1579
  126OSM    O1113438   3.756   1.267   6.768  0.5960  0.1352 -0.4141
  126OSM    O1213439   3.790   1.475   6.628 -0.0048 -0.2426 -0.0879
  126OSM    C1S13440   3.847   1.315   6.872  0.2276 -0.3862  0.2306
  126OSM    H1S13441   3.813   1.410   6.919  1.0971 -0.3028  0.7143
  126OSM    H1T13442   3.949   1.331   6.829  0.3966 -2.0480 -0.0617
  126OSM     NF13443   3.941   1.287   7.097  1.1966  0.2259 -0.9285
  126OSM    HNF13444   4.037   1.270   7.120  0.8626  0.2734  0.5993
  126OSM    C2S13445   3.878   1.214   6.988 -0.6853  0.0047 -0.1788
  126OSM    H2S13446   3.779   1.177   7.021 -0.9397 -0.1463 -1.0972
  126OSM    C3S13447   3.958   1.092   6.940 -0.5001 -0.5969 -0.4024
  126OSM    H3S13448   4.068   1.100   6.941 -0.3052 -2.8083 -0.2725
  126OSM     O313449   3.928   1.056   6.805  0.4277 -0.0263 -0.2138
  126OSM    HO313450   3.862   1.119   6.776  0.0482 -0.2094  0.2301
  126OSM    C4S13451   3.938   0.976   7.038  0.6282  0.5820  0.5589
  126OSM    H4S13452   3.865   0.900   7.008  1.9472 -0.0857 -1.1616
  126OSM    C5S13453   4.028   0.943   7.133 -0.5739  0.4151 -0.7022
  126OSM    H5S13454   4.117   1.003   7.152 -0.1158 -0.5226  0.2458
  126OSM    C6S13455   4.004   0.823   7.231  0.2794  0.0105  0.1375
  126OSM    H6S13456   4.091   0.758   7.249 -0.7593 -0.9986  1.7956
  126OSM    H6T13457   3.919   0.758   7.203  0.4843 -0.2717  0.1722
  126OSM    C7S13458   3.976   0.899   7.368  0.0576  0.4031  0.2349
  126OSM    H7S13459   3.882   0.953   7.348 -0.2168 -0.6264 -1.3960
  126OSM    H7T13460   4.052   0.980   7.375  0.6373 -0.2211  1.6705
  126OSM    C8S13461   3.990   0.803   7.493  0.3067 -0.3449  0.3087
  126OSM    H8S13462   4.058   0.721   7.462  1.9408  1.7011 -1.9047
  126OSM    H8T13463   3.889   0.767   7.525  0.3800  2.2072  3.9208
  126OSM    C9S13464   4.048   0.880   7.608  0.2351 -0.8574 -0.0440
  126OSM    H9S13465   4.014   0.985   7.618  1.1423 -0.1393 -3.4518
  126OSM    H9T13466   4.158   0.884   7.593  0.3974 -1.0502  0.9804
  126OSM   C10S13467   4.012   0.809   7.739 -0.5732  0.3038 -0.1408
  126OSM   H10S13468   4.035   0.705   7.707 -0.4498  0.0239  0.8281
  126OSM   H10T13469   3.902   0.798   7.751 -0.3640 -3.1255 -0.2795
  126OSM   C11S13470   4.097   0.848   7.858 -0.1333  0.3233  0.0841
  126OSM   H11S13471   4.205   0.857   7.833 -0.0152 -0.6202  0.2127
  126OSM   H11T13472   4.102   0.758   7.922  2.3295  0.9839  0.9153
  126OSM   C12S13473   4.042   0.972   7.941 -0.6993 -0.4927  0.3342
  126OSM   H12S13474   3.940   0.942   7.975 -1.8297 -0.6229 -2.8135
  126OSM   H12T13475   4.025   1.055   7.870  0.5896 -0.3130  0.2111
  126OSM   C13S13476   4.135   1.012   8.058  0.0729  0.3757 -0.2360
  126OSM   H13S13477   4.239   1.019   8.019 -0.7736  1.4351 -2.5412
  126OSM   H13T13478   4.139   0.950   8.150  2.1973  1.5216  0.5265
  126OSM   C14S13479   4.100   1.145   8.122  0.0510  0.0687  1.1307
  126OSM   H14S13480   4.067   1.222   8.048  1.8434  0.5134  0.7470
  126OSM   H14T13481   4.196   1.197   8.140 -0.6979  2.0001 -0.0375
  126OSM   C15S13482   4.011   1.139   8.241 -0.3296  0.1406 -0.7477
  126OSM   H15S13483   4.057   1.056   8.299  0.2247  1.0582  0.1435
  126OSM   H15T13484   3.904   1.119   8.214 -1.4161  1.9498  1.8323
  126OSM   C16S13485   4.023   1.257   8.337  0.3012 -0.5966  0.3128
  126OSM   H16S13486   3.963   1.337   8.289 -0.9573 -2.3697 -1.2299
  126OSM   H16T13487   4.130   1.288   8.332 -0.0201  0.3451 -1.9175
  126OSM   C17S13488   3.961   1.241   8.479 -0.1712  0.2854  0.5719
  126OSM   H17S13489   3.988   1.137   8.505  2.2184 -0.2881 -3.3421
  126OSM   H17T13490   3.851   1.258   8.468 -0.0304 -0.2257 -2.5102
  126OSM   C18S13491   4.033   1.331   8.581 -0.3286 -0.4705 -0.1572
  126OSM   H18S13492   4.137   1.352   8.550 -0.3035 -2.3453 -1.5244
  126OSM   H18T13493   4.047   1.268   8.672 -0.0477 -1.8991 -1.1490
  126OSM   H18U13494   3.967   1.418   8.602 -0.2143 -0.9474  2.5087
  126OSM    C1F13495   3.878   1.378   7.171 -0.4486 -0.3949  0.0007
  126OSM     OF13496   3.777   1.437   7.130 -0.7235  0.8566  0.1169
  126OSM    C2F13497   3.932   1.399   7.303 -0.7184 -1.0379  0.1016
  126OSM    H2F13498   3.920   1.506   7.329 -0.3056 -0.7554 -0.8265
  126OSM    H2G13499   4.037   1.367   7.319 -0.6221 -0.2075  1.2209
  126OSM    C3F13500   3.867   1.324   7.418  0.7216  0.4052  0.2659
  126OSM    H3F13501   3.879   1.215   7.405 -3.0189 -0.0742 -0.2540
  126OSM    H3G13502   3.760   1.353   7.410  0.3793 -1.2959 -2.8725
  126OSM    C4F13503   3.902   1.365   7.562  0.3872 -0.1736 -0.5352
  126OSM    H4F13504   3.887   1.475   7.567  0.2213 -0.2439  2.8668
  126OSM    H4G13505   4.008   1.340   7.584 -0.1950 -2.9746 -0.6112
  126OSM    C5F13506   3.801   1.309   7.662 -0.2445  0.0503 -0.5805
  126OSM    H5F13507   3.815   1.199   7.669  0.5807  0.2015  0.4733
  126OSM    H5G13508   3.695   1.334   7.642 -0.9138 -2.7495 -0.9220
  126OSM    C6F13509   3.815   1.356   7.806  0.3375 -0.6505 -0.0102
  126OSM    H6F13510   3.770   1.457   7.803  1.3933 -0.1740 -0.4096
  126OSM    H6G13511   3.922   1.375   7.831 -0.1193  0.8238  0.8903
  126OSM    C7F13512   3.736   1.272   7.912 -0.8826 -0.5584 -0.0190
  126OSM    H7F13513   3.786   1.174   7.923 -1.8311 -0.9501  1.0408
  126OSM    H7G13514   3.632   1.252   7.878 -1.3112 -0.0499  0.9459
  126OSM    C8F13515   3.748   1.331   8.058 -0.5859  0.3907  0.7594
  126OSM    H8F13516   3.849   1.367   8.088 -0.9561 -0.2696  2.9673
  126OSM    H8G13517   3.736   1.252   8.135  1.3313  0.4275  1.1576
  126OSM    C9F13518   3.644   1.445   8.063  0.1847  0.0913 -0.1180
  126OSM    H9F13519   3.682   1.530   8.004  1.6669 -0.1375  0.4726
  126OSM   C10F13520   3.522   1.451   8.117 -0.2529  0.0389  0.1230
  126OSM   H10F13521   3.461   1.537   8.088  0.1813 -0.4819 -2.5212
  126OSM   C11F13522   3.458   1.341   8.200 -0.4904  0.5269  0.6559
  126OSM   H11F13523   3.522   1.250   8.191  0.8462  1.4217  0.9268
  126OSM   H11G13524   3.364   1.315   8.146  0.7056 -0.4875 -1.0617
  126OSM   C12F13525   3.432   1.364   8.350  0.3938  0.1360 -0.0574
  126OSM   H12F13526   3.368   1.293   8.407  2.4356 -1.7008  0.0868
  126OSM   H12G13527   3.362   1.450   8.348 -2.4743 -2.0618 -0.1961
  126OSM   C13F13528   3.557   1.403   8.431 -0.3158  0.1047 -0.3468
  126OSM   H13F13529   3.591   1.498   8.384  2.0879 -0.7424 -0.4996
  126OSM   H13G13530   3.641   1.331   8.418  0.0924  0.4504  0.3269
  126OSM   C14F13531   3.531   1.427   8.580 -0.5013  0.0039  0.5732
  126OSM   H14F13532   3.501   1.328   8.619 -0.5015 -0.5688 -0.8432
  126OSM   H14G13533   3.449   1.500   8.598  0.2713  0.8467  0.7677
  126OSM   C15F13534   3.661   1.476   8.650  0.3160  0.0167 -0.1812
  126OSM   H15F13535   3.667   1.580   8.612  1.8964  0.7297  1.8325
  126OSM   H15G13536   3.743   1.429   8.591 -0.4812 -0.4242 -0.9720
  126OSM   C16F13537   3.654   1.455   8.800  0.6134  0.5171  0.7235
  126OSM   H16F13538   3.557   1.487   8.843  0.1538 -0.8503  0.7306
  126OSM   H16G13539   3.738   1.519   8.837  0.3849  0.9710  0.4674
  126OSM   C17F13540   3.694   1.316   8.840  0.0337  0.7982  0.1364
  126OSM   H17F13541   3.767   1.274   8.767  0.5818  1.9928 -0.0170
  126OSM   H17G13542   3.607   1.247   8.837 -0.0363  0.9120 -2.1242
  126OSM   C18F13543   3.762   1.306   8.978 -0.1743 -0.0065  0.0368
  126OSM   H18F13544   3.857   1.363   8.970  0.1924 -0.2109  2.2583
  126OSM   H18G13545   3.778   1.200   9.010 -0.4076 -0.4773 -1.3553
  126OSM   H18H13546   3.699   1.354   9.056  2.9881  0.5760  2.4913
  127OSM      N13547   3.914   5.403   5.835  0.0802 -0.1804  0.2319
  127OSM    C1513548   3.882   5.254   5.832  0.0368  0.0027  0.0058
  127OSM   H15A13549   3.978   5.207   5.811  0.3291 -0.0040  1.2467
  127OSM   H15B13550   3.809   5.234   5.756  3.1808 -0.6383 -3.1458
  127OSM   H15C13551   3.854   5.226   5.932  0.1476 -1.3915 -0.3266
  127OSM    C1413552   4.039   5.431   5.911  0.0428  0.5267  0.3767
  127OSM   H14A13553   4.017   5.415   6.016 -2.0747 -1.3815 -0.2741
  127OSM   H14B13554   4.072   5.531   5.891 -0.4441  0.6089 -0.0369
  127OSM   H14C13555   4.127   5.376   5.881 -0.2900  0.5427 -0.6608
  127OSM    C1313556   3.936   5.443   5.686  0.1372  0.1290  0.2254
  127OSM   H13A13557   3.959   5.548   5.677  1.2084 -0.0010  1.1478
  127OSM   H13B13558   3.849   5.417   5.629  0.3790  1.1820 -0.6411
  127OSM   H13C13559   4.020   5.395   5.638  2.7845  3.1771  1.4324
  127OSM    C1213560   3.805   5.486   5.895 -1.4591 -0.7252  0.4595
  127OSM   H12A13561   3.720   5.482   5.829 -1.1341  1.4111 -0.1422
  127OSM   H12B13562   3.842   5.587   5.904  3.4627 -2.2745  0.9115
  127OSM    C1113563   3.760   5.451   6.033 -0.0133 -0.3809  0.3023
  127OSM   H11A13564   3.717   5.349   6.037  0.0112 -0.4453 -0.8281
  127OSM   H11B13565   3.669   5.512   6.050 -0.0451  1.0100 -3.8663
  127OSM      P13566   3.885   5.605   6.192 -0.2210 -0.2724 -0.4551
  127OSM    O1313567   3.995   5.600   6.291 -0.3754  0.2599 -0.3503
  127OSM    O1413568   3.901   5.699   6.078  0.5569 -0.3963  0.5145
  127OSM    O1113569   3.738   5.635   6.257 -0.7840  0.6392  0.2310
  127OSM    O1213570   3.861   5.463   6.132 -0.2267  0.1725  0.8854
  127OSM    C1S13571   3.673   5.550   6.349  0.7942  0.3931  0.9220
  127OSM    H1S13572   3.677   5.446   6.310  1.2971  0.1301  1.6639
  127OSM    H1T13573   3.568   5.586   6.345  0.9766  0.8736 -1.1913
  127OSM     NF13574   3.677   5.454   6.581 -0.4062  0.2191  0.2455
  127OSM    HNF13575   3.617   5.490   6.652 -0.5450  3.1738 -1.2310
  127OSM    C2S13576   3.730   5.558   6.496  0.3292 -0.3465  0.4912
  127OSM    H2S13577   3.839   5.543   6.481  0.1247 -0.0060 -1.7483
  127OSM    C3S13578   3.707   5.700   6.556  0.2953  0.4030  0.0489
  127OSM    H3S13579   3.599   5.706   6.579  0.8491  1.5671  2.8150
  127OSM     O313580   3.739   5.804   6.466  0.8330  0.0191  0.0746
  127OSM    HO313581   3.746   5.761   6.380 -0.7733 -1.6420  0.7286
  127OSM    C4S13582   3.789   5.706   6.680  0.6996  0.1003  0.3189
  127OSM    H4S13583   3.731   5.670   6.767 -2.2430  0.2415 -1.4481
  127OSM    C5S13584   3.917   5.745   6.711  0.0720  0.0132 -0.4054
  127OSM    H5S13585   3.978   5.778   6.625  0.0484  0.5298 -0.2276
  127OSM    C6S13586   3.977   5.733   6.851 -0.2639 -0.1217 -0.7338
  127OSM    H6S13587   4.006   5.831   6.895 -0.1638 -0.5954  0.2743
  127OSM    H6T13588   4.073   5.678   6.850  0.4188  1.0373 -1.4028
  127OSM    C7S13589   3.905   5.648   6.967 -0.6844 -0.9097 -0.1693
  127OSM    H7S13590   3.870   5.549   6.930  0.9503 -1.4667 -0.3261
  127OSM    H7T13591   3.821   5.699   7.019 -0.0780  1.0715 -1.0395
  127OSM    C8S13592   4.010   5.631   7.081  0.0631 -0.2047 -0.6274
  127OSM    H8S13593   4.061   5.729   7.097 -0.3460 -0.4376  2.9343
  127OSM    H8T13594   4.081   5.547   7.064 -1.5331 -2.0868  1.4255
  127OSM    C9S13595   3.942   5.583   7.211  0.5533 -0.5814 -0.4995
  127OSM    H9S13596   3.872   5.500   7.184  0.3795 -0.4538 -0.4454
  127OSM    H9T13597   3.885   5.667   7.257  2.1679  0.5480 -0.4736
  127OSM   C10S13598   4.041   5.532   7.316 -0.4343  0.9095 -1.1070
  127OSM   H10S13599   4.102   5.619   7.349 -0.3558  0.5399 -0.2424
  127OSM   H10T13600   4.112   5.459   7.271 -2.0707 -2.7635  1.7438
  127OSM   C11S13601   3.954   5.465   7.424 -0.2003  0.3304 -0.4090
  127OSM   H11S13602   3.917   5.368   7.384  3.8880 -1.6411  0.0849
  127OSM   H11T13603   3.863   5.522   7.454 -1.2971 -1.4113 -0.2465
  127OSM   C12S13604   4.029   5.435   7.558  0.0295  0.7879  0.2097
  127OSM   H12S13605   4.050   5.535   7.601  0.6145  0.1298  1.5096
  127OSM   H12T13606   4.131   5.404   7.529  0.0642  0.1701  0.9671
  127OSM   C13S13607   3.978   5.325   7.661  0.3474 -0.2183 -0.4167
  127OSM   H13S13608   3.989   5.224   7.615  2.7474 -0.6244  0.9000
  127OSM   H13T13609   3.868   5.345   7.662 -0.3832 -3.5378 -1.1003
  127OSM   C14S13610   4.036   5.349   7.807 -0.2473 -0.2784 -0.9517
  127OSM   H14S13611   3.998   5.442   7.855 -0.2754 -0.5104 -0.5170
  127OSM   H14T13612   4.146   5.364   7.802 -0.2154 -0.5758 -1.1730
  127OSM   C15S13613   4.009   5.223   7.899  0.3901 -0.1945 -0.2429
  127OSM   H15S13614   4.052   5.254   7.996  1.0354  3.5397 -1.5512
  127OSM   H15T13615   4.056   5.126   7.872 -0.2921 -0.5973 -0.0310
  127OSM   C16S13616   3.852   5.196   7.925  0.3199 -0.4228 -0.2990
  127OSM   H16S13617   3.816   5.115   7.858 -0.5007 -0.4427  0.1591
  127OSM   H16T13618   3.800   5.291   7.902  0.4220  0.0495  1.2946
  127OSM   C17S13619   3.817   5.152   8.064  0.4700  0.0469  0.3644
  127OSM   H17S13620   3.848   5.241   8.122  1.8446  0.9247 -1.5981
  127OSM   H17T13621   3.885   5.070   8.097  1.4399  1.4669  2.0579
  127OSM   C18S13622   3.674   5.122   8.097 -0.7949 -0.1818  0.5993
  127OSM   H18S13623   3.610   5.210   8.077  0.7988  1.4826  2.4165
  127OSM   H18T13624   3.663   5.094   8.204 -2.3479  0.1379  0.5385
  127OSM   H18U13625   3.641   5.039   8.030  0.3893  0.3339 -0.6620
  127OSM    C1F13626   3.685   5.323   6.570  0.0130 -0.3436 -0.1729
  127OSM     OF13627   3.767   5.271   6.505 -0.3380 -0.0538  0.0788
  127OSM    C2F13628   3.592   5.237   6.644 -0.1296  0.3862  0.4668
  127OSM    H2F13629   3.586   5.144   6.583  1.3463  0.8465 -0.4260
  127OSM    H2G13630   3.497   5.295   6.648 -0.1521  0.4023 -0.2101
  127OSM    C3F13631   3.644   5.195   6.786  0.4460  0.8422 -0.3256
  127OSM    H3F13632   3.646   5.286   6.849  1.6216  0.3961  0.3202
  127OSM    H3G13633   3.744   5.147   6.773  0.5367  1.0667 -0.4730
  127OSM    C4F13634   3.560   5.087   6.853  0.0488  0.2227  0.0525
  127OSM    H4F13635   3.616   5.053   6.942  1.2557  3.1591  0.5396
  127OSM    H4G13636   3.560   4.996   6.789  2.6569  0.0947  0.1260
  127OSM    C5F13637   3.423   5.139   6.907  0.1350 -0.1417  0.4919
  127OSM    H5F13638   3.361   5.156   6.816 -0.5561  3.2550  1.4630
  127OSM    H5G13639   3.438   5.228   6.973 -2.7939  0.8915 -0.0865
  127OSM    C6F13640   3.364   5.038   7.004  0.1288  0.7842  0.6815
  127OSM    H6F13641   3.431   5.009   7.087  0.3622 -1.1040 -0.1179
  127OSM    H6G13642   3.345   4.939   6.957  0.2997  1.2779 -0.4539
  127OSM    C7F13643   3.230   5.100   7.058 -0.4776 -0.4941 -0.1383
  127OSM    H7F13644   3.173   5.113   6.964 -0.3999 -0.5823 -0.1972
  127OSM    H7G13645   3.250   5.201   7.099  2.4589 -0.0867 -2.2875
  127OSM    C8F13646   3.159   5.024   7.166  0.6676  0.5828 -0.0086
  127OSM    H8F13647   3.231   5.005   7.248 -0.6429  0.3399  1.1033
  127OSM    H8G13648   3.148   4.927   7.112 -0.3240 -0.1787  1.5127
  127OSM    C9F13649   3.036   5.089   7.226 -0.1630  0.1049 -0.4425
  127OSM    H9F13650   2.956   5.117   7.157  0.3271  1.2741 -0.5643
  127OSM   C10F13651   3.024   5.107   7.358  0.7070 -0.1168 -0.1645
  127OSM   H10F13652   2.942   5.173   7.389  1.4591  0.6710  0.1929
  127OSM   C11F13653   3.107   5.071   7.474  0.4291  0.6607 -0.4601
  127OSM   H11F13654   3.210   5.033   7.458  0.1010 -2.0723  2.8288
  127OSM   H11G13655   3.051   4.992   7.529 -1.7463  1.8886 -0.7984
  127OSM   C12F13656   3.094   5.185   7.574 -0.0425 -0.7838  0.0258
  127OSM   H12F13657   2.989   5.217   7.588  1.1848  2.9680  1.8815
  127OSM   H12G13658   3.147   5.281   7.557  0.4486 -0.9293  0.6849
  127OSM   C13F13659   3.151   5.123   7.709 -0.2266 -0.4091  0.8378
  127OSM   H13F13660   3.258   5.097   7.696  0.2610  0.9012  1.9318
  127OSM   H13G13661   3.094   5.036   7.750  1.4378 -0.8053  2.4683
  127OSM   C14F13662   3.164   5.233   7.818 -0.6117 -0.0734 -0.7931
  127OSM   H14F13663   3.057   5.251   7.841 -0.2689  0.3287  0.5436
  127OSM   H14G13664   3.205   5.323   7.767 -0.4163  0.5285  0.3934
  127OSM   C15F13665   3.239   5.192   7.950 -0.1585  0.9058  0.2737
  127OSM   H15F13666   3.343   5.158   7.930 -0.3103  1.3405 -1.4143
  127OSM   H15G13667   3.192   5.099   7.989  1.0269  0.3613  0.4740
  127OSM   C16F13668   3.237   5.301   8.063 -0.1342 -0.3244  0.0967
  127OSM   H16F13669   3.128   5.317   8.080 -0.5060 -3.0109  0.6527
  127OSM   H16G13670   3.279   5.396   8.025  1.3514 -0.9860  0.0020
  127OSM   C17F13671   3.290   5.259   8.201 -0.0337 -0.0174 -0.7674
  127OSM   H17F13672   3.396   5.225   8.196 -0.2780 -0.9137 -0.0383
  127OSM   H17G13673   3.237   5.172   8.244 -0.7245  0.8036  0.0853
  127OSM   C18F13674   3.286   5.380   8.298 -0.3893 -0.9323  0.0041
  127OSM   H18F13675   3.321   5.360   8.401  0.8552  1.5492  0.1535
  127OSM   H18G13676   3.181   5.412   8.315 -0.7302 -1.9684 -0.0577
  127OSM   H18H13677   3.350   5.461   8.256 -1.4000  0.0176  0.2726
  128OSM      N13678   0.053   2.335   5.939 -0.6085 -0.7024  0.3208
  128OSM    C1513679  -0.094   2.312   5.919  0.3440  0.4863  0.7523
  128OSM   H15A13680  -0.151   2.403   5.929 -0.3023  0.0108  1.5176
  128OSM   H15B13681  -0.134   2.244   5.993 -0.7525 -1.9627 -1.8977
  128OSM   H15C13682  -0.119   2.263   5.826 -1.1813  4.2018 -1.0196
  128OSM    C1413683   0.132   2.207   5.951 -0.0134  0.0590 -0.4635
  128OSM   H14A13684   0.093   2.152   6.036  1.2766 -0.4746 -0.1941
  128OSM   H14B13685   0.234   2.227   5.982  0.4442 -1.5878 -0.8163
  128OSM   H14C13686   0.127   2.157   5.856  0.0446  2.8212 -2.0176
  128OSM    C1313687   0.115   2.416   5.829  0.2688 -0.0884 -0.1410
  128OSM   H13A13688   0.127   2.365   5.735  0.1553 -2.9710  1.2785
  128OSM   H13B13689   0.218   2.436   5.858 -0.3524  3.2499  0.2116
  128OSM   H13C13690   0.054   2.505   5.822 -0.1218 -0.2527  0.9925
  128OSM    C1213691   0.069   2.416   6.073 -0.2422  0.3740  0.7579
  128OSM   H12A13692   0.006   2.504   6.064 -2.0824 -0.9751 -0.4255
  128OSM   H12B13693   0.169   2.455   6.078  0.9862 -2.1861 -1.5060
  128OSM    C1113694   0.033   2.343   6.204 -0.1966  0.2080  0.3442
  128OSM   H11A13695  -0.066   2.293   6.194  0.0944  0.0378 -3.4355
  128OSM   H11B13696   0.022   2.410   6.291 -0.0451 -0.9742  1.2905
  128OSM      P13697   0.275   2.259   6.262 -0.5710 -0.1749 -0.0202
  128OSM    O1313698   0.359   2.138   6.230 -0.2364 -0.1004 -0.3256
  128OSM    O1413699   0.317   2.389   6.192 -0.1115 -0.3085 -0.4970
  128OSM    O1113700   0.274   2.284   6.414  0.1922  0.1798 -0.2240
  128OSM    O1213701   0.122   2.235   6.236  0.2401 -0.3210 -0.0111
  128OSM    C1S13702   0.197   2.227   6.521 -0.8198 -0.2435  0.9933
  128OSM    H1S13703   0.170   2.122   6.495  0.0108 -0.0677 -0.7016
  128OSM    H1T13704   0.107   2.289   6.543 -0.5159  1.4281 -1.9810
  128OSM     NF13705   0.225   2.158   6.750  0.1382  0.1052  0.5393
  128OSM    HNF13706   0.175   2.207   6.821  0.1623 -1.7905  1.9303
  128OSM    C2S13707   0.285   2.238   6.647 -0.2356  0.3543 -0.3772
  128OSM    H2S13708   0.386   2.193   6.634 -1.0659 -1.1699 -1.8508
  128OSM    C3S13709   0.307   2.388   6.693  0.1393 -0.1278  0.0702
  128OSM    H3S13710   0.213   2.427   6.737  0.0912  0.3100 -0.4071
  128OSM     O313711   0.343   2.472   6.581  0.0199 -0.0640 -0.0985
  128OSM    HO313712   0.327   2.413   6.507 -0.1678 -0.2490  0.0873
  128OSM    C4S13713   0.411   2.400   6.802  0.2706 -0.3158 -0.2861
  128OSM    H4S13714   0.369   2.377   6.902 -0.5448  3.2413  0.3272
  128OSM    C5S13715   0.540   2.434   6.795  0.5500 -0.3587  0.1630
  128OSM    H5S13716   0.583   2.458   6.696  2.2417  0.1806  0.9825
  128OSM    C6S13717   0.631   2.448   6.912  0.5993  0.8257 -0.0667
  128OSM    H6S13718   0.702   2.530   6.889  2.6238 -1.0231 -0.7165
  128OSM    H6T13719   0.685   2.351   6.919  0.1984  0.7043  1.9083
  128OSM    C7S13720   0.563   2.487   7.046 -0.0782 -0.2556  0.0456
  128OSM    H7S13721   0.485   2.412   7.071 -0.0699  0.1404  1.3648
  128OSM    H7T13722   0.510   2.585   7.034 -0.2529 -0.1376  1.5594
  128OSM    C8S13723   0.648   2.506   7.170  0.4266 -0.2044 -0.2512
  128OSM    H8S13724   0.736   2.571   7.153  0.9451 -0.6883  0.5244
  128OSM    H8T13725   0.700   2.408   7.182  2.1605  0.5815 -1.0579
  128OSM    C9S13726   0.567   2.538   7.298 -1.0576  0.5711  0.3923
  128OSM    H9S13727   0.470   2.484   7.313 -2.1845  1.9421 -1.5287
  128OSM    H9T13728   0.556   2.649   7.296 -0.0038  0.7235  1.5160
  128OSM   C10S13729   0.652   2.505   7.427 -0.5794  0.0312  0.2596
  128OSM   H10S13730   0.747   2.562   7.422  0.4474 -1.5161  1.2294
  128OSM   H10T13731   0.682   2.398   7.434 -0.8882  0.0568  2.8227
  128OSM   C11S13732   0.576   2.540   7.558 -0.6218  0.2088 -0.6728
  128OSM   H11S13733   0.476   2.492   7.568 -0.4220 -0.1360 -0.2679
  128OSM   H11T13734   0.557   2.649   7.555  0.1961  0.3625 -0.4366
  128OSM   C12S13735   0.662   2.524   7.689 -0.1219  1.1271 -0.4116
  128OSM   H12S13736   0.757   2.579   7.672  0.8764 -0.1678  0.7572
  128OSM   H12T13737   0.687   2.415   7.695  0.2797  1.2147 -0.4572
  128OSM   C13S13738   0.580   2.566   7.808 -0.0403 -0.6168 -0.0554
  128OSM   H13S13739   0.478   2.537   7.775 -1.0792  2.6361 -0.0440
  128OSM   H13T13740   0.574   2.676   7.818  1.2181 -0.5747  0.3777
  128OSM   C14S13741   0.629   2.513   7.944 -0.1707 -0.3716 -0.7845
  128OSM   H14S13742   0.736   2.534   7.966 -0.2958 -0.5712  0.0624
  128OSM   H14T13743   0.625   2.403   7.932  2.2466 -0.4804 -0.9555
  128OSM   C15S13744   0.527   2.558   8.049 -0.5324  0.1547 -0.5169
  128OSM   H15S13745   0.429   2.505   8.045 -0.4720 -0.0851  0.7718
  128OSM   H15T13746   0.516   2.665   8.022  0.0421 -0.0096 -1.4680
  128OSM   C16S13747   0.575   2.545   8.197  0.1157  0.1582  0.3192
  128OSM   H16S13748   0.656   2.620   8.210  1.4816 -0.8276 -1.8746
  128OSM   H16T13749   0.623   2.446   8.213 -1.1334 -0.4172  0.5680
  128OSM   C17S13750   0.459   2.558   8.294  0.4934  0.1070  0.2649
  128OSM   H17S13751   0.395   2.470   8.274  0.5019  0.2710 -0.5005
  128OSM   H17T13752   0.394   2.643   8.265  0.3157 -0.0435  0.2198
  128OSM   C18S13753   0.500   2.552   8.441  0.2895 -0.0403  0.0587
  128OSM   H18S13754   0.434   2.483   8.499  1.7151  1.3939  3.6987
  128OSM   H18T13755   0.487   2.652   8.489 -0.3027 -0.5866  1.0767
  128OSM   H18U13756   0.606   2.521   8.449  0.5841  0.7219 -0.8182
  128OSM    C1F13757   0.222   2.025   6.741 -0.1121  0.0573 -0.5487
  128OSM     OF13758   0.278   1.966   6.651  0.0629  0.2871 -0.0271
  128OSM    C2F13759   0.139   1.955   6.844  0.3335  0.2657  0.4040
  128OSM    H2F13760   0.032   1.971   6.816  0.2680 -1.9058 -0.8080
  128OSM    H2G13761   0.149   1.999   6.946 -0.9031 -0.3893  0.8324
  128OSM    C3F13762   0.172   1.800   6.852 -0.0221 -0.4031  0.6656
  128OSM    H3F13763   0.282   1.784   6.852  0.0101 -0.2302 -0.6459
  128OSM    H3G13764   0.136   1.763   6.754  0.6977  2.7496 -0.9185
  128OSM    C4F13765   0.126   1.729   6.980  0.8570 -0.4248  0.6721
  128OSM    H4F13766   0.132   1.619   6.964 -1.7528 -0.2545 -2.6632
  128OSM    H4G13767   0.016   1.747   6.982  0.7295 -0.9352 -0.4975
  128OSM    C5F13768   0.188   1.776   7.104 -0.4735  0.2002 -0.4202
  128OSM    H5F13769   0.179   1.886   7.111  1.3007  0.3552 -0.0365
  128OSM    H5G13770   0.296   1.753   7.116 -0.9422 -1.0505  1.9284
  128OSM    C6F13771   0.112   1.719   7.227 -0.3087 -0.4286 -0.6753
  128OSM    H6F13772   0.049   1.631   7.203 -0.3000 -0.8520  0.7904
  128OSM    H6G13773   0.043   1.799   7.264 -0.8045 -0.5276 -1.3498
  128OSM    C7F13774   0.218   1.694   7.336 -0.4224 -0.3301  1.0817
  128OSM    H7F13775   0.270   1.786   7.371  0.3191 -0.0614 -0.6309
  128OSM    H7G13776   0.305   1.633   7.303  0.3538  0.0089  2.3900
  128OSM    C8F13777   0.162   1.621   7.459  1.0059 -0.3608 -0.5630
  128OSM    H8F13778   0.242   1.561   7.508  1.7485  0.6175 -0.5487
  128OSM    H8G13779   0.105   1.534   7.420  0.7455 -0.3254 -0.2586
  128OSM    C9F13780   0.091   1.718   7.550  0.3114 -0.2682  0.2729
  128OSM    H9F13781   0.001   1.764   7.507  1.6264  0.9361 -1.2772
  128OSM   C10F13782   0.133   1.770   7.667 -0.2108  0.8494 -0.8048
  128OSM   H10F13783   0.070   1.842   7.722 -2.0769 -0.4815 -1.1254
  128OSM   C11F13784   0.256   1.722   7.745  0.0525 -1.1894 -0.0763
  128OSM   H11F13785   0.327   1.806   7.730  0.1041 -1.7056 -3.2856
  128OSM   H11G13786   0.300   1.631   7.700 -0.7118 -1.0200 -1.2019
  128OSM   C12F13787   0.233   1.691   7.891  0.7604  0.6526 -0.3190
  128OSM   H12F13788   0.178   1.774   7.941 -1.0737  1.3997 -3.3146
  128OSM   H12G13789   0.330   1.688   7.945  0.8805 -2.7098 -0.5266
  128OSM   C13F13790   0.167   1.559   7.927 -0.2896 -0.0783 -0.5157
  128OSM   H13F13791   0.247   1.483   7.915  1.2586  1.0962  1.7466
  128OSM   H13G13792   0.077   1.549   7.862 -0.6410  1.4188 -0.2839
  128OSM   C14F13793   0.139   1.551   8.079  0.0990 -0.8092  0.6296
  128OSM   H14F13794   0.063   1.472   8.095  0.2890 -0.5354  3.4151
  128OSM   H14G13795   0.101   1.649   8.113 -4.0369 -2.0604  0.1149
  128OSM   C15F13796   0.257   1.519   8.172 -0.7358  0.0864 -0.1324
  128OSM   H15F13797   0.323   1.608   8.164 -0.5468 -0.0927 -0.5892
  128OSM   H15G13798   0.313   1.433   8.128  1.4354  0.7974  1.0968
  128OSM   C16F13799   0.219   1.496   8.322  0.0956 -0.3325 -0.0457
  128OSM   H16F13800   0.287   1.420   8.368  1.1898 -0.2787 -1.5111
  128OSM   H16G13801   0.112   1.466   8.328 -0.2180  0.4711 -1.2770
  128OSM   C17F13802   0.230   1.621   8.412  0.0596  0.1944 -0.1872
  128OSM   H17F13803   0.337   1.648   8.427 -0.2425  1.4789 -0.2952
  128OSM   H17G13804   0.198   1.598   8.516  0.7374  2.1990  0.5054
  128OSM   C18F13805   0.161   1.751   8.380 -0.1121 -0.2043  0.2374
  128OSM   H18F13806   0.206   1.797   8.289 -1.4939  0.6682 -0.0265
  128OSM   H18G13807   0.178   1.828   8.459  2.2908 -2.1182  1.7506
  128OSM   H18H13808   0.052   1.735   8.370 -0.0674 -0.1754 -0.3190
  129OSM      N13809   4.615   5.463   6.406 -0.6844 -0.1594  0.4535
  129OSM    C1513810   4.709   5.356   6.372  0.0136 -0.1559 -0.0019
  129OSM   H15A13811   4.811   5.389   6.386  1.1751 -3.7251  0.8289
  129OSM   H15B13812   4.697   5.351   6.265 -1.5031 -0.7105  0.1714
  129OSM   H15C13813   4.688   5.258   6.412 -0.8562  0.0624  0.0939
  129OSM    C1413814   4.644   5.514   6.545 -0.4114 -0.7732 -0.7220
  129OSM   H14A13815   4.747   5.547   6.538 -0.6018 -0.1950 -0.8039
  129OSM   H14B13816   4.648   5.430   6.613  0.1269  0.4381  0.8004
  129OSM   H14C13817   4.574   5.589   6.577  0.2062 -0.9502  1.1989
  129OSM    C1313818   4.629   5.577   6.313  0.1963  0.6126 -0.1946
  129OSM   H13A13819   4.563   5.657   6.343 -0.9578 -0.8134  1.2245
  129OSM   H13B13820   4.601   5.556   6.211 -1.5656  1.3644  0.0976
  129OSM   H13C13821   4.728   5.621   6.305  0.4929  0.0097  0.0900
  129OSM    C1213822   4.475   5.414   6.410  0.2735  0.0761 -0.2018
  129OSM   H12A13823   4.461   5.381   6.308 -0.2024  0.7329 -0.3605
  129OSM   H12B13824   4.406   5.495   6.429 -1.7591 -2.0040  2.0692
  129OSM    C1113825   4.435   5.312   6.519  0.5189  0.0651 -0.1009
  129OSM   H11A13826   4.325   5.296   6.510  0.4816 -0.7254  1.4218
  129OSM   H11B13827   4.452   5.336   6.626  0.6660 -1.4635  0.2445
  129OSM      P13828   4.454   5.089   6.398  0.2347  0.0280  0.7872
  129OSM    O1313829   4.428   5.161   6.271  0.1960  0.2010  0.3192
  129OSM    O1413830   4.555   4.979   6.386  0.1355  0.3484 -0.4518
  129OSM    O1113831   4.322   5.046   6.469 -0.0159  0.2657 -0.0324
  129OSM    O1213832   4.511   5.192   6.493  0.1393 -0.4489  0.3507
  129OSM    C1S13833   4.330   4.956   6.579  0.1810  0.2969 -0.0017
  129OSM    H1S13834   4.433   4.924   6.604  0.0333 -1.2204 -1.1835
  129OSM    H1T13835   4.257   4.873   6.568  2.8925 -1.9215 -3.2742
  129OSM     NF13836   4.292   4.924   6.823 -0.5399  0.1770 -0.4917
  129OSM    HNF13837   4.222   4.906   6.892  0.1455  1.3842  0.5539
  129OSM    C2S13838   4.278   5.016   6.709  1.0609  0.3560 -0.5647
  129OSM    H2S13839   4.343   5.103   6.736  1.8348  0.9290 -3.8945
  129OSM    C3S13840   4.134   5.060   6.706  0.7486  0.0861  0.0738
  129OSM    H3S13841   4.062   4.976   6.700  0.4131  0.5007 -2.7919
  129OSM     O313842   4.103   5.131   6.582  0.5824 -0.6279  0.7162
  129OSM    HO313843   4.188   5.135   6.537  0.7945  0.3951  1.1722
  129OSM    C4S13844   4.091   5.154   6.820  0.0051  0.6847  0.4556
  129OSM    H4S13845   4.136   5.254   6.819  2.1496 -0.1284  3.1124
  129OSM    C5S13846   4.011   5.117   6.918  0.0558 -0.1733 -0.5844
  129OSM    H5S13847   3.976   5.013   6.930 -0.1338  0.0685  1.2525
  129OSM    C6S13848   3.982   5.210   7.040 -0.3112  0.0006  0.1753
  129OSM    H6S13849   3.908   5.279   6.994  2.3755  2.2710 -1.0440
  129OSM    H6T13850   4.063   5.284   7.054  0.1538 -0.7759  1.8724
  129OSM    C7S13851   3.947   5.148   7.176 -0.5085 -0.0959  1.0724
  129OSM    H7S13852   3.887   5.058   7.152 -0.0339 -0.0966 -0.1781
  129OSM    H7T13853   3.885   5.220   7.234 -1.6563 -0.8029  0.7501
  129OSM    C8S13854   4.062   5.097   7.262 -1.3071  0.0389  0.1062
  129OSM    H8S13855   4.138   5.173   7.291  0.1100 -1.1204 -0.4324
  129OSM    H8T13856   4.115   5.015   7.208  1.8342  1.5589  0.6455
  129OSM    C9S13857   4.012   5.018   7.384  0.3831  0.0087  0.8556
  129OSM    H9S13858   3.938   4.942   7.349  1.6432 -2.0184  2.4092
  129OSM    H9T13859   3.961   5.094   7.447  1.9508  1.7832  0.0753
  129OSM   C10S13860   4.114   4.952   7.465  0.0980  0.2539  0.0811
  129OSM   H10S13861   4.175   5.033   7.511  0.4035  0.2543 -0.3165
  129OSM   H10T13862   4.174   4.881   7.405  1.2869  0.5241  0.9130
  129OSM   C11S13863   4.057   4.877   7.585 -0.2581 -0.4979 -0.5053
  129OSM   H11S13864   3.960   4.832   7.555 -2.1623  1.8182  1.6682
  129OSM   H11T13865   4.018   4.943   7.665 -1.3129 -2.6460  0.8394
  129OSM   C12S13866   4.146   4.773   7.649 -0.4621 -0.4268 -0.7579
  129OSM   H12S13867   4.243   4.820   7.677  0.1195  0.3228 -3.6659
  129OSM   H12T13868   4.170   4.685   7.585  0.6657  0.6914 -1.9559
  129OSM   C13S13869   4.095   4.707   7.776  0.4924 -0.1457  0.3247
  129OSM   H13S13870   3.989   4.675   7.780  1.2042 -2.6403  1.8694
  129OSM   H13T13871   4.106   4.787   7.853  2.2232  0.1496 -0.1990
  129OSM   C14S13872   4.183   4.589   7.808 -1.0165 -0.0470 -0.1221
  129OSM   H14S13873   4.257   4.633   7.878 -0.0468 -3.8715  1.5068
  129OSM   H14T13874   4.241   4.549   7.722  0.2648 -1.9409  1.5315
  129OSM   C15S13875   4.115   4.478   7.892 -0.8437 -0.1191 -0.2867
  129OSM   H15S13876   4.033   4.438   7.829 -1.4249 -1.1385  1.0678
  129OSM   H15T13877   4.046   4.530   7.963 -2.7315 -0.3878 -1.8335
  129OSM   C16S13878   4.199   4.365   7.958  0.1278  0.1700 -0.4783
  129OSM   H16S13879   4.265   4.403   8.039  0.4568  0.7209 -0.9989
  129OSM   H16T13880   4.266   4.328   7.878 -1.8815  1.5602 -2.9418
  129OSM   C17S13881   4.100   4.261   8.014 -0.3422  0.8344 -0.3695
  129OSM   H17S13882   4.149   4.162   8.029 -1.6187 -0.0119 -1.5746
  129OSM   H17T13883   4.023   4.240   7.937 -1.0692 -0.3651  0.6563
  129OSM   C18S13884   4.017   4.294   8.138  0.2718 -0.3685  0.2201
  129OSM   H18S13885   3.953   4.385   8.131  1.3906  0.3273 -1.7249
  129OSM   H18T13886   4.088   4.313   8.221 -0.3421  1.5177  0.3603
  129OSM   H18U13887   3.949   4.209   8.161 -0.0872 -0.0573  0.3276
  129OSM    C1F13888   4.410   4.873   6.854  0.8784  0.4652  0.5514
  129OSM     OF13889   4.506   4.923   6.806  0.4200 -0.6242  0.6548
  129OSM    C2F13890   4.429   4.770   6.968  0.4915  0.2923  0.3757
  129OSM    H2F13891   4.340   4.705   6.954 -2.7665  4.4054  0.1555
  129OSM    H2G13892   4.421   4.822   7.065  2.8391  2.6294 -0.5797
  129OSM    C3F13893   4.563   4.698   6.957  0.2779 -0.3216 -0.1122
  129OSM    H3F13894   4.637   4.780   6.949 -0.5009  0.2882 -1.7860
  129OSM    H3G13895   4.564   4.650   6.856 -2.7601 -0.1361 -0.3216
  129OSM    C4F13896   4.584   4.591   7.067 -0.3803 -0.5731 -0.0738
  129OSM    H4F13897   4.646   4.510   7.023  1.5599  0.4315  0.7424
  129OSM    H4G13898   4.488   4.536   7.084 -0.3758 -0.9240 -1.0767
  129OSM    C5F13899   4.643   4.641   7.203  0.9745  0.8428 -0.6170
  129OSM    H5F13900   4.582   4.729   7.234  2.6033  0.7949  3.3681
  129OSM    H5G13901   4.749   4.669   7.190  1.9833 -0.9630  2.5516
  129OSM    C6F13902   4.640   4.533   7.317  0.7574  0.5154 -0.3802
  129OSM    H6F13903   4.683   4.439   7.278  1.7991 -0.4511  2.8074
  129OSM    H6G13904   4.532   4.522   7.340  0.5933  0.8861 -0.9526
  129OSM    C7F13905   4.710   4.567   7.450  0.6131  0.3283 -0.5875
  129OSM    H7F13906   4.664   4.663   7.484 -1.5477 -0.6175 -0.6607
  129OSM    H7G13907   4.814   4.588   7.419  0.5301  0.3532 -0.8472
  129OSM    C8F13908   4.702   4.445   7.552  0.3938 -0.9541  0.0848
  129OSM    H8F13909   4.789   4.470   7.617  0.5577  1.0592 -0.8352
  129OSM    H8G13910   4.726   4.346   7.507 -0.1136  0.4500 -3.5876
  129OSM    C9F13911   4.569   4.432   7.616 -0.6919 -0.5673  0.4025
  129OSM    H9F13912   4.486   4.404   7.549 -1.4303 -0.5557  1.2956
  129OSM   C10F13913   4.538   4.463   7.740 -0.1597 -0.6018 -0.1625
  129OSM   H10F13914   4.432   4.452   7.768 -0.6605  1.1568 -1.2206
  129OSM   C11F13915   4.628   4.520   7.847  0.5227  0.3835 -0.0397
  129OSM   H11F13916   4.583   4.605   7.903  0.2799 -1.0943  2.1397
  129OSM   H11G13917   4.722   4.554   7.800  0.8917  0.5975  0.8284
  129OSM   C12F13918   4.671   4.417   7.962 -0.8530 -0.1620  0.7236
  129OSM   H12F13919   4.743   4.465   8.032 -2.1545 -0.1163  2.0797
  129OSM   H12G13920   4.724   4.333   7.913 -1.3304 -0.3417  0.5059
  129OSM   C13F13921   4.550   4.365   8.044 -0.7688 -0.4172 -1.2264
  129OSM   H13F13922   4.482   4.304   7.981 -0.7721  0.1086 -1.7410
  129OSM   H13G13923   4.490   4.455   8.069 -1.0864 -0.5263 -1.5930
  129OSM   C14F13924   4.596   4.290   8.171 -0.3382  0.5887  0.5481
  129OSM   H14F13925   4.646   4.349   8.251 -0.7271 -0.8754  1.9285
  129OSM   H14G13926   4.673   4.216   8.141  0.1160  1.2483  0.0702
  129OSM   C15F13927   4.484   4.217   8.242 -0.1343  0.5648  0.6070
  129OSM   H15F13928   4.444   4.138   8.176 -0.1068  0.5572  0.5988
  129OSM   H15G13929   4.394   4.280   8.259 -0.8579 -0.4225  0.4958
  129OSM   C16F13930   4.542   4.153   8.363 -0.5614 -1.2491  0.2714
  129OSM   H16F13931   4.572   4.230   8.438  1.9022 -1.1536 -0.7100
  129OSM   H16G13932   4.637   4.098   8.343  1.3768  1.7536  0.6957
  129OSM   C17F13933   4.440   4.063   8.435 -0.2088 -0.0385 -0.6309
  129OSM   H17F13934   4.492   4.045   8.532  0.4884  3.1573 -0.2681
  129OSM   H17G13935   4.433   3.967   8.381  1.7422  2.0326 -5.0274
  129OSM   C18F13936   4.298   4.127   8.447  0.4427 -0.5717 -0.1515
  129OSM   H18F13937   4.257   4.149   8.346 -1.3281 -0.6603  0.5123
  129OSM   H18G13938   4.298   4.221   8.507  0.8277 -0.5367 -0.2051
  129OSM   H18H13939   4.238   4.041   8.484  1.6691 -1.4112 -0.0674
  130OSM      N13940   1.191   1.038   6.249 -0.8744  0.3748  0.6614
  130OSM    C1513941   1.199   0.897   6.199  0.3074 -0.3673 -0.2739
  130OSM   H15A13942   1.202   0.839   6.290 -0.9307  1.5321  1.0708
  130OSM   H15B13943   1.278   0.884   6.127  0.7180 -1.9394  0.4268
  130OSM   H15C13944   1.109   0.871   6.146 -0.6396 -1.0860  1.6167
  130OSM    C1413945   1.327   1.082   6.308 -0.0967 -0.2205 -0.5293
  130OSM   H14A13946   1.306   1.172   6.364  0.6290 -2.2738  3.4047
  130OSM   H14B13947   1.402   1.100   6.233  0.6005 -0.4663  0.0956
  130OSM   H14C13948   1.365   1.008   6.377  0.1342 -1.4686 -1.9338
  130OSM    C1313949   1.160   1.126   6.136  0.1608  0.3910  0.5884
  130OSM   H13A13950   1.155   1.233   6.150  0.6542  0.4724  0.1861
  130OSM   H13B13951   1.065   1.097   6.095  1.6254 -2.1480 -1.2173
  130OSM   H13C13952   1.230   1.111   6.055  0.6570  0.1150  1.0603
  130OSM    C1213953   1.092   1.032   6.361  0.0286 -0.1583 -0.3965
  130OSM   H12A13954   1.096   1.124   6.417 -0.8068 -0.0443 -0.4991
  130OSM   H12B13955   1.111   0.949   6.426 -1.8992  0.0723  0.5466
  130OSM    C1113956   0.943   1.005   6.322 -0.1789 -0.2183  0.0970
  130OSM   H11A13957   0.882   0.978   6.411 -0.5396  2.0513  0.6081
  130OSM   H11B13958   0.942   0.918   6.253  1.1231  0.6991 -1.1241
  130OSM      P13959   0.840   1.252   6.300  0.2531 -0.4155  0.1600
  130OSM    O1313960   0.918   1.363   6.241 -0.0233  0.5823  0.0055
  130OSM    O1413961   0.693   1.259   6.280  0.1845 -0.5264  0.2836
  130OSM    O1113962   0.873   1.245   6.451 -0.5363  0.1169  0.3406
  130OSM    O1213963   0.890   1.116   6.248 -0.0242 -0.2813  0.7093
  130OSM    C1S13964   0.818   1.334   6.544  0.0997  0.4454 -0.1917
  130OSM    H1S13965   0.709   1.318   6.557  0.1704  0.0837 -0.0222
  130OSM    H1T13966   0.839   1.440   6.522 -0.9363  1.0784  1.6139
  130OSM     NF13967   0.813   1.408   6.784 -0.4248  0.3262 -0.6020
  130OSM    HNF13968   0.862   1.491   6.810 -2.7221  1.3307  0.9089
  130OSM    C2S13969   0.874   1.314   6.692 -0.3917  0.8281 -0.2250
  130OSM    H2S13970   0.845   1.212   6.728 -0.2928  1.3533  1.4488
  130OSM    C3S13971   1.023   1.321   6.700 -0.1558 -0.2479 -0.3375
  130OSM    H3S13972   1.042   1.429   6.681 -0.6410 -0.2131 -0.6353
  130OSM     O313973   1.089   1.241   6.598 -0.3115  0.3091  0.6885
  130OSM    HO313974   1.027   1.245   6.524  1.7029  1.1572 -1.0561
  130OSM    C4S13975   1.073   1.301   6.838 -0.2678  0.3650 -0.2204
  130OSM    H4S13976   1.042   1.375   6.914 -2.2132 -0.1761 -0.4397
  130OSM    C5S13977   1.166   1.206   6.869 -0.1032  0.5057 -1.0684
  130OSM    H5S13978   1.206   1.143   6.789 -2.1897  0.6089 -2.2577
  130OSM    C6S13979   1.229   1.188   7.012  0.3414  0.4335  0.7632
  130OSM    H6S13980   1.337   1.211   7.000  0.1719  0.6556 -0.4169
  130OSM    H6T13981   1.214   1.087   7.055  0.3673  0.1758  0.1706
  130OSM    C7S13982   1.176   1.292   7.121 -0.4489  0.4313  0.4183
  130OSM    H7S13983   1.065   1.289   7.118 -0.4466  0.2644  0.4490
  130OSM    H7T13984   1.219   1.391   7.095  0.6750 -0.6878 -2.4295
  130OSM    C8S13985   1.224   1.241   7.252 -0.2990  0.1207  0.2015
  130OSM    H8S13986   1.334   1.228   7.242 -0.2416  0.2936  0.5827
  130OSM    H8T13987   1.172   1.152   7.292 -1.5792  0.7381 -0.0304
  130OSM    C9S13988   1.184   1.349   7.352 -0.4001 -0.5547  0.1190
  130OSM    H9S13989   1.073   1.355   7.345 -0.4611 -2.5257 -1.7078
  130OSM    H9T13990   1.242   1.443   7.338  1.8573 -1.1714  3.9543
  130OSM   C10S13991   1.227   1.302   7.490  0.4601  0.0921  1.1802
  130OSM   H10S13992   1.336   1.287   7.505  0.7821 -1.0761 -1.6731
  130OSM   H10T13993   1.186   1.200   7.508  0.5812 -0.6281 -2.0424
  130OSM   C11S13994   1.172   1.396   7.600  0.0103 -0.0633  0.5459
  130OSM   H11S13995   1.065   1.421   7.582  0.2409 -0.6621 -2.2180
  130OSM   H11T13996   1.236   1.486   7.598 -0.1706  0.0907  1.4394
  130OSM   C12S13997   1.203   1.342   7.740  0.4791  0.0096  0.4407
  130OSM   H12S13998   1.312   1.347   7.762  0.8047 -1.2321 -0.7398
  130OSM   H12T13999   1.175   1.235   7.730 -1.2418  0.5678 -1.2819
  130OSM   C13S14000   1.129   1.411   7.853  0.2619  0.0573  0.3637
  130OSM   H13S14001   1.018   1.419   7.840  0.2036  1.6548  1.5435
  130OSM   H13T14002   1.154   1.519   7.848 -2.8568  0.8971  0.5673
  130OSM   C14S14003   1.172   1.369   7.995  0.0176  0.4644 -0.3835
  130OSM   H14S14004   1.283   1.376   8.002  0.1776 -1.2099 -0.7984
  130OSM   H14T14005   1.126   1.273   8.026  0.2154  0.7285  0.7763
  130OSM   C15S14006   1.111   1.471   8.098 -0.4381  0.5728  0.0567
  130OSM   H15S14007   1.001   1.475   8.083 -0.8419 -2.9083  1.1492
  130OSM   H15T14008   1.165   1.567   8.082  0.6705 -0.1877 -0.9934
  130OSM   C16S14009   1.141   1.427   8.244  0.4995 -0.2971 -0.1938
  130OSM   H16S14010   1.250   1.411   8.258  0.3165 -1.5425 -0.1049
  130OSM   H16T14011   1.094   1.329   8.267  2.5189 -1.3458 -0.3252
  130OSM   C17S14012   1.091   1.538   8.344  0.1912 -0.2764  0.0400
  130OSM   H17S14013   0.989   1.569   8.313  0.5508 -1.2337 -2.3782
  130OSM   H17T14014   1.164   1.621   8.339  0.0773 -0.1047  1.1170
  130OSM   C18S14015   1.071   1.494   8.495  0.2103  0.2532 -0.1912
  130OSM   H18S14016   1.160   1.434   8.524  0.8286 -0.4481 -3.2786
  130OSM   H18T14017   0.992   1.417   8.507 -1.1283  1.6360  0.2689
  130OSM   H18U14018   1.048   1.582   8.560 -0.1415 -1.7824  2.6550
  130OSM    C1F14019   0.681   1.399   6.829  0.2836 -0.0821  0.6388
  130OSM     OF14020   0.608   1.304   6.803 -0.2022  0.1324  0.2055
  130OSM    C2F14021   0.639   1.520   6.913  0.1514  0.4310 -0.0392
  130OSM    H2F14022   0.544   1.555   6.869  0.0682  0.3502  0.0780
  130OSM    H2G14023   0.716   1.599   6.895  0.7001 -0.6803 -3.3331
  130OSM    C3F14024   0.614   1.487   7.063  0.1733 -0.1936  0.0076
  130OSM    H3F14025   0.550   1.396   7.060 -0.9454  0.5047  1.3018
  130OSM    H3G14026   0.561   1.564   7.124 -0.2584 -1.3269  1.1034
  130OSM    C4F14027   0.750   1.464   7.136  0.3412  0.5047  0.0706
  130OSM    H4F14028   0.791   1.567   7.143 -0.3747  0.9975 -2.2298
  130OSM    H4G14029   0.814   1.399   7.073 -0.5062  1.6316 -2.0443
  130OSM    C5F14030   0.743   1.398   7.274  0.1007 -0.0470 -0.3530
  130OSM    H5F14031   0.839   1.350   7.305 -0.0347 -0.0494  0.0739
  130OSM    H5G14032   0.670   1.318   7.253 -2.7326  2.4610 -0.7576
  130OSM    C6F14033   0.693   1.495   7.385 -0.0835  0.3868  0.1854
  130OSM    H6F14034   0.605   1.551   7.347 -0.7303 -0.3221  0.6192
  130OSM    H6G14035   0.774   1.559   7.427 -1.9569  2.4105  0.8779
  130OSM    C7F14036   0.647   1.404   7.497  0.2465  0.1201 -0.1659
  130OSM    H7F14037   0.739   1.351   7.527  0.5308 -0.9885 -2.7519
  130OSM    H7G14038   0.573   1.331   7.457  1.8862 -0.3848 -2.4472
  130OSM    C8F14039   0.559   1.483   7.587  0.5449 -0.2906 -0.1087
  130OSM    H8F14040   0.476   1.522   7.523  0.2630  1.9774  1.5275
  130OSM    H8G14041   0.614   1.578   7.603  1.4147 -0.7745 -0.1608
  130OSM    C9F14042   0.511   1.418   7.718  0.4962 -0.5052  0.6814
  130OSM    H9F14043   0.421   1.355   7.718 -0.5857  0.8884  2.9218
  130OSM   C10F14044   0.574   1.441   7.834 -0.4367  0.2429  0.3561
  130OSM   H10F14045   0.523   1.408   7.925 -3.5840 -0.7559 -1.6044
  130OSM   C11F14046   0.691   1.528   7.847 -0.1053  0.4540 -0.3461
  130OSM   H11F14047   0.680   1.628   7.801  1.0551  1.8339  2.1394
  130OSM   H11G14048   0.773   1.470   7.800 -0.9077  1.1132 -2.6912
  130OSM   C12F14049   0.740   1.565   7.994 -0.0507  0.1604 -0.2342
  130OSM   H12F14050   0.841   1.610   7.980  0.5291 -1.1173 -0.3675
  130OSM   H12G14051   0.759   1.466   8.042 -0.1150  0.4764  0.4535
  130OSM   C13F14052   0.636   1.661   8.052 -0.1692 -0.6190  0.0626
  130OSM   H13F14053   0.538   1.613   8.070  0.0645 -0.4044  2.1208
  130OSM   H13G14054   0.618   1.743   7.979  0.4789  0.1385  0.7359
  130OSM   C14F14055   0.663   1.722   8.187  1.0029 -0.1062 -0.3522
  130OSM   H14F14056   0.576   1.789   8.204  0.6060 -1.0481  1.6687
  130OSM   H14G14057   0.747   1.794   8.198 -0.9629  2.3812 -0.7874
  130OSM   C15F14058   0.665   1.622   8.305 -0.1844  0.1835 -0.1083
  130OSM   H15F14059   0.747   1.552   8.278 -0.7731 -0.6105  0.1346
  130OSM   H15G14060   0.567   1.572   8.290  0.1628 -0.0895 -1.5580
  130OSM   C16F14061   0.658   1.670   8.451 -0.2055 -0.7819 -0.0221
  130OSM   H16F14062   0.555   1.710   8.462 -0.4063 -1.6990  1.8389
  130OSM   H16G14063   0.728   1.754   8.471 -0.2124 -0.8219  0.1680
  130OSM   C17F14064   0.677   1.548   8.546  0.1241 -0.3044 -0.1084
  130OSM   H17F14065   0.641   1.580   8.646  0.8039  2.2405 -0.6064
  130OSM   H17G14066   0.785   1.525   8.558  0.8546  3.3469  1.8445
  130OSM   C18F14067   0.592   1.432   8.508  0.1802  0.8595  0.1929
  130OSM   H18F14068   0.603   1.379   8.411  1.9536 -0.5505  1.1014
  130OSM   H18G14069   0.486   1.462   8.510  0.0450  0.6318 -1.8719
  130OSM   H18H14070   0.611   1.349   8.580  0.3403  0.2538 -0.5406
  131OSM      N14071   5.671   4.333   5.669  0.3557  0.0017  0.0361
  131OSM    C1514072   5.624   4.194   5.628  0.2969  0.7202 -0.7868
  131OSM   H15A14073   5.696   4.162   5.555  0.6605  0.4840 -0.3236
  131OSM   H15B14074   5.526   4.199   5.582  0.0597  1.4276 -0.2233
  131OSM   H15C14075   5.618   4.126   5.711 -1.3346  1.3113 -0.3744
  131OSM    C1414076   5.662   4.432   5.558  0.5085 -0.5886 -0.4748
  131OSM   H14A14077   5.696   4.530   5.589  0.7289 -0.7016 -0.3623
  131OSM   H14B14078   5.556   4.442   5.538 -0.3399 -2.4139  2.4610
  131OSM   H14C14079   5.707   4.397   5.467  1.1651 -1.1048  0.0418
  131OSM    C1314080   5.569   4.379   5.773 -0.1566 -0.5860  0.6034
  131OSM   H13A14081   5.575   4.314   5.859  1.4836 -1.4688 -0.1390
  131OSM   H13B14082   5.472   4.370   5.727  0.3774  1.1026 -0.9961
  131OSM   H13C14083   5.596   4.477   5.811 -2.3522  0.5716 -0.6409
  131OSM    C1214084   5.818   4.328   5.722 -0.6294 -1.0796  0.2603
  131OSM   H12A14085   5.862   4.427   5.725 -1.3612 -0.7743  2.1515
  131OSM   H12B14086   5.878   4.267   5.656  0.3961 -2.3919  2.3007
  131OSM    C1114087   5.842   4.269   5.865 -0.4825 -0.1015  0.5912
  131OSM   H11A14088   5.953   4.258   5.871 -0.1424  1.0211 -2.3280
  131OSM   H11B14089   5.804   4.164   5.865 -1.8579  0.3725  1.2537
  131OSM      P14090   5.710   4.286   6.090 -0.1233  0.0165 -0.0699
  131OSM    O1314091   5.680   4.383   6.194  0.4034 -0.2418  0.0685
  131OSM    O1414092   5.591   4.230   6.029 -0.0352 -0.0885 -0.1427
  131OSM    O1114093   5.811   4.185   6.147  0.2332 -0.1601 -0.2354
  131OSM    O1214094   5.798   4.348   5.979 -0.6611 -0.0623  0.9086
  131OSM    C1S14095   5.934   4.231   6.199  0.0379 -0.3156  0.6039
  131OSM    H1S14096   5.937   4.335   6.238 -0.7828  0.4903 -1.3873
  131OSM    H1T14097   6.018   4.219   6.128  0.8007  0.8008  1.2918
  131OSM     NF14098   6.071   4.202   6.405  0.2144 -0.4707 -0.5571
  131OSM    HNF14099   6.166   4.200   6.375  0.2077 -0.4350 -0.5812
  131OSM    C2S14100   5.973   4.134   6.319  0.4627  0.7684 -0.0329
  131OSM    H2S14101   5.876   4.120   6.372  1.2209 -0.0281  1.1847
  131OSM    C3S14102   6.028   3.991   6.270  0.2586 -0.3919 -0.1942
  131OSM    H3S14103   6.116   4.020   6.209 -0.9164  1.4663 -1.1045
  131OSM     O314104   5.930   3.935   6.188  0.0369  0.3180  0.2413
  131OSM    HO314105   5.876   4.013   6.172  0.5781  0.6207 -0.1774
  131OSM    C4S14106   6.057   3.894   6.379  0.7344 -0.0808  0.0507
  131OSM    H4S14107   5.967   3.844   6.417  2.4780 -1.2643  2.9421
  131OSM    C5S14108   6.165   3.860   6.445  0.6378 -0.4500 -0.7631
  131OSM    H5S14109   6.264   3.901   6.420  0.9644  0.1812  1.3816
  131OSM    C6S14110   6.152   3.766   6.561  0.5311 -0.1644  0.8712
  131OSM    H6S14111   6.249   3.712   6.565  0.8470  0.1954 -1.0782
  131OSM    H6T14112   6.079   3.683   6.543  0.3902 -0.4353  2.5158
  131OSM    C7S14113   6.135   3.846   6.693  0.1726 -0.0023  0.2453
  131OSM    H7S14114   6.054   3.918   6.673  1.1799  1.1804  0.2932
  131OSM    H7T14115   6.233   3.897   6.703 -0.4705  0.9254  2.1627
  131OSM    C8S14116   6.121   3.758   6.814  0.6863 -0.1387  0.3024
  131OSM    H8S14117   6.199   3.679   6.817  1.8520  0.9682  0.1329
  131OSM    H8T14118   6.027   3.704   6.793  1.3921 -1.8227  1.3278
  131OSM    C9S14119   6.115   3.819   6.954 -0.7122  0.2087 -0.0267
  131OSM    H9S14120   6.108   3.731   7.022  2.7944 -0.2884 -0.1512
  131OSM    H9T14121   6.017   3.872   6.956  0.5410  2.7219 -1.2191
  131OSM   C10S14122   6.238   3.899   6.996 -0.2429  0.3419  1.1215
  131OSM   H10S14123   6.221   4.001   6.956 -1.0845 -1.0576 -2.4055
  131OSM   H10T14124   6.328   3.842   6.963 -1.7769 -1.6945  0.2817
  131OSM   C11S14125   6.270   3.922   7.147 -0.3233  0.2918  0.2897
  131OSM   H11S14126   6.213   4.001   7.202  0.6481 -0.0738  1.9074
  131OSM   H11T14127   6.370   3.968   7.136 -0.7960  0.9473 -1.7411
  131OSM   C12S14128   6.280   3.808   7.245  0.4408 -0.9989  0.1154
  131OSM   H12S14129   6.354   3.731   7.215  1.3306 -0.2407  0.3214
  131OSM   H12T14130   6.181   3.759   7.246 -0.6241  0.9155  3.1615
  131OSM   C13S14131   6.328   3.862   7.376  0.1187 -0.1151 -0.3667
  131OSM   H13S14132   6.281   3.954   7.417  1.4303 -0.5040  2.2123
  131OSM   H13T14133   6.429   3.905   7.361 -0.8403  2.1326 -0.7997
  131OSM   C14S14134   6.326   3.752   7.486 -0.0413  0.0399 -0.1721
  131OSM   H14S14135   6.383   3.662   7.456  1.7879  0.8140  0.8273
  131OSM   H14T14136   6.221   3.728   7.516  0.0360 -0.2268 -0.1163
  131OSM   C15S14137   6.404   3.785   7.612 -0.2079  0.2642  0.9341
  131OSM   H15S14138   6.512   3.784   7.587  0.0329 -0.9781  1.9108
  131OSM   H15T14139   6.386   3.694   7.674 -1.0721  0.6615  1.2767
  131OSM   C16S14140   6.362   3.915   7.690  0.1249 -0.0087 -0.2466
  131OSM   H16S14141   6.383   3.992   7.613 -1.9349 -0.0251 -0.8977
  131OSM   H16T14142   6.426   3.932   7.779 -1.1511 -0.4256  0.7858
  131OSM   C17S14143   6.221   3.913   7.732 -0.3268 -0.0888  0.2529
  131OSM   H17S14144   6.148   3.900   7.649  0.7690 -0.4561 -0.6786
  131OSM   H17T14145   6.191   4.013   7.772 -1.3163  0.0256 -0.7204
  131OSM   C18S14146   6.177   3.796   7.825  0.4208  0.6393 -0.3687
  131OSM   H18S14147   6.253   3.784   7.905  0.5400  2.0303 -0.2476
  131OSM   H18T14148   6.160   3.699   7.775 -3.4169  0.2868  1.2892
  131OSM   H18U14149   6.086   3.828   7.880  0.6032 -0.9661  0.9286
  131OSM    C1F14150   6.013   4.284   6.491 -0.6194  0.5996  0.3744
  131OSM     OF14151   5.896   4.309   6.486  0.5810 -0.1266 -0.4091
  131OSM    C2F14152   6.099   4.348   6.595  0.3574 -0.8655 -0.4111
  131OSM    H2F14153   6.193   4.392   6.555 -0.2832  0.4560 -0.4932
  131OSM    H2G14154   6.123   4.267   6.668 -2.0938 -0.1467  1.3291
  131OSM    C3F14155   6.035   4.468   6.684  0.3155  0.7931 -0.6390
  131OSM    H3F14156   5.994   4.540   6.610  0.5334  0.8119 -0.7436
  131OSM    H3G14157   6.123   4.517   6.730  0.6400 -0.0241 -0.3742
  131OSM    C4F14158   5.931   4.424   6.789 -0.9234  0.3827  0.2850
  131OSM    H4F14159   5.871   4.339   6.750 -1.2575  0.8962 -0.3463
  131OSM    H4G14160   5.849   4.494   6.813 -1.0855  0.6170 -0.8799
  131OSM    C5F14161   6.015   4.381   6.917 -0.9355 -0.0155  0.1803
  131OSM    H5F14162   6.049   4.471   6.972  0.4001  0.1068 -0.8131
  131OSM    H5G14163   6.102   4.322   6.880 -0.8133 -0.8270  1.6449
  131OSM    C6F14164   5.928   4.289   7.009  0.5072 -0.3769 -0.1684
  131OSM    H6F14165   5.898   4.206   6.942  1.5457 -0.2862 -0.7749
  131OSM    H6G14166   5.839   4.351   7.033  1.1414  0.9231 -1.0709
  131OSM    C7F14167   6.009   4.243   7.131  0.4880  0.1704  0.2302
  131OSM    H7F14168   6.032   4.337   7.185  1.1952  1.0706 -1.5509
  131OSM    H7G14169   6.106   4.202   7.096  0.7998 -0.0748  1.3417
  131OSM    C8F14170   5.927   4.161   7.225 -0.3274  0.2846 -0.7162
  131OSM    H8F14171   5.886   4.070   7.176 -0.2542  0.4317 -1.0503
  131OSM    H8G14172   5.838   4.220   7.255 -0.6880 -0.3351 -0.5362
  131OSM    C9F14173   6.018   4.128   7.340  0.8019 -0.0416 -0.3937
  131OSM    H9F14174   6.055   4.024   7.346 -3.1668 -1.5486  1.8259
  131OSM   C10F14175   6.059   4.203   7.442 -0.3483 -0.1301  0.4541
  131OSM   H10F14176   6.124   4.157   7.518  2.1851  3.6053  0.8015
  131OSM   C11F14177   6.028   4.347   7.473 -0.3547 -0.1024 -0.3927
  131OSM   H11F14178   5.928   4.380   7.437 -0.7582 -0.2507  0.5685
  131OSM   H11G14179   6.099   4.414   7.419 -1.3467  0.9992 -0.3575
  131OSM   C12F14180   6.034   4.363   7.627 -0.3272  0.0817  1.2749
  131OSM   H12F14181   6.031   4.472   7.649 -1.7654  0.7710 -1.8122
  131OSM   H12G14182   6.124   4.319   7.676  0.1998 -1.2232 -0.7643
  131OSM   C13F14183   5.929   4.287   7.702 -0.3291 -0.1995  0.1099
  131OSM   H13F14184   5.934   4.176   7.701  0.0712 -0.1891  0.5269
  131OSM   H13G14185   5.829   4.315   7.660 -0.3110 -0.8279 -0.3603
  131OSM   C14F14186   5.922   4.322   7.853 -0.0311  0.7098 -0.5228
  131OSM   H14F14187   5.818   4.307   7.888  0.9528  1.1329  2.9540
  131OSM   H14G14188   5.948   4.427   7.878 -0.8648  0.7218  0.3196
  131OSM   C15F14189   6.007   4.228   7.948 -0.4107  0.6922  0.6919
  131OSM   H15F14190   6.015   4.286   8.043  0.1558  0.6927  0.6451
  131OSM   H15G14191   6.102   4.216   7.893 -0.9692 -1.0349  0.0660
  131OSM   C16F14192   5.950   4.090   7.979  0.4750 -0.0229  0.2115
  131OSM   H16F14193   5.966   4.024   7.890  2.6997  0.6772  0.0348
  131OSM   H16G14194   5.841   4.105   7.993  0.0159  0.3685 -3.0263
  131OSM   C17F14195   6.004   4.042   8.111  0.0200  0.6281  0.4431
  131OSM   H17F14196   5.968   4.122   8.179 -0.7119  0.8715 -0.2096
  131OSM   H17G14197   6.115   4.036   8.116  0.0856  2.2897  2.5748
  131OSM   C18F14198   5.938   3.916   8.151 -0.0131 -0.8490 -0.4263
  131OSM   H18F14199   5.973   3.885   8.252  1.4401 -0.5383 -0.8041
  131OSM   H18G14200   5.958   3.850   8.064 -0.7015  1.8361 -2.7528
  131OSM   H18H14201   5.828   3.924   8.145 -0.0015 -1.3022 -1.3386
  132OSM      N14202   4.445   5.950   6.137 -0.3300  0.3226 -1.1142
  132OSM    C1514203   4.410   6.033   6.016 -0.2936 -1.0486 -0.5636
  132OSM   H15A14204   4.333   6.106   6.035  0.9648  0.5770 -1.4695
  132OSM   H15B14205   4.374   5.972   5.934  0.3390 -2.7060  0.3285
  132OSM   H15C14206   4.502   6.081   5.986 -0.1003  0.5018  2.1713
  132OSM    C1414207   4.331   5.859   6.170 -0.0107 -0.1694 -0.0426
  132OSM   H14A14208   4.347   5.792   6.254  0.9388  0.0882 -0.0030
  132OSM   H14B14209   4.306   5.798   6.085  1.1673 -2.0349  0.8792
  132OSM   H14C14210   4.244   5.919   6.191 -0.1856 -0.8918  1.3982
  132OSM    C1314211   4.546   5.855   6.106  0.2599 -0.4246 -0.3933
  132OSM   H13A14212   4.565   5.804   6.199 -0.1113 -0.9187 -0.5828
  132OSM   H13B14213   4.636   5.911   6.086 -0.0492  0.4644  0.6013
  132OSM   H13C14214   4.512   5.786   6.030 -0.2007  0.1253 -0.6978
  132OSM    C1214215   4.470   6.046   6.251  0.7423 -0.2595  0.3341
  132OSM   H12A14216   4.385   6.110   6.271  0.9753  0.1954 -0.1067
  132OSM   H12B14217   4.553   6.109   6.223  0.3563  0.0286 -0.1560
  132OSM    C1114218   4.511   5.986   6.386 -0.2177  0.3235  0.0146
  132OSM   H11A14219   4.419   5.934   6.421  0.6915 -1.3954 -0.0306
  132OSM   H11B14220   4.532   6.060   6.467 -0.0311  0.8522 -0.5102
  132OSM      P14221   4.770   5.940   6.374 -0.1399 -0.0088 -0.3720
  132OSM    O1314222   4.851   5.813   6.374 -0.1100 -0.3441  0.1425
  132OSM    O1414223   4.799   6.029   6.259 -0.4244  0.2807 -0.4835
  132OSM    O1114224   4.785   6.012   6.511  0.1037 -0.2797 -0.4303
  132OSM    O1214225   4.619   5.897   6.364 -0.2284  0.4318  0.9175
  132OSM    C1S14226   4.776   5.939   6.635 -0.2793  0.3111  0.6877
  132OSM    H1S14227   4.856   5.863   6.648  0.7972  1.3994  0.6016
  132OSM    H1T14228   4.683   5.879   6.628  0.2902 -0.4303 -3.6089
  132OSM     NF14229   4.766   5.958   6.876  0.0275 -0.5214  0.5018
  132OSM    HNF14230   4.674   5.929   6.900  0.3624 -1.2535  0.9720
  132OSM    C2S14231   4.775   6.041   6.755 -0.3101  0.5970 -0.3690
  132OSM    H2S14232   4.875   6.089   6.756  0.1613 -0.3724  0.4056
  132OSM    C3S14233   4.665   6.150   6.744  0.0135  0.5008 -0.3808
  132OSM    H3S14234   4.565   6.108   6.720 -0.2826 -0.3940  2.0707
  132OSM     O314235   4.685   6.243   6.641 -0.5111 -0.0124  0.0544
  132OSM    HO314236   4.757   6.202   6.592 -1.6009 -0.2741 -1.3618
  132OSM    C4S14237   4.663   6.230   6.874 -0.7433  0.1088  0.2168
  132OSM    H4S14238   4.734   6.309   6.903 -0.8798 -0.2334  1.5242
  132OSM    C5S14239   4.559   6.213   6.954 -0.3414 -0.3318 -0.4302
  132OSM    H5S14240   4.486   6.133   6.931  1.1051 -1.5243 -1.0337
  132OSM    C6S14241   4.544   6.288   7.089  0.3698  0.4790 -0.0727
  132OSM    H6S14242   4.439   6.321   7.103  0.1557  0.5717 -1.6933
  132OSM    H6T14243   4.617   6.371   7.094  2.1899 -1.1211  1.8986
  132OSM    C7S14244   4.571   6.188   7.209  0.9786  0.9799 -0.4678
  132OSM    H7S14245   4.668   6.134   7.206 -0.0356 -0.9431 -0.4413
  132OSM    H7T14246   4.488   6.114   7.210  1.2012  0.7323  0.0329
  132OSM    C8S14247   4.563   6.248   7.358  0.0351 -0.2384  0.5590
  132OSM    H8S14248   4.461   6.290   7.369 -0.2804 -0.8316  0.0150
  132OSM    H8T14249   4.639   6.328   7.368 -0.8352  0.8436 -0.9753
  132OSM    C9S14250   4.593   6.145   7.467  0.1841  0.3534 -0.0427
  132OSM    H9S14251   4.702   6.125   7.465 -0.0130 -1.0029  1.1279
  132OSM    H9T14252   4.543   6.046   7.454  1.2909 -0.4955  1.7775
  132OSM   C10S14253   4.563   6.197   7.610 -0.4192  0.0603  0.0866
  132OSM   H10S14254   4.453   6.211   7.615 -0.4743 -0.7261  1.8095
  132OSM   H10T14255   4.610   6.296   7.629 -0.6760  0.3625 -0.8243
  132OSM   C11S14256   4.590   6.095   7.725  0.2083 -0.1029  0.1275
  132OSM   H11S14257   4.699   6.094   7.741 -0.0480 -0.8125  2.0526
  132OSM   H11T14258   4.543   6.000   7.691 -0.0393  0.6708 -1.8303
  132OSM   C12S14259   4.518   6.142   7.850 -0.3006  0.3602 -1.0989
  132OSM   H12S14260   4.414   6.104   7.842  0.6767 -2.8673 -0.2677
  132OSM   H12T14261   4.518   6.252   7.857 -0.5512  0.2725  0.5851
  132OSM   C13S14262   4.575   6.069   7.975  0.1074 -0.3028 -0.7261
  132OSM   H13S14263   4.676   6.110   7.996  0.3374 -1.6062  0.9122
  132OSM   H13T14264   4.584   5.960   7.961  2.1873 -0.1359 -1.0077
  132OSM   C14S14265   4.488   6.096   8.099  0.0733  0.2488 -0.2390
  132OSM   H14S14266   4.384   6.065   8.074 -0.9081  1.9797  1.4259
  132OSM   H14T14267   4.475   6.205   8.111  0.5443  0.3923 -1.0060
  132OSM   C15S14268   4.521   6.010   8.218 -0.7642  0.6335 -0.5936
  132OSM   H15S14269   4.605   6.058   8.273  0.0874 -2.7327  1.3127
  132OSM   H15T14270   4.552   5.908   8.186 -4.1549 -0.4772 -0.7986
  132OSM   C16S14271   4.410   5.984   8.324 -1.0494 -0.2841  0.2361
  132OSM   H16S14272   4.448   5.904   8.391 -1.7917 -2.2969 -1.6233
  132OSM   H16T14273   4.336   5.931   8.260  1.0640 -2.4107 -0.6041
  132OSM   C17S14274   4.356   6.107   8.390  0.3942 -0.4307  0.6836
  132OSM   H17S14275   4.284   6.095   8.474  0.8380  3.3971  1.7962
  132OSM   H17T14276   4.314   6.184   8.323  0.3165  0.2962  1.5514
  132OSM   C18S14277   4.471   6.176   8.470  0.2578 -0.2004  0.3215
  132OSM   H18S14278   4.436   6.219   8.566 -1.4341  0.5641 -0.5907
  132OSM   H18T14279   4.507   6.255   8.400 -1.9387 -0.1157 -0.8277
  132OSM   H18U14280   4.547   6.100   8.495 -0.7489 -1.2407  0.2958
  132OSM    C1F14281   4.873   5.888   6.918 -0.5232  0.3183 -0.5188
  132OSM     OF14282   4.991   5.910   6.880  0.1538  0.3454 -0.1388
  132OSM    C2F14283   4.855   5.782   7.019  0.4162 -0.1510  0.3486
  132OSM    H2F14284   4.939   5.711   7.010  0.1785 -0.3425 -0.3933
  132OSM    H2G14285   4.757   5.730   7.011  0.4622 -0.1747 -0.0901
  132OSM    C3F14286   4.855   5.851   7.158  0.3088  0.4563 -0.6490
  132OSM    H3F14287   4.775   5.926   7.174  2.4858  2.1866  3.2902
  132OSM    H3G14288   4.954   5.898   7.177 -0.1041  0.7611  0.8692
  132OSM    C4F14289   4.832   5.741   7.269 -0.4542  1.0281 -0.0455
  132OSM    H4F14290   4.934   5.699   7.270 -1.1087 -0.6372 -0.5658
  132OSM    H4G14291   4.757   5.662   7.245  0.3650  0.2762 -0.1458
  132OSM    C5F14292   4.822   5.797   7.408 -0.3476  0.0788 -0.1773
  132OSM    H5F14293   4.745   5.877   7.403  0.6679  1.0634 -0.4807
  132OSM    H5G14294   4.923   5.837   7.430 -0.8730  0.5339  1.6037
  132OSM    C6F14295   4.809   5.692   7.525  0.2487  0.4576 -0.1677
  132OSM    H6F14296   4.901   5.629   7.533 -0.3971 -0.3412  1.6351
  132OSM    H6G14297   4.723   5.624   7.511  1.7224 -1.4394 -0.3872
  132OSM    C7F14298   4.805   5.760   7.666 -0.2946 -0.0739  0.7499
  132OSM    H7F14299   4.738   5.848   7.666  1.0119  0.9698  1.9309
  132OSM    H7G14300   4.905   5.807   7.682  0.1913 -1.0413  0.6750
  132OSM    C8F14301   4.786   5.649   7.771  0.4910 -0.2078 -0.0764
  132OSM    H8F14302   4.731   5.559   7.735  3.9464 -2.6350  0.2285
  132OSM    H8G14303   4.718   5.700   7.843 -0.1965  0.9016 -1.4511
  132OSM    C9F14304   4.914   5.603   7.834  0.3116 -0.5787  0.4606
  132OSM    H9F14305   4.980   5.560   7.757  1.5133  0.6238  0.7719
  132OSM   C10F14306   4.955   5.617   7.963  0.1891 -0.6166  0.7698
  132OSM   H10F14307   5.052   5.589   8.008  0.8128 -0.3776 -0.3932
  132OSM   C11F14308   4.873   5.702   8.057 -0.6961 -0.1976 -0.2509
  132OSM   H11F14309   4.816   5.779   8.002 -1.6991  0.8040  2.0474
  132OSM   H11G14310   4.947   5.774   8.100 -1.6735  1.3867 -1.1421
  132OSM   C12F14311   4.783   5.642   8.166 -0.0655 -0.1193  0.9203
  132OSM   H12F14312   4.677   5.638   8.132  0.7625 -0.8425 -1.8363
  132OSM   H12G14313   4.786   5.702   8.259 -0.1126  1.6565 -0.1807
  132OSM   C13F14314   4.824   5.499   8.203  0.0332  1.0446  0.3975
  132OSM   H13F14315   4.929   5.511   8.237  0.5068 -0.3867 -0.4610
  132OSM   H13G14316   4.824   5.436   8.112  1.6084  0.6666  0.6339
  132OSM   C14F14317   4.748   5.422   8.315  0.2074 -0.2075  0.2001
  132OSM   H14F14318   4.759   5.484   8.406  0.8986 -0.0905  0.0382
  132OSM   H14G14319   4.807   5.330   8.332 -1.2116 -0.8535  2.0361
  132OSM   C15F14320   4.601   5.399   8.281  1.0877  0.2712 -0.1180
  132OSM   H15F14321   4.584   5.380   8.173 -0.0023  1.9357 -0.2645
  132OSM   H15G14322   4.545   5.490   8.312  0.6884 -0.3974  1.2105
  132OSM   C16F14323   4.535   5.292   8.370 -0.1395 -0.1644  0.5422
  132OSM   H16F14324   4.613   5.214   8.382 -0.2486 -0.1065  1.8572
  132OSM   H16G14325   4.446   5.241   8.330  0.8721 -1.9935  0.5224
  132OSM   C17F14326   4.465   5.353   8.496 -0.0784  0.0251 -0.2597
  132OSM   H17F14327   4.535   5.427   8.540  0.9895 -0.7507 -0.6276
  132OSM   H17G14328   4.452   5.277   8.576  3.0607  0.6804  1.0171
  132OSM   C18F14329   4.332   5.422   8.460 -0.3525  0.8172  0.8727
  132OSM   H18F14330   4.340   5.528   8.429  0.7347 -0.3592 -3.5351
  132OSM   H18G14331   4.269   5.417   8.551 -1.1738 -1.5788  0.2616
  132OSM   H18H14332   4.272   5.374   8.379 -0.3182 -1.2082  1.9872
  133OSM      N14333   5.838   5.772   6.324 -0.2589  0.1226 -0.2985
  133OSM    C1514334   5.945   5.665   6.314 -0.0161 -0.1716 -0.1148
  133OSM   H15A14335   5.923   5.597   6.233  1.6647 -0.2363 -0.5607
  133OSM   H15B14336   5.956   5.601   6.401 -0.1156  0.1132  0.1098
  133OSM   H15C14337   6.037   5.712   6.281  0.0504  0.0196  0.3301
  133OSM    C1414338   5.878   5.852   6.444  0.2134  0.0478  0.1881
  133OSM   H14A14339   5.858   5.799   6.536  2.6387 -0.4707  0.4777
  133OSM   H14B14340   5.812   5.937   6.447  1.3917  0.9962  2.4960
  133OSM   H14C14341   5.979   5.891   6.448  0.5627 -0.8443  0.5858
  133OSM    C1314342   5.839   5.852   6.201 -0.2469 -0.4671 -0.4244
  133OSM   H13A14343   5.936   5.897   6.191  0.0087 -0.1737  2.4206
  133OSM   H13B14344   5.757   5.923   6.197 -0.5328 -0.8453 -1.5711
  133OSM   H13C14345   5.836   5.792   6.111  1.3365 -0.4954 -0.4876
  133OSM    C1214346   5.706   5.705   6.348  0.5326  1.2180 -0.6474
  133OSM   H12A14347   5.708   5.646   6.438  1.0713  0.9237 -0.8493
  133OSM   H12B14348   5.683   5.634   6.271  0.0118  0.0205  0.5775
  133OSM    C1114349   5.579   5.792   6.365  0.4500  0.2195 -0.4057
  133OSM   H11A14350   5.598   5.888   6.416  0.1238 -0.3617  0.8418
  133OSM   H11B14351   5.505   5.742   6.431  0.4875  1.3167  0.4975
  133OSM      P14352   5.374   5.811   6.196 -0.0579 -0.0738 -0.0191
  133OSM    O1314353   5.364   5.888   6.074  0.1415 -0.3331  0.2231
  133OSM    O1414354   5.324   5.673   6.190  0.0363 -0.3037  0.2741
  133OSM    O1114355   5.301   5.889   6.312 -0.8117  0.2144 -0.2236
  133OSM    O1214356   5.521   5.810   6.234  0.2385 -0.5266  0.0356
  133OSM    C1S14357   5.218   5.838   6.407  0.5811  0.7601 -0.0743
  133OSM    H1S14358   5.219   5.727   6.418  0.3672  0.8733  1.3316
  133OSM    H1T14359   5.111   5.859   6.385  0.7647  0.7180 -1.0289
  133OSM     NF14360   5.171   5.815   6.655  0.0758 -0.1756 -0.7745
  133OSM    HNF14361   5.095   5.854   6.706 -0.7452  0.1658 -2.2110
  133OSM    C2S14362   5.245   5.897   6.556  0.1645  0.6977  0.1136
  133OSM    H2S14363   5.354   5.891   6.575 -0.1505  0.1354  1.8784
  133OSM    C3S14364   5.214   6.043   6.564  0.5633  0.5059 -0.1353
  133OSM    H3S14365   5.105   6.034   6.546  0.0505 -2.1707  3.1621
  133OSM     O314366   5.281   6.118   6.468  0.4521 -0.0154 -0.6601
  133OSM    HO314367   5.315   6.053   6.405 -0.1665  0.3134 -1.3385
  133OSM    C4S14368   5.217   6.091   6.700 -0.4985  0.6652  0.7811
  133OSM    H4S14369   5.120   6.073   6.749 -1.0680  0.7691 -0.2837
  133OSM    C5S14370   5.311   6.153   6.773 -0.4121 -0.3926  0.3852
  133OSM    H5S14371   5.410   6.180   6.732  0.1676 -1.1329  1.2538
  133OSM    C6S14372   5.303   6.203   6.915  0.7888 -0.0815 -0.0814
  133OSM    H6S14373   5.314   6.313   6.925 -0.3568  0.0936 -0.5993
  133OSM    H6T14374   5.380   6.168   6.987  2.2739  1.8458 -0.6519
  133OSM    C7S14375   5.171   6.162   6.982 -0.5533 -0.2920 -0.2804
  133OSM    H7S14376   5.154   6.053   6.997  0.3616 -0.2306  1.4630
  133OSM    H7T14377   5.093   6.210   6.919 -2.2632  2.2897  3.4642
  133OSM    C8S14378   5.151   6.238   7.117 -0.2694 -0.1434 -0.2452
  133OSM    H8S14379   5.210   6.332   7.111 -0.3146  0.0315  1.5271
  133OSM    H8T14380   5.194   6.176   7.198  1.5056  2.1856  0.7019
  133OSM    C9S14381   5.003   6.251   7.147  0.2447  0.7204  0.0210
  133OSM    H9S14382   4.947   6.160   7.116 -1.1446  1.4627  0.2503
  133OSM    H9T14383   4.957   6.332   7.086  0.2900  1.1835  0.5974
  133OSM   C10S14384   4.967   6.302   7.284 -0.9060  0.3645  0.8169
  133OSM   H10S14385   4.858   6.320   7.290 -0.9516  0.4436 -0.1606
  133OSM   H10T14386   5.017   6.398   7.308  0.7644 -0.2259 -0.1205
  133OSM   C11S14387   4.993   6.196   7.404 -0.2926  0.1123  1.0554
  133OSM   H11S14388   5.098   6.160   7.406  0.1124  1.2479  1.2914
  133OSM   H11T14389   4.913   6.119   7.392  0.4575 -0.8323  1.9454
  133OSM   C12S14390   4.959   6.273   7.532 -1.3765  0.0907  0.5809
  133OSM   H12S14391   4.861   6.316   7.501 -1.2410  1.1124  1.5202
  133OSM   H12T14392   5.029   6.356   7.556 -0.3645 -0.0413 -1.7138
  133OSM   C13S14393   4.966   6.191   7.658 -0.1863  0.2751 -0.2191
  133OSM   H13S14394   5.067   6.146   7.670 -0.5462 -0.7869 -1.0341
  133OSM   H13T14395   4.899   6.104   7.642 -0.1023  0.0159  0.7829
  133OSM   C14S14396   4.930   6.279   7.781 -0.7599 -0.4865  0.1238
  133OSM   H14S14397   4.832   6.327   7.759 -0.6226 -0.5625 -0.7103
  133OSM   H14T14398   5.006   6.357   7.759 -0.2170 -1.1546 -0.4367
  133OSM   C15S14399   4.936   6.207   7.912 -0.4887 -0.2153  0.9134
  133OSM   H15S14400   5.039   6.166   7.922 -0.4024 -1.0112 -2.1724
  133OSM   H15T14401   4.880   6.111   7.909 -0.6418 -0.1147  0.5379
  133OSM   C16S14402   4.880   6.290   8.026  0.4778 -0.1459 -0.7352
  133OSM   H16S14403   4.770   6.306   8.025  0.5535  1.7822  3.3989
  133OSM   H16T14404   4.896   6.397   8.000  0.1812 -0.3902 -1.9874
  133OSM   C17S14405   4.921   6.247   8.167  0.0299  0.4266  0.2071
  133OSM   H17S14406   5.028   6.276   8.180  0.0575  0.0350  0.8685
  133OSM   H17T14407   4.926   6.136   8.170 -0.5865  0.3543 -0.7674
  133OSM   C18S14408   4.837   6.300   8.283  0.1961 -0.1965 -0.5569
  133OSM   H18S14409   4.728   6.294   8.264 -0.2087  3.0129  0.2451
  133OSM   H18T14410   4.866   6.406   8.298  0.6529 -0.5435  1.2803
  133OSM   H18U14411   4.868   6.256   8.380  0.2351  2.5324  0.7531
  133OSM    C1F14412   5.208   5.687   6.678 -0.4238  0.8739 -0.0922
  133OSM     OF14413   5.318   5.642   6.643 -0.0053  0.6129 -0.1987
  133OSM    C2F14414   5.111   5.584   6.726  0.7029  0.2956  0.2399
  133OSM    H2F14415   5.115   5.506   6.646 -0.7265  0.5388 -0.0983
  133OSM    H2G14416   5.011   5.629   6.741  0.5393 -0.0091  0.0805
  133OSM    C3F14417   5.152   5.527   6.865  1.1116  0.6079 -0.3022
  133OSM    H3F14418   5.165   5.610   6.937 -0.6108  1.0093 -0.4233
  133OSM    H3G14419   5.249   5.474   6.856  0.0423 -1.5669  0.2922
  133OSM    C4F14420   5.056   5.425   6.925  0.2545 -0.1357  0.1526
  133OSM    H4F14421   5.020   5.357   6.845 -1.1232  2.8056 -1.9448
  133OSM    H4G14422   4.970   5.489   6.955 -0.1182  0.5796 -2.2018
  133OSM    C5F14423   5.122   5.355   7.039  0.1428  0.2471  0.4246
  133OSM    H5F14424   5.216   5.316   6.995 -0.7663  0.1069 -1.5058
  133OSM    H5G14425   5.056   5.267   7.058  1.3767 -0.8800 -0.2972
  133OSM    C6F14426   5.157   5.436   7.159  0.3358  0.2800 -0.4137
  133OSM    H6F14427   5.069   5.492   7.198  0.1399  0.0430 -0.5148
  133OSM    H6G14428   5.240   5.507   7.137  1.0329 -0.8623 -1.6300
  133OSM    C7F14429   5.204   5.345   7.272  0.3363 -0.0357 -0.4566
  133OSM    H7F14430   5.276   5.281   7.216 -0.7336  0.2948 -2.3018
  133OSM    H7G14431   5.114   5.281   7.287  0.6987 -1.1554 -2.6078
  133OSM    C8F14432   5.267   5.404   7.399  0.5314 -0.4291 -0.0116
  133OSM    H8F14433   5.207   5.478   7.455  0.6957  0.1612 -0.6062
  133OSM    H8G14434   5.356   5.462   7.365  1.0747 -0.3240  1.4844
  133OSM    C9F14435   5.314   5.289   7.484  0.6344  0.5039 -0.6044
  133OSM    H9F14436   5.385   5.229   7.425 -0.2867 -0.9180 -0.3227
  133OSM   C10F14437   5.287   5.244   7.607 -0.1398 -0.2162 -0.1467
  133OSM   H10F14438   5.326   5.150   7.648 -2.1087 -0.3458  1.5957
  133OSM   C11F14439   5.190   5.312   7.694  0.4031 -0.4581  0.2631
  133OSM   H11F14440   5.109   5.240   7.719 -0.4260  0.7549  1.1699
  133OSM   H11G14441   5.149   5.410   7.660  1.7822  0.3403  0.8213
  133OSM   C12F14442   5.258   5.346   7.831  0.0527 -0.3122  0.3328
  133OSM   H12F14443   5.189   5.392   7.905 -0.6906 -1.2343  0.2342
  133OSM   H12G14444   5.338   5.421   7.812 -0.4629 -0.2430 -1.7471
  133OSM   C13F14445   5.315   5.222   7.905 -0.4929 -0.3712 -0.1044
  133OSM   H13F14446   5.377   5.270   7.983 -1.1916  2.9517 -1.4263
  133OSM   H13G14447   5.391   5.173   7.839  1.3791  1.0824  0.8672
  133OSM   C14F14448   5.211   5.112   7.949  0.2002 -0.4359 -0.0962
  133OSM   H14F14449   5.261   5.042   8.019 -1.9414 -2.6514 -0.6156
  133OSM   H14G14450   5.182   5.054   7.858  0.7866 -0.5447 -0.2140
  133OSM   C15F14451   5.087   5.167   8.017  0.1528  0.4004  0.2912
  133OSM   H15F14452   5.012   5.087   8.033  1.3720 -0.4086  2.3063
  133OSM   H15G14453   5.031   5.235   7.949 -0.0171 -0.1112 -0.0853
  133OSM   C16F14454   5.098   5.243   8.148  0.3944 -0.0322 -0.0602
  133OSM   H16F14455   4.996   5.280   8.168  1.3353  2.8276 -0.1764
  133OSM   H16G14456   5.162   5.331   8.128 -0.8155  0.9032  0.0635
  133OSM   C17F14457   5.138   5.154   8.270 -0.1297  0.0331 -0.2244
  133OSM   H17F14458   5.233   5.101   8.245 -1.3295 -2.1951 -0.3142
  133OSM   H17G14459   5.060   5.075   8.276  0.5077 -1.2229 -4.6459
  133OSM   C18F14460   5.155   5.227   8.406  0.7868 -0.0540 -0.3061
  133OSM   H18F14461   5.245   5.291   8.407  2.4642 -2.2179 -2.2373
  133OSM   H18G14462   5.153   5.157   8.492 -0.1819 -1.0162 -1.0708
  133OSM   H18H14463   5.062   5.288   8.414  0.4891 -0.5054 -0.2347
  134OSM      N14464   1.926   2.029   6.469  0.6658  1.0285  0.7946
  134OSM    C1514465   2.025   2.055   6.564  0.0982  0.0046 -0.3253
  134OSM   H15A14466   2.067   2.155   6.568  0.6191 -0.2353  1.7502
  134OSM   H15B14467   2.118   2.004   6.541 -0.7195 -0.6053 -2.4676
  134OSM   H15C14468   1.987   2.048   6.665 -0.0254  2.3709 -0.1406
  134OSM    C1414469   1.800   2.102   6.488  0.3925  0.6796  0.5904
  134OSM   H14A14470   1.811   2.206   6.460 -3.6748  1.5381  1.6022
  134OSM   H14B14471   1.758   2.086   6.586 -1.5583 -0.1193 -0.3125
  134OSM   H14C14472   1.717   2.067   6.428  0.3323  0.7886  0.6089
  134OSM    C1314473   1.969   2.067   6.337 -0.1188 -0.1890 -0.3968
  134OSM   H13A14474   2.056   2.015   6.299 -0.5779  0.4784 -2.4524
  134OSM   H13B14475   1.987   2.173   6.339  0.1303 -0.2359 -0.1402
  134OSM   H13C14476   1.896   2.046   6.260 -1.3385  0.5871  0.5181
  134OSM    C1214477   1.884   1.880   6.482  0.1963 -0.4325  0.5695
  134OSM   H12A14478   1.968   1.818   6.454 -0.9468 -1.7408 -0.1076
  134OSM   H12B14479   1.801   1.871   6.413 -2.1201  0.6669  3.0420
  134OSM    C1114480   1.829   1.822   6.623 -0.0882  0.2768  0.4264
  134OSM   H11A14481   1.918   1.804   6.686  2.1896  0.3246 -2.5387
  134OSM   H11B14482   1.808   1.715   6.600  0.2575 -0.0488  1.5656
  134OSM      P14483   1.586   1.875   6.624 -0.0650 -0.2592  0.5555
  134OSM    O1314484   1.491   1.986   6.658  0.8365  0.2517 -1.2385
  134OSM    O1414485   1.607   1.854   6.476  0.8055 -0.2199  0.0046
  134OSM    O1114486   1.543   1.739   6.686 -0.6767  0.5195 -0.4440
  134OSM    O1214487   1.725   1.902   6.682  0.0712 -0.7369  0.2700
  134OSM    C1S14488   1.546   1.698   6.829 -0.6484 -0.2530  0.0400
  134OSM    H1S14489   1.476   1.770   6.877  1.4774  2.5816 -0.7811
  134OSM    H1T14490   1.648   1.719   6.868 -0.7552  1.8885 -0.6687
  134OSM     NF14491   1.539   1.505   6.988  0.1794 -0.1678 -0.9682
  134OSM    HNF14492   1.612   1.438   6.994 -1.0198 -1.4705 -0.3759
  134OSM    C2S14493   1.502   1.549   6.852 -0.2294 -0.5912 -0.4590
  134OSM    H2S14494   1.391   1.545   6.842 -0.1688  0.0558 -1.5520
  134OSM    C3S14495   1.562   1.453   6.744  0.4491 -0.1834 -0.2473
  134OSM    H3S14496   1.671   1.459   6.767  0.4411 -1.1372  0.0730
  134OSM     O314497   1.530   1.486   6.606  0.1645 -0.4012  0.3584
  134OSM    HO314498   1.510   1.580   6.606 -1.4908 -0.7035  1.9823
  134OSM    C4S14499   1.524   1.308   6.784  0.0400  0.0287  1.1263
  134OSM    H4S14500   1.416   1.287   6.781  0.2314 -0.8496 -1.4824
  134OSM    C5S14501   1.614   1.206   6.805  0.4083  0.2113  0.1738
  134OSM    H5S14502   1.723   1.222   6.806  0.8470 -2.3174  1.0504
  134OSM    C6S14503   1.574   1.068   6.841  0.4155  0.0698 -0.1360
  134OSM    H6S14504   1.611   0.994   6.767  0.4667 -0.6847  0.6333
  134OSM    H6T14505   1.464   1.055   6.829  0.8266 -3.1910 -1.3820
  134OSM    C7S14506   1.625   1.019   6.978 -0.2518  0.0273 -0.1870
  134OSM    H7S14507   1.735   1.036   6.978 -0.4092  1.7508  2.5801
  134OSM    H7T14508   1.612   0.909   6.981 -0.6511  0.0107 -1.7598
  134OSM    C8S14509   1.562   1.091   7.097  0.4357  0.2844 -0.0131
  134OSM    H8S14510   1.452   1.074   7.101  0.3808  0.6536  0.1180
  134OSM    H8T14511   1.565   1.199   7.071  1.2298 -0.2074 -2.1960
  134OSM    C9S14512   1.633   1.046   7.226 -0.0047  0.1375  0.0595
  134OSM    H9S14513   1.741   1.069   7.216 -0.0607  1.1187  1.4448
  134OSM    H9T14514   1.630   0.936   7.242 -1.0002  0.3025  1.1325
  134OSM   C10S14515   1.574   1.104   7.352  0.1205 -0.4656  0.8123
  134OSM   H10S14516   1.471   1.069   7.378  0.1542 -0.7838  0.5323
  134OSM   H10T14517   1.560   1.213   7.333 -0.0206 -0.3953  1.3053
  134OSM   C11S14518   1.653   1.072   7.485  0.0643  0.4992 -0.3520
  134OSM   H11S14519   1.760   1.090   7.464  0.5079 -1.9573 -0.5301
  134OSM   H11T14520   1.654   0.964   7.512  0.1040  0.0836 -1.8708
  134OSM   C12S14521   1.596   1.146   7.603  0.0076  0.4049 -0.9465
  134OSM   H12S14522   1.485   1.140   7.595 -0.1359 -1.4340  1.3884
  134OSM   H12T14523   1.634   1.251   7.600  2.6265 -0.4274  0.3753
  134OSM   C13S14524   1.647   1.104   7.740 -0.3154  0.1303  0.3064
  134OSM   H13S14525   1.756   1.120   7.746 -0.2853 -0.0514  0.2465
  134OSM   H13T14526   1.618   0.999   7.764  1.2119 -0.4881 -0.4340
  134OSM   C14S14527   1.587   1.194   7.850 -0.0984  0.0662 -0.2311
  134OSM   H14S14528   1.477   1.179   7.852 -0.1237  0.2333 -0.2712
  134OSM   H14T14529   1.588   1.299   7.811 -0.6498 -0.9085 -3.1601
  134OSM   C15S14530   1.639   1.166   7.996 -0.4445 -0.5144 -0.1381
  134OSM   H15S14531   1.746   1.139   7.991 -0.5472 -0.7555 -1.5383
  134OSM   H15T14532   1.581   1.075   8.021  0.6335 -1.0494  0.4932
  134OSM   C16S14533   1.619   1.277   8.100  0.4866 -1.2379 -0.2590
  134OSM   H16S14534   1.510   1.300   8.104  0.8381  0.6237 -0.0302
  134OSM   H16T14535   1.665   1.373   8.068  0.1284 -1.7036 -2.2744
  134OSM   C17S14536   1.683   1.240   8.239 -0.4643 -0.0515  0.6998
  134OSM   H17S14537   1.674   1.332   8.301  0.6742  1.8282 -1.7275
  134OSM   H17T14538   1.789   1.211   8.224 -0.7691 -0.1681 -1.5297
  134OSM   C18S14539   1.605   1.133   8.309  0.1019  0.7698  0.1162
  134OSM   H18S14540   1.670   1.105   8.395 -1.1305 -2.0998  0.2324
  134OSM   H18T14541   1.596   1.042   8.246  1.4752  1.5104 -1.1842
  134OSM   H18U14542   1.503   1.160   8.346 -0.4611 -1.2917  0.2093
  134OSM    C1F14543   1.487   1.560   7.095  0.3517 -0.3272 -0.4158
  134OSM     OF14544   1.403   1.647   7.080  0.7007 -0.2244 -0.5433
  134OSM    C2F14545   1.532   1.506   7.233  0.1205  0.0827 -0.3078
  134OSM    H2F14546   1.633   1.460   7.232 -0.3987 -1.8409  4.4241
  134OSM    H2G14547   1.464   1.421   7.256  1.0617 -0.3845  0.8914
  134OSM    C3F14548   1.512   1.625   7.333  0.1048 -0.4286 -0.0579
  134OSM    H3F14549   1.404   1.643   7.354 -0.3969 -3.0740 -0.0195
  134OSM    H3G14550   1.561   1.710   7.281  1.9700 -1.1906  0.3853
  134OSM    C4F14551   1.583   1.597   7.460  0.6129  0.9669 -1.0686
  134OSM    H4F14552   1.693   1.582   7.448  1.1050  0.7681  2.5868
  134OSM    H4G14553   1.542   1.505   7.507  2.5262  0.3305 -0.5376
  134OSM    C5F14554   1.567   1.711   7.570  0.5162  0.1009  0.2738
  134OSM    H5F14555   1.461   1.744   7.576  0.4393  0.4946 -2.1596
  134OSM    H5G14556   1.620   1.805   7.540 -0.2806  0.1421 -1.0851
  134OSM    C6F14557   1.615   1.658   7.707 -0.1110 -0.4444  0.1105
  134OSM    H6F14558   1.724   1.639   7.695 -0.0099 -1.0314  1.6971
  134OSM    H6G14559   1.558   1.564   7.722  3.2922 -2.3390  2.5240
  134OSM    C7F14560   1.588   1.753   7.819 -0.4744 -0.5214 -0.5168
  134OSM    H7F14561   1.484   1.792   7.822 -1.4254 -2.9717  0.6129
  134OSM    H7G14562   1.645   1.848   7.803 -1.3910  0.7384  2.9371
  134OSM    C8F14563   1.625   1.704   7.957  0.0672  0.2070  0.6020
  134OSM    H8F14564   1.628   1.795   8.020  1.2511 -0.5345  1.6654
  134OSM    H8G14565   1.731   1.669   7.962  0.3599  0.9848  0.1738
  134OSM    C9F14566   1.528   1.601   8.011  0.0740 -0.2381  0.0085
  134OSM    H9F14567   1.516   1.512   7.949  2.2055 -1.4991  1.2789
  134OSM   C10F14568   1.461   1.607   8.125  0.6056 -0.3340  0.6238
  134OSM   H10F14569   1.386   1.535   8.162  0.0196 -0.2622 -0.3811
  134OSM   C11F14570   1.477   1.728   8.213 -0.0161  0.3076  0.0149
  134OSM   H11F14571   1.384   1.756   8.268 -0.2773 -0.5493  0.0237
  134OSM   H11G14572   1.496   1.821   8.156  1.1039  1.9632  2.8724
  134OSM   C12F14573   1.592   1.714   8.311 -0.2735  0.0988 -0.6414
  134OSM   H12F14574   1.615   1.811   8.360 -0.6095  1.4699 -3.0587
  134OSM   H12G14575   1.681   1.708   8.245  0.2642 -3.7503  0.2165
  134OSM   C13F14576   1.595   1.594   8.410 -0.4258  0.3551 -0.7406
  134OSM   H13F14577   1.700   1.568   8.438  0.1031  1.1469 -1.8969
  134OSM   H13G14578   1.563   1.504   8.352  1.3806 -1.0456  0.3166
  134OSM   C14F14579   1.485   1.603   8.522 -0.9848  0.5505 -0.1729
  134OSM   H14F14580   1.392   1.649   8.482 -0.3043  1.1561 -1.0941
  134OSM   H14G14581   1.521   1.682   8.591  0.5370 -0.0145 -0.2727
  134OSM   C15F14582   1.454   1.466   8.584  0.4096  0.2950  0.3136
  134OSM   H15F14583   1.396   1.410   8.507  0.7485  0.4209 -0.0353
  134OSM   H15G14584   1.380   1.477   8.666  0.3754 -0.3052  0.3727
  134OSM   C16F14585   1.575   1.387   8.636 -0.2374 -0.4423 -0.4483
  134OSM   H16F14586   1.618   1.450   8.717  0.2349  2.4748 -2.7451
  134OSM   H16G14587   1.651   1.379   8.555 -0.6689 -1.8070 -0.7283
  134OSM   C17F14588   1.542   1.244   8.683 -0.4563  0.0749  0.4280
  134OSM   H17F14589   1.477   1.190   8.611  1.3108 -1.9372  0.2217
  134OSM   H17G14590   1.481   1.251   8.776  0.9495 -0.4128  1.4245
  134OSM   C18F14591   1.668   1.155   8.714  0.9125  0.2299  0.2362
  134OSM   H18F14592   1.700   1.179   8.818 -0.3196  0.9426  0.4771
  134OSM   H18G14593   1.754   1.175   8.646  0.7622 -1.9491 -0.6877
  134OSM   H18H14594   1.655   1.045   8.718  1.2626  0.1612 -0.4268
  135OSM      N14595   0.700   1.721   6.367  0.0914  1.0532 -0.0766
  135OSM    C1514596   0.631   1.820   6.282  0.0146 -0.6783  0.2597
  135OSM   H15A14597   0.583   1.781   6.194  0.1941  0.5686 -0.4212
  135OSM   H15B14598   0.710   1.875   6.231  1.9196 -1.2659  2.3950
  135OSM   H15C14599   0.553   1.872   6.334  2.7038  1.5362  2.3984
  135OSM    C1414600   0.599   1.621   6.403  0.7897 -0.4556 -0.0557
  135OSM   H14A14601   0.599   1.548   6.324 -0.0177  1.9176 -2.3975
  135OSM   H14B14602   0.505   1.668   6.427  0.2799 -2.0123  1.1486
  135OSM   H14C14603   0.634   1.564   6.488 -1.7342 -0.8259  0.8181
  135OSM    C1314604   0.801   1.641   6.302  0.2388 -0.1662  0.3025
  135OSM   H13A14605   0.764   1.569   6.231  2.3135 -1.6074  0.5718
  135OSM   H13B14606   0.853   1.582   6.376  0.1051 -0.9954 -0.2636
  135OSM   H13C14607   0.877   1.705   6.259 -0.1840  0.2377  0.1423
  135OSM    C1214608   0.757   1.798   6.484 -0.5537  0.6045 -0.2080
  135OSM   H12A14609   0.674   1.842   6.538  0.3453  3.9973 -1.3127
  135OSM   H12B14610   0.814   1.884   6.450 -1.9110  1.5463 -0.1913
  135OSM    C1114611   0.845   1.710   6.581  0.3903 -0.4918 -0.7886
  135OSM   H11A14612   0.779   1.621   6.594 -0.6107  0.3534  0.1730
  135OSM   H11B14613   0.854   1.765   6.677  2.6095 -1.8518 -0.1458
  135OSM      P14614   1.089   1.771   6.528 -0.0439  0.3917 -0.2690
  135OSM    O1314615   1.219   1.703   6.495 -0.0465  0.2270  0.5463
  135OSM    O1414616   1.055   1.892   6.461 -0.2731  0.4569 -0.1760
  135OSM    O1114617   1.087   1.802   6.683 -0.3289  0.4760 -1.0240
  135OSM    O1214618   0.968   1.672   6.521  0.6005  0.9198  0.1817
  135OSM    C1S14619   1.201   1.814   6.769  0.1221 -0.4767 -0.1784
  135OSM    H1S14620   1.272   1.885   6.723 -1.6640  1.6611  0.1881
  135OSM    H1T14621   1.264   1.722   6.766 -0.5311 -0.9249 -0.4251
  135OSM     NF14622   1.284   1.876   6.994 -0.0829  0.3031 -0.2700
  135OSM    HNF14623   1.335   1.800   7.034  1.5567  1.1030 -0.7572
  135OSM    C2S14624   1.166   1.832   6.919  0.0698  0.4939 -0.1564
  135OSM    H2S14625   1.087   1.910   6.924  0.7255  1.1953 -0.6171
  135OSM    C3S14626   1.102   1.703   6.976  0.2998 -0.8043  1.0014
  135OSM    H3S14627   1.173   1.618   6.965  1.7049  0.3033  1.0765
  135OSM     O314628   0.995   1.663   6.889 -0.7929 -0.1594  0.0605
  135OSM    HO314629   1.009   1.713   6.808 -2.2209 -0.4797 -0.4221
  135OSM    C4S14630   1.050   1.721   7.114  0.3541 -0.4150  0.7221
  135OSM    H4S14631   0.948   1.763   7.111  0.4695 -0.1835 -0.1858
  135OSM    C5S14632   1.095   1.683   7.234 -0.0910 -0.4206 -0.4751
  135OSM    H5S14633   1.189   1.625   7.233  0.3962  0.3709 -1.0091
  135OSM    C6S14634   1.033   1.714   7.362 -0.0404  0.4865 -0.4612
  135OSM    H6S14635   1.002   1.615   7.402 -0.6053  0.7421 -0.2525
  135OSM    H6T14636   0.940   1.775   7.356  0.0170  0.5388 -0.8874
  135OSM    C7S14637   1.119   1.767   7.470 -0.9084  0.0100 -0.0619
  135OSM    H7S14638   1.154   1.871   7.457  1.4665 -0.7025  0.1586
  135OSM    H7T14639   1.214   1.710   7.478  0.1531  1.8963  1.7169
  135OSM    C8S14640   1.048   1.755   7.614  0.2455  0.3362  0.6760
  135OSM    H8S14641   1.038   1.645   7.626  3.4414  0.0263  1.1928
  135OSM    H8T14642   0.944   1.795   7.615 -0.0822 -0.5004  1.1868
  135OSM    C9S14643   1.141   1.804   7.728 -0.3531 -0.2511  0.1921
  135OSM    H9S14644   1.159   1.912   7.709 -3.2616  0.3235  0.2026
  135OSM    H9T14645   1.239   1.751   7.724 -1.0737 -1.5815 -1.4893
  135OSM   C10S14646   1.076   1.805   7.861  0.4523 -0.2733 -0.6345
  135OSM   H10S14647   1.057   1.697   7.874 -1.4738  0.1231  0.1448
  135OSM   H10T14648   0.973   1.848   7.864  0.9397  1.0309 -1.5861
  135OSM   C11S14649   1.158   1.864   7.973  0.2234  0.2202  0.3256
  135OSM   H11S14650   1.220   1.936   7.915  0.8584 -1.0324 -0.6350
  135OSM   H11T14651   1.227   1.785   8.010  0.1959 -1.0399 -2.1137
  135OSM   C12S14652   1.063   1.920   8.079 -0.5239  0.5149  0.2685
  135OSM   H12S14653   0.983   1.849   8.110  1.1751 -0.7201  1.9708
  135OSM   H12T14654   1.017   2.011   8.035  0.6148  0.3651 -1.3183
  135OSM   C13S14655   1.141   1.962   8.205  0.3497  0.0764  0.4548
  135OSM   H13S14656   1.156   1.879   8.278 -2.8989  0.9714  2.3713
  135OSM   H13T14657   1.071   2.020   8.270 -0.4862 -1.0502  0.5865
  135OSM   C14S14658   1.275   2.042   8.189  0.2920  0.3077  0.4439
  135OSM   H14S14659   1.253   2.114   8.107 -2.8018 -1.4274 -0.4579
  135OSM   H14T14660   1.359   1.976   8.157  1.1238 -0.7887  4.3828
  135OSM   C15S14661   1.309   2.126   8.310  0.2292  0.0686  0.2062
  135OSM   H15S14662   1.233   2.199   8.346  0.4173 -0.4908  1.8215
  135OSM   H15T14663   1.402   2.183   8.290  1.2571 -1.0581  1.5552
  135OSM   C16S14664   1.325   2.037   8.435 -0.1196  0.3695 -0.8026
  135OSM   H16S14665   1.376   1.947   8.396  3.1421  1.1906  1.1463
  135OSM   H16T14666   1.223   2.024   8.479 -0.5897  2.2648 -1.2258
  135OSM   C17S14667   1.407   2.094   8.550 -0.2724  0.4480  0.2659
  135OSM   H17S14668   1.366   2.197   8.560 -0.9196  0.2284 -0.0931
  135OSM   H17T14669   1.517   2.095   8.531  0.6335  0.2504  4.4584
  135OSM   C18S14670   1.397   2.014   8.691  0.6155  0.1100 -0.1155
  135OSM   H18S14671   1.470   1.930   8.692  1.6088  0.9605  0.5849
  135OSM   H18T14672   1.296   1.973   8.713  0.9029 -1.4226 -1.4111
  135OSM   H18U14673   1.431   2.090   8.764 -0.5253  0.0741  0.4742
  135OSM    C1F14674   1.338   1.994   6.994  0.6721 -0.1297 -0.0150
  135OSM     OF14675   1.281   2.099   6.951  0.3106  0.0599  0.0990
  135OSM    C2F14676   1.478   2.005   7.044 -0.0613  0.3226  0.5641
  135OSM    H2F14677   1.536   2.001   6.949 -1.7846  3.2288 -0.7624
  135OSM    H2G14678   1.500   1.916   7.106  1.5400 -0.7856 -1.4807
  135OSM    C3F14679   1.500   2.136   7.115 -0.3724  0.0998 -0.3224
  135OSM    H3F14680   1.473   2.226   7.055 -1.1853  0.5267  0.6584
  135OSM    H3G14681   1.608   2.131   7.141 -0.6910  0.0440  1.0243
  135OSM    C4F14682   1.432   2.144   7.256 -0.0795 -0.5859  0.0505
  135OSM    H4F14683   1.440   2.047   7.309 -1.8392  0.8791  3.3110
  135OSM    H4G14684   1.324   2.143   7.229 -0.1240  0.3660  0.1481
  135OSM    C5F14685   1.477   2.269   7.339  0.7481  0.1912  0.2923
  135OSM    H5F14686   1.432   2.359   7.293 -2.1337 -2.1066 -1.8236
  135OSM    H5G14687   1.586   2.289   7.338  0.7470  0.1973  0.2369
  135OSM    C6F14688   1.439   2.261   7.491 -0.6121 -0.1080 -0.5147
  135OSM    H6F14689   1.331   2.234   7.501 -0.1663 -1.7645  0.2402
  135OSM    H6G14690   1.445   2.362   7.536 -2.2749 -0.1426 -0.1494
  135OSM    C7F14691   1.519   2.170   7.581 -0.2686  0.8561 -0.3807
  135OSM    H7F14692   1.627   2.193   7.596 -0.7277  2.4235  0.7627
  135OSM    H7G14693   1.518   2.070   7.534 -1.5821 -1.1274  3.3972
  135OSM    C8F14694   1.454   2.140   7.721 -0.4835 -0.9717 -1.3551
  135OSM    H8F14695   1.490   2.042   7.759 -0.6762 -1.1937 -1.7440
  135OSM    H8G14696   1.343   2.128   7.717 -1.2351  1.2598  3.8934
  135OSM    C9F14697   1.482   2.245   7.828  0.2718 -0.6914  0.1416
  135OSM    H9F14698   1.432   2.341   7.809  0.0074 -0.8287  0.1346
  135OSM   C10F14699   1.570   2.244   7.932  0.9837 -0.2405 -0.1202
  135OSM   H10F14700   1.589   2.336   7.990 -1.2206 -0.0440  0.3981
  135OSM   C11F14701   1.662   2.130   7.964 -0.5282 -1.3961  0.3198
  135OSM   H11F14702   1.764   2.156   7.930 -1.7727  2.5833 -0.9053
  135OSM   H11G14703   1.635   2.039   7.905  0.9031 -1.1956 -0.6947
  135OSM   C12F14704   1.665   2.089   8.115  0.1680  0.2510 -0.2093
  135OSM   H12F14705   1.708   1.987   8.116 -1.8888 -0.6442 -0.1149
  135OSM   H12G14706   1.562   2.073   8.152 -0.1740 -0.1435 -1.2941
  135OSM   C13F14707   1.743   2.177   8.203 -0.2375 -0.4216 -0.0396
  135OSM   H13F14708   1.682   2.261   8.242 -0.8282 -0.2522 -1.2653
  135OSM   H13G14709   1.827   2.221   8.146  0.2240  0.3665  1.2102
  135OSM   C14F14710   1.807   2.106   8.321 -0.4166  0.1844 -0.2745
  135OSM   H14F14711   1.859   2.019   8.276 -1.5298 -0.2092 -0.8508
  135OSM   H14G14712   1.720   2.073   8.382 -1.5814  1.5467 -1.1479
  135OSM   C15F14713   1.904   2.192   8.394 -0.0062  0.1471 -0.2718
  135OSM   H15F14714   1.983   2.221   8.322  0.9698 -0.1115  0.6531
  135OSM   H15G14715   1.952   2.124   8.468 -0.4026  0.2109  0.0497
  135OSM   C16F14716   1.843   2.314   8.455  0.7191  0.5168 -0.4763
  135OSM   H16F14717   1.741   2.275   8.477  0.7939  1.3540  1.5083
  135OSM   H16G14718   1.826   2.389   8.374  1.3514  2.4402  1.0935
  135OSM   C17F14719   1.901   2.355   8.587 -0.3418 -0.4581 -0.9951
  135OSM   H17F14720   1.978   2.284   8.625  1.8668  2.2845  0.0780
  135OSM   H17G14721   1.817   2.351   8.659 -1.8692  1.7832 -2.5127
  135OSM   C18F14722   1.953   2.497   8.591  0.4771  0.8384  0.7884
  135OSM   H18F14723   1.972   2.542   8.691  2.3407  0.3895  0.6880
  135OSM   H18G14724   1.894   2.564   8.525  0.0479 -0.4299 -0.1544
  135OSM   H18H14725   2.054   2.499   8.544  0.1796  0.4644  0.1225
  136OSM      N14726   5.304   2.167   5.907 -0.9009  0.1308 -0.4569
  136OSM    C1514727   5.226   2.077   5.810  0.1246 -0.3254 -0.8361
  136OSM   H15A14728   5.130   2.055   5.854  0.7505  0.5561  1.0976
  136OSM   H15B14729   5.285   1.988   5.790  1.8645  0.3740  0.8728
  136OSM   H15C14730   5.220   2.130   5.717 -0.1301 -1.3966 -1.4530
  136OSM    C1414731   5.444   2.189   5.854 -0.0892  0.1862  0.5512
  136OSM   H14A14732   5.505   2.100   5.852 -0.4879 -0.1247 -2.6264
  136OSM   H14B14733   5.507   2.255   5.912  1.7575 -1.8158  0.9583
  136OSM   H14C14734   5.461   2.230   5.756  0.2367  0.3862  0.6869
  136OSM    C1314735   5.240   2.307   5.913 -0.5502  0.1388  0.5916
  136OSM   H13A14736   5.246   2.347   5.813  0.1190  2.4619  1.4959
  136OSM   H13B14737   5.290   2.377   5.978  1.1047 -0.0221 -0.4725
  136OSM   H13C14738   5.132   2.301   5.923 -0.6726 -1.3500 -1.1114
  136OSM    C1214739   5.310   2.116   6.045  0.0087  0.2663 -0.4255
  136OSM   H12A14740   5.349   2.016   6.046 -0.6155  0.0249  0.6387
  136OSM   H12B14741   5.208   2.101   6.076  0.0179 -2.2678 -1.3936
  136OSM    C1114742   5.376   2.204   6.159  0.2045 -0.1670 -0.4192
  136OSM   H11A14743   5.364   2.146   6.253  4.0752 -0.4128  0.0585
  136OSM   H11B14744   5.326   2.303   6.173  1.4541  0.3471  0.7261
  136OSM      P14745   5.582   2.369   6.162  0.1143  0.0345  0.1360
  136OSM    O1314746   5.719   2.343   6.118  0.2074  0.0483 -0.0139
  136OSM    O1414747   5.510   2.472   6.092  0.6227  0.4836  0.4212
  136OSM    O1114748   5.555   2.395   6.313 -0.7514  0.0411 -0.1461
  136OSM    O1214749   5.514   2.232   6.146 -0.3977  0.3396 -0.2733
  136OSM    C1S14750   5.628   2.333   6.416 -0.0988  0.4219  0.5079
  136OSM    H1S14751   5.737   2.339   6.400 -0.1518 -1.9699 -1.2575
  136OSM    H1T14752   5.613   2.223   6.410 -0.5875  0.4672  0.7892
  136OSM     NF14753   5.677   2.360   6.666 -0.2303 -0.1935  0.0955
  136OSM    HNF14754   5.630   2.291   6.721 -0.8574  0.9139  0.9847
  136OSM    C2S14755   5.594   2.409   6.557 -0.3569  0.1794  0.5508
  136OSM    H2S14756   5.614   2.515   6.531 -2.1732  0.0511 -1.6226
  136OSM    C3S14757   5.442   2.394   6.586 -0.0841  0.2070 -0.2052
  136OSM    H3S14758   5.412   2.287   6.583 -1.2742  0.4497  1.3252
  136OSM     O314759   5.363   2.470   6.492 -0.7893 -0.0514  0.0080
  136OSM    HO314760   5.417   2.477   6.413 -1.1889  1.7441 -0.1277
  136OSM    C4S14761   5.399   2.450   6.717 -0.3030 -0.1683 -1.1546
  136OSM    H4S14762   5.408   2.560   6.722 -1.1732 -0.1624  1.3449
  136OSM    C5S14763   5.351   2.388   6.829 -0.0481  0.2328  0.2025
  136OSM    H5S14764   5.343   2.279   6.822  0.1745  0.2629 -0.4928
  136OSM    C6S14765   5.306   2.436   6.963  0.3730 -1.0149 -0.4568
  136OSM    H6S14766   5.203   2.406   6.992  0.8893 -1.9141  0.5535
  136OSM    H6T14767   5.306   2.547   6.960 -1.1961 -0.9708  0.0823
  136OSM    C7S14768   5.390   2.394   7.087  1.1496 -0.7531 -0.1339
  136OSM    H7S14769   5.488   2.446   7.086  0.1399  1.4616  2.7039
  136OSM    H7T14770   5.394   2.283   7.093 -1.0220 -0.8790 -0.2713
  136OSM    C8S14771   5.334   2.452   7.217  0.6570 -0.0082  0.2997
  136OSM    H8S14772   5.235   2.407   7.238  2.2521 -3.5753  0.8899
  136OSM    H8T14773   5.317   2.562   7.214 -0.9302 -0.2012  1.1820
  136OSM    C9S14774   5.428   2.428   7.325 -0.6902  0.7374  0.3545
  136OSM    H9S14775   5.537   2.445   7.312 -0.4490 -1.0120 -0.3140
  136OSM    H9T14776   5.428   2.317   7.329 -1.2857  0.7762  1.7593
  136OSM   C10S14777   5.379   2.476   7.460 -0.6453 -0.5523  0.2305
  136OSM   H10S14778   5.281   2.427   7.478 -0.1502 -0.9144  2.1890
  136OSM   H10T14779   5.367   2.585   7.445  1.8338 -0.4907 -2.0371
  136OSM   C11S14780   5.480   2.445   7.572  0.1671  0.0563  0.9737
  136OSM   H11S14781   5.574   2.495   7.541 -0.6903  1.3895  0.3962
  136OSM   H11T14782   5.498   2.335   7.570 -0.1416  0.0102  0.5926
  136OSM   C12S14783   5.452   2.495   7.712  0.7197 -0.1824  0.2808
  136OSM   H12S14784   5.398   2.591   7.727  1.3411  0.0215  1.2975
  136OSM   H12T14785   5.549   2.508   7.765  0.4616 -2.4194  1.4381
  136OSM   C13S14786   5.375   2.391   7.796  0.2247 -0.0659  0.7736
  136OSM   H13S14787   5.434   2.299   7.811 -0.1820 -0.5019 -0.2250
  136OSM   H13T14788   5.284   2.378   7.733  0.6836  0.5458 -0.0355
  136OSM   C14S14789   5.332   2.442   7.939 -0.4385  0.1010  0.3308
  136OSM   H14S14790   5.311   2.345   7.989  1.0255 -0.8273 -0.7898
  136OSM   H14T14791   5.242   2.507   7.934 -0.3143  0.3399  1.0947
  136OSM   C15S14792   5.444   2.506   8.017 -0.0071  0.9901 -0.0520
  136OSM   H15S14793   5.452   2.608   7.975  1.0791 -0.1127 -2.8071
  136OSM   H15T14794   5.537   2.445   8.010 -1.2667 -1.3699  2.1193
  136OSM   C16S14795   5.435   2.502   8.166 -0.3970 -0.0874 -0.7301
  136OSM   H16S14796   5.445   2.400   8.208  0.6865 -0.3384 -1.5411
  136OSM   H16T14797   5.337   2.537   8.204  0.2032  1.4654 -0.5180
  136OSM   C17S14798   5.558   2.586   8.223 -0.0750  0.1009  0.5335
  136OSM   H17S14799   5.536   2.692   8.198  0.1102  0.2603  1.0374
  136OSM   H17T14800   5.652   2.551   8.177 -0.5407 -1.8571  0.9693
  136OSM   C18S14801   5.559   2.586   8.374 -0.6190  0.8795 -0.0264
  136OSM   H18S14802   5.457   2.585   8.417 -1.0460 -0.9544 -0.9698
  136OSM   H18T14803   5.600   2.683   8.408  1.0366  0.1785  0.0699
  136OSM   H18U14804   5.607   2.493   8.411  2.1589  1.7805 -1.0850
  136OSM    C1F14805   5.804   2.395   6.687 -0.4761  0.1868  0.0280
  136OSM     OF14806   5.860   2.482   6.610 -0.3150  0.4553  0.0318
  136OSM    C2F14807   5.879   2.340   6.794  0.1683 -1.0732  0.1089
  136OSM    H2F14808   5.940   2.421   6.839  0.0936  0.4415 -2.3559
  136OSM    H2G14809   5.956   2.264   6.768  0.3907 -0.8157  0.0137
  136OSM    C3F14810   5.795   2.266   6.905  0.0789  0.5968  0.5432
  136OSM    H3F14811   5.718   2.200   6.858  1.1493 -0.4526  0.2139
  136OSM    H3G14812   5.749   2.348   6.964  0.5001  1.2985 -0.0879
  136OSM    C4F14813   5.884   2.187   7.003  0.1048  0.4491  0.4222
  136OSM    H4F14814   5.985   2.153   6.970 -0.0318  1.6182 -1.3203
  136OSM    H4G14815   5.834   2.100   7.050  1.2444 -0.5054 -0.0711
  136OSM    C5F14816   5.918   2.273   7.127 -0.2331 -0.2596  0.2633
  136OSM    H5F14817   5.968   2.369   7.103  2.3899 -0.5599  3.8195
  136OSM    H5G14818   5.999   2.219   7.179  0.3882 -0.6058 -1.0282
  136OSM    C6F14819   5.803   2.290   7.216  0.1943  0.4160 -0.5012
  136OSM    H6F14820   5.753   2.197   7.250  0.5601 -0.0310 -1.1632
  136OSM    H6G14821   5.722   2.345   7.163 -1.1309 -0.0613  0.9262
  136OSM    C7F14822   5.830   2.379   7.340  0.1745  0.0052 -0.1287
  136OSM    H7F14823   5.734   2.421   7.378  0.0659  0.0471 -0.4452
  136OSM    H7G14824   5.875   2.475   7.309 -1.0333  0.0896 -1.7433
  136OSM    C8F14825   5.920   2.329   7.455  0.6496  0.4852 -0.3863
  136OSM    H8F14826   5.927   2.413   7.526 -0.4540  1.2708 -1.1735
  136OSM    H8G14827   6.018   2.298   7.411 -0.4260 -3.1931 -0.5128
  136OSM    C9F14828   5.848   2.221   7.524 -0.4054 -0.0316  0.2417
  136OSM    H9F14829   5.804   2.136   7.470  0.8644 -0.5952  0.0471
  136OSM   C10F14830   5.843   2.205   7.656  0.7597  0.0558 -0.2299
  136OSM   H10F14831   5.797   2.114   7.696  1.7120 -0.0722  0.6125
  136OSM   C11F14832   5.890   2.304   7.762  0.2823  0.0315  0.4235
  136OSM   H11F14833   5.842   2.404   7.753 -2.2589 -1.0057  1.6713
  136OSM   H11G14834   5.998   2.319   7.741  0.1932 -1.8301 -1.7934
  136OSM   C12F14835   5.866   2.255   7.908 -0.1933  0.3381  0.5553
  136OSM   H12F14836   5.950   2.185   7.930 -1.3988 -2.2528 -2.4023
  136OSM   H12G14837   5.771   2.201   7.924 -0.1066  0.1946  0.5829
  136OSM   C13F14838   5.884   2.372   8.009  0.4307 -0.4372  0.6436
  136OSM   H13F14839   5.797   2.441   7.998  0.5818 -0.6519 -3.1265
  136OSM   H13G14840   5.970   2.433   7.976  0.7796  0.2864  2.7258
  136OSM   C14F14841   5.900   2.329   8.152  0.4541 -0.3073 -0.3286
  136OSM   H14F14842   5.957   2.233   8.156 -0.3788 -0.7561  1.2878
  136OSM   H14G14843   5.804   2.312   8.205  1.6967 -1.7247  1.6149
  136OSM   C15F14844   5.975   2.435   8.232  0.3178  0.7789  0.2068
  136OSM   H15F14845   5.911   2.525   8.222 -1.0029 -0.2154 -0.7356
  136OSM   H15G14846   6.064   2.467   8.174 -1.0752  0.8223 -2.0358
  136OSM   C16F14847   6.015   2.385   8.371 -0.1896  0.0366  0.5231
  136OSM   H16F14848   6.084   2.463   8.408  0.1394  0.6225 -1.2308
  136OSM   H16G14849   6.078   2.294   8.356 -1.3627 -0.4114 -2.3157
  136OSM   C17F14850   5.892   2.356   8.456  0.0482  0.2649  0.0091
  136OSM   H17F14851   5.824   2.282   8.411 -2.8681  2.0528  1.1701
  136OSM   H17G14852   5.833   2.451   8.461  1.1870  0.9269  2.0167
  136OSM   C18F14853   5.916   2.325   8.608  0.0171  0.5104  0.5872
  136OSM   H18F14854   5.975   2.411   8.648 -1.2423  1.5031  0.3923
  136OSM   H18G14855   5.986   2.240   8.619  0.9377  0.9980 -1.1330
  136OSM   H18H14856   5.822   2.318   8.667  1.5774 -0.3605  3.1214
  137OSM      N14857   2.995   1.336   6.338 -0.4004  0.3083 -0.0530
  137OSM    C1514858   2.930   1.284   6.211 -0.1684 -0.1823 -0.1521
  137OSM   H15A14859   2.999   1.300   6.129 -0.3373  1.1873 -0.0453
  137OSM   H15B14860   2.844   1.339   6.174  1.4267  1.9271 -0.8956
  137OSM   H15C14861   2.903   1.179   6.217 -0.0256 -0.2079  0.0360
  137OSM    C1414862   3.123   1.276   6.371  0.3860  0.6079  0.0942
  137OSM   H14A14863   3.161   1.333   6.454 -1.4112  0.1732  1.2723
  137OSM   H14B14864   3.197   1.285   6.292  1.0015 -0.0371  0.5772
  137OSM   H14C14865   3.102   1.172   6.392 -2.1246  1.1264  0.4551
  137OSM    C1314866   3.022   1.482   6.310 -0.5753 -0.7736 -0.0973
  137OSM   H13A14867   3.008   1.528   6.407 -1.1495 -1.1994  0.0224
  137OSM   H13B14868   2.948   1.516   6.240 -0.8033 -1.6443 -0.2816
  137OSM   H13C14869   3.125   1.487   6.276 -0.2611 -0.9619  0.7967
  137OSM    C1214870   2.897   1.316   6.453  0.0758  0.5444  0.1668
  137OSM   H12A14871   2.887   1.210   6.471  1.4531  0.4237  0.2927
  137OSM   H12B14872   2.796   1.343   6.425 -0.1812  1.7511  2.0397
  137OSM    C1114873   2.920   1.380   6.596 -0.0350  0.2991  0.3908
  137OSM   H11A14874   2.999   1.333   6.658  0.9634  2.0500  0.5289
  137OSM   H11B14875   2.831   1.363   6.659  0.8138 -0.0042  1.5435
  137OSM      P14876   2.846   1.628   6.604 -0.2392  0.0586  0.3840
  137OSM    O1314877   2.909   1.759   6.624  0.7081 -0.4491 -0.8903
  137OSM    O1414878   2.750   1.615   6.496  0.2779 -0.1060  0.2095
  137OSM    O1114879   2.787   1.598   6.748  0.2226  0.1403  0.1659
  137OSM    O1214880   2.959   1.516   6.590 -0.2818  0.2758  0.4133
  137OSM    C1S14881   2.871   1.608   6.865 -0.5827 -0.3372  0.4053
  137OSM    H1S14882   2.949   1.687   6.864  0.9622 -1.8051 -1.7905
  137OSM    H1T14883   2.924   1.511   6.875 -1.5074 -0.8154  0.8207
  137OSM     NF14884   2.857   1.688   7.097  0.3927  0.3353 -0.1369
  137OSM    HNF14885   2.870   1.629   7.177  0.6722 -0.4379 -0.7429
  137OSM    C2S14886   2.782   1.630   6.990  0.1416 -0.0578 -0.5121
  137OSM    H2S14887   2.700   1.697   6.956 -0.7867 -1.9816 -2.2578
  137OSM    C3S14888   2.711   1.499   7.027 -0.9223  0.2072 -0.2393
  137OSM    H3S14889   2.791   1.428   7.059  0.0548  1.9347  1.3795
  137OSM     O314890   2.647   1.425   6.923  0.0454 -0.1830 -0.0067
  137OSM    HO314891   2.657   1.471   6.840  2.8773 -0.5981  0.0193
  137OSM    C4S14892   2.613   1.518   7.143  0.2669  0.3783 -0.1147
  137OSM    H4S14893   2.661   1.482   7.236 -0.1794  1.4643  0.5551
  137OSM    C5S14894   2.478   1.555   7.157 -0.3430  0.6598  0.6133
  137OSM    H5S14895   2.417   1.555   7.065 -1.4207 -2.1600  1.2133
  137OSM    C6S14896   2.392   1.573   7.275 -0.0414  0.4802 -0.0874
  137OSM    H6S14897   2.318   1.491   7.265  1.6242 -1.0418 -0.5361
  137OSM    H6T14898   2.344   1.672   7.267  1.4758  1.2100 -0.5061
  137OSM    C7S14899   2.464   1.567   7.407 -0.9819 -0.0282 -0.5305
  137OSM    H7S14900   2.561   1.621   7.402 -0.6794 -0.2923  1.5436
  137OSM    H7T14901   2.489   1.462   7.435 -0.1299 -0.0776 -1.4140
  137OSM    C8S14902   2.377   1.601   7.531  0.2357  0.4965  0.8456
  137OSM    H8S14903   2.291   1.531   7.535  0.2037  0.3271 -1.4627
  137OSM    H8T14904   2.337   1.705   7.532  1.5082  1.0451 -0.9221
  137OSM    C9S14905   2.471   1.585   7.646 -1.0343 -0.3747 -0.3748
  137OSM    H9S14906   2.559   1.652   7.646 -1.9085  0.8334  1.0810
  137OSM    H9T14907   2.507   1.480   7.652  2.0409  0.6294  0.3676
  137OSM   C10S14908   2.396   1.613   7.778  0.5253  0.1914 -1.1619
  137OSM   H10S14909   2.314   1.538   7.779  1.4276 -0.8620  1.0978
  137OSM   H10T14910   2.349   1.714   7.775  1.3385  0.6254  0.0998
  137OSM   C11S14911   2.481   1.609   7.905  0.3289 -0.0282 -0.9994
  137OSM   H11S14912   2.565   1.679   7.890  0.0197 -0.0384 -2.9662
  137OSM   H11T14913   2.527   1.508   7.897 -2.0246 -1.0476 -2.9491
  137OSM   C12S14914   2.398   1.647   8.021  0.4685 -0.8078 -0.2913
  137OSM   H12S14915   2.307   1.584   8.013 -0.1424  0.0857 -0.5387
  137OSM   H12T14916   2.380   1.756   8.016 -0.9412 -0.9643  0.8774
  137OSM   C13S14917   2.462   1.618   8.160  0.1056 -0.6263  0.1869
  137OSM   H13S14918   2.563   1.664   8.165  0.8198 -2.1502  0.3444
  137OSM   H13T14919   2.474   1.507   8.165 -3.1281 -1.0975 -0.5722
  137OSM   C14S14920   2.379   1.672   8.277  0.2146 -0.5591  0.4154
  137OSM   H14S14921   2.292   1.606   8.299  0.3111 -0.4316  1.2005
  137OSM   H14T14922   2.322   1.761   8.242  0.6640 -1.2986 -2.4688
  137OSM   C15S14923   2.461   1.702   8.394 -0.5013  0.4895 -0.2027
  137OSM   H15S14924   2.542   1.777   8.380 -0.7196  0.7215 -0.2429
  137OSM   H15T14925   2.511   1.607   8.421  1.2102  1.3217 -0.2636
  137OSM   C16S14926   2.377   1.732   8.523  0.2830  0.5303 -0.4999
  137OSM   H16S14927   2.312   1.644   8.541  0.6904  0.4899  0.8964
  137OSM   H16T14928   2.315   1.821   8.499  0.1072  0.2027 -1.2854
  137OSM   C17S14929   2.456   1.779   8.651 -0.1979 -0.3189 -0.2187
  137OSM   H17S14930   2.533   1.859   8.641 -1.3962  0.7682 -1.1049
  137OSM   H17T14931   2.513   1.688   8.678  1.2630  0.9733  1.2557
  137OSM   C18S14932   2.357   1.815   8.760 -0.4967 -0.6034  0.1909
  137OSM   H18S14933   2.268   1.749   8.753 -1.0179 -0.0964  1.6669
  137OSM   H18T14934   2.322   1.918   8.741 -0.6945 -0.3985  1.6063
  137OSM   H18U14935   2.405   1.804   8.860  4.9492 -1.2672 -2.0984
  137OSM    C1F14936   2.914   1.808   7.101  0.9369  0.0614  0.3095
  137OSM     OF14937   2.891   1.892   7.010 -0.4952 -0.3118 -0.5172
  137OSM    C2F14938   2.975   1.843   7.237  0.0897 -0.3336  0.2998
  137OSM    H2F14939   3.061   1.778   7.262 -0.3959 -1.9543 -1.9206
  137OSM    H2G14940   2.893   1.831   7.311  0.7020  0.8737  1.1964
  137OSM    C3F14941   3.036   1.988   7.232  0.0527 -0.2275 -0.5395
  137OSM    H3F14942   2.953   2.054   7.198 -1.6493 -0.1086  3.3071
  137OSM    H3G14943   3.113   1.982   7.152 -2.1919 -1.4864 -2.7437
  137OSM    C4F14944   3.108   2.031   7.359 -0.4423  0.0701  0.1195
  137OSM    H4F14945   3.151   2.133   7.349  0.9357 -0.5347 -0.4102
  137OSM    H4G14946   3.197   1.966   7.369  0.3747  1.2749  0.8327
  137OSM    C5F14947   3.021   2.033   7.493  0.0366  0.6401 -0.2558
  137OSM    H5F14948   2.975   1.933   7.507 -0.1724  0.7709 -0.0037
  137OSM    H5G14949   2.936   2.104   7.486 -1.3654 -1.0702 -1.4620
  137OSM    C6F14950   3.113   2.062   7.619  0.5721  0.3124 -0.3311
  137OSM    H6F14951   3.183   2.144   7.593  0.5017  0.2836 -0.6150
  137OSM    H6G14952   3.176   1.973   7.638 -3.9399 -3.5193 -1.2292
  137OSM    C7F14953   3.031   2.106   7.744 -0.3312 -0.1153  0.0766
  137OSM    H7F14954   2.963   2.020   7.763  0.1772 -0.4920  0.2130
  137OSM    H7G14955   2.983   2.204   7.722  1.8901  0.6185 -1.8644
  137OSM    C8F14956   3.126   2.130   7.864 -0.5215  0.4812  0.2736
  137OSM    H8F14957   3.210   2.188   7.822 -1.0517 -0.3692 -2.1722
  137OSM    H8G14958   3.171   2.033   7.893  0.9286  0.9583 -0.3029
  137OSM    C9F14959   3.051   2.188   7.982 -0.6789 -0.2252 -0.1908
  137OSM    H9F14960   2.991   2.117   8.040  1.2261 -0.4592  1.6022
  137OSM   C10F14961   3.068   2.314   8.028  0.2765 -0.3996  0.2884
  137OSM   H10F14962   3.029   2.345   8.126 -0.7720  2.6753 -1.0021
  137OSM   C11F14963   3.164   2.407   7.955 -0.3879  0.5574  0.0503
  137OSM   H11F14964   3.142   2.516   7.964  2.2776  1.2000 -0.4822
  137OSM   H11G14965   3.159   2.401   7.844  0.9997  5.6740 -0.5612
  137OSM   C12F14966   3.307   2.377   8.004  0.1797  0.2060 -0.3077
  137OSM   H12F14967   3.366   2.419   7.920  0.3463 -1.4424 -1.0605
  137OSM   H12G14968   3.312   2.266   8.006  0.5101  0.2130  1.7637
  137OSM   C13F14969   3.339   2.427   8.140  0.0663 -0.3908 -0.8348
  137OSM   H13F14970   3.436   2.384   8.172 -0.7808 -0.4179  1.9710
  137OSM   H13G14971   3.254   2.389   8.202 -0.5393 -0.9354 -1.9655
  137OSM   C14F14972   3.335   2.579   8.167  0.4323 -0.0133  0.4362
  137OSM   H14F14973   3.244   2.620   8.119  0.9475  0.5468 -0.0663
  137OSM   H14G14974   3.420   2.617   8.108  0.9507 -0.4990  0.8542
  137OSM   C15F14975   3.353   2.623   8.309 -0.3993  0.1178  0.2530
  137OSM   H15F14976   3.268   2.575   8.363 -1.0303 -2.2866 -2.6344
  137OSM   H15G14977   3.348   2.733   8.322  0.4665  0.0740  1.0664
  137OSM   C16F14978   3.493   2.570   8.357 -1.2529 -0.3535  0.2117
  137OSM   H16F14979   3.570   2.626   8.301  1.0191 -2.5329  0.9737
  137OSM   H16G14980   3.510   2.465   8.328  1.2491 -0.2153  0.9743
  137OSM   C17F14981   3.498   2.572   8.509  0.2066  0.5244  0.1813
  137OSM   H17F14982   3.439   2.484   8.543 -0.5266  1.6876  2.0482
  137OSM   H17G14983   3.442   2.659   8.549 -1.8696 -0.1125 -1.1766
  137OSM   C18F14984   3.632   2.571   8.579  0.0318  0.5023 -0.4695
  137OSM   H18F14985   3.694   2.646   8.527 -0.7474  1.5832  0.1121
  137OSM   H18G14986   3.680   2.471   8.588 -3.9153 -1.4371  2.4476
  137OSM   H18H14987   3.622   2.613   8.682 -0.2096  2.4170 -1.2245
  138OSM      N14988   2.422   3.220   6.395  0.1093  0.5403  0.3433
  138OSM    C1514989   2.372   3.330   6.476 -0.3125  0.5596  0.6649
  138OSM   H15A14990   2.450   3.396   6.513  1.4946  0.0538 -1.9448
  138OSM   H15B14991   2.326   3.294   6.567 -1.0019  1.5910  0.7504
  138OSM   H15C14992   2.296   3.384   6.421 -2.6234 -1.4994  1.6495
  138OSM    C1414993   2.308   3.154   6.324  0.4339 -0.0902  0.3539
  138OSM   H14A14994   2.231   3.122   6.393 -0.6661 -1.2631 -1.3490
  138OSM   H14B14995   2.330   3.059   6.277  0.0217  1.1997 -2.6844
  138OSM   H14C14996   2.260   3.225   6.258  1.2305 -0.3169 -0.4970
  138OSM    C1314997   2.516   3.272   6.294 -0.6471 -0.0077 -0.5069
  138OSM   H13A14998   2.564   3.188   6.245  0.8815  1.6888 -2.1002
  138OSM   H13B14999   2.593   3.336   6.334  1.0159 -1.4015 -1.3119
  138OSM   H13C15000   2.456   3.324   6.221 -3.0426 -2.7260 -0.6737
  138OSM    C1215001   2.495   3.117   6.486 -0.1300 -0.0981  0.0449
  138OSM   H12A15002   2.424   3.085   6.561  1.3179 -0.7890  1.1455
  138OSM   H12B15003   2.570   3.172   6.541 -0.2119  0.3663 -0.2940
  138OSM    C1115004   2.558   2.997   6.416  0.1230  0.0909 -0.3922
  138OSM   H11A15005   2.482   2.924   6.382  1.1118 -1.7600  1.1822
  138OSM   H11B15006   2.605   2.942   6.501  0.2927  0.8232 -0.0020
  138OSM      P15007   2.810   3.040   6.337  0.0001  0.1436 -0.3236
  138OSM    O1315008   2.878   2.948   6.245 -0.2073 -0.3111  0.3940
  138OSM    O1415009   2.848   3.185   6.331  0.1540  0.1618  0.3757
  138OSM    O1115010   2.832   2.980   6.482  0.5974  0.2344  0.4981
  138OSM    O1215011   2.658   3.022   6.318  0.2213 -0.6832 -0.0259
  138OSM    C1S15012   2.857   3.074   6.587 -0.1039  0.1487  0.2164
  138OSM    H1S15013   2.776   3.149   6.582  0.3016  0.6345  0.7442
  138OSM    H1T15014   2.952   3.127   6.567 -1.0788  0.8650 -3.0686
  138OSM     NF15015   2.848   3.124   6.822 -0.3162 -0.4087  0.4221
  138OSM    HNF15016   2.920   3.175   6.867 -0.1142 -0.8157  0.5690
  138OSM    C2S15017   2.868   3.014   6.730 -0.5135 -0.5636  0.1439
  138OSM    H2S15018   2.794   2.933   6.749 -3.0429  1.6536  0.4169
  138OSM    C3S15019   3.014   2.950   6.739  0.1422  0.1954 -0.0891
  138OSM    H3S15020   3.087   3.025   6.703  1.8280  0.1260  2.8112
  138OSM     O315021   3.033   2.845   6.649 -0.3080  0.4651 -0.3374
  138OSM    HO315022   2.960   2.869   6.591 -0.9599  2.1754  1.1033
  138OSM    C4S15023   3.051   2.914   6.884 -0.1947  0.0901  0.7776
  138OSM    H4S15024   3.103   3.000   6.928  0.5644  0.0613 -0.0365
  138OSM    C5S15025   3.050   2.791   6.938 -0.6232  0.2821 -0.2895
  138OSM    H5S15026   2.998   2.704   6.896 -1.4549 -0.1432  1.5363
  138OSM    C6S15027   3.099   2.751   7.076  0.1542  0.9222  0.3623
  138OSM    H6S15028   3.166   2.666   7.053 -3.1208 -1.4360 -1.3649
  138OSM    H6T15029   3.012   2.719   7.138  2.2052 -2.7745  1.6089
  138OSM    C7S15030   3.183   2.860   7.146  0.4476 -0.4652 -0.3951
  138OSM    H7S15031   3.140   2.962   7.141 -0.1343 -0.6809  0.1285
  138OSM    H7T15032   3.274   2.861   7.082 -0.3582  3.3341 -1.7056
  138OSM    C8S15033   3.224   2.835   7.288  0.1663  0.2354  0.0503
  138OSM    H8S15034   3.326   2.877   7.300  0.7298 -1.0227 -0.0982
  138OSM    H8T15035   3.230   2.725   7.304 -1.0515 -0.1616 -1.8425
  138OSM    C9S15036   3.121   2.897   7.392 -0.6069  0.0360  0.2923
  138OSM    H9S15037   3.041   2.820   7.385  0.4355 -1.1440  0.9749
  138OSM    H9T15038   3.084   2.998   7.364 -1.1076  0.0579  1.0106
  138OSM   C10S15039   3.170   2.913   7.534 -0.6157 -0.5127 -0.4847
  138OSM   H10S15040   3.253   2.985   7.549 -0.3596 -1.1529  1.4318
  138OSM   H10T15041   3.204   2.812   7.566 -0.3942 -0.5516 -0.8525
  138OSM   C11S15042   3.060   2.952   7.636 -0.5707  0.2541 -0.0210
  138OSM   H11S15043   2.986   2.872   7.658 -1.6412  1.2888  0.3028
  138OSM   H11T15044   2.998   3.038   7.601 -1.4517 -0.6953 -0.8612
  138OSM   C12S15045   3.127   2.974   7.770  0.1027 -0.0452  0.4933
  138OSM   H12S15046   3.204   3.054   7.766  1.0419 -0.7824  2.5127
  138OSM   H12T15047   3.182   2.881   7.798 -1.1481 -0.6343  1.0779
  138OSM   C13S15048   3.032   3.001   7.892  0.2107  0.2154  0.9843
  138OSM   H13S15049   2.960   2.918   7.905  0.6601 -0.0601  1.7686
  138OSM   H13T15050   2.989   3.101   7.869  0.2158 -0.0026 -0.0173
  138OSM   C14S15051   3.128   3.022   8.013  0.2687  0.1292  1.3227
  138OSM   H14S15052   3.170   3.125   8.012  0.4432  0.0890  2.7021
  138OSM   H14T15053   3.216   2.954   8.013  0.7686  0.7643  0.6089
  138OSM   C15S15054   3.064   3.003   8.145  0.2659 -0.0657 -1.0442
  138OSM   H15S15055   3.012   2.906   8.163  0.0244  0.4247  1.2465
  138OSM   H15T15056   2.994   3.090   8.145  0.6521  0.2833  0.5524
  138OSM   C16S15057   3.165   3.028   8.266  0.1199  0.0544  0.3398
  138OSM   H16S15058   3.218   3.119   8.232  0.7779 -0.4502 -0.0116
  138OSM   H16T15059   3.235   2.942   8.271  2.2188  1.7552  2.2301
  138OSM   C17S15060   3.101   3.036   8.397  0.1251  1.3732 -0.7139
  138OSM   H17S15061   3.043   2.947   8.429  2.5766  0.6946  2.3838
  138OSM   H17T15062   3.030   3.121   8.397 -0.7721  0.6463 -1.4752
  138OSM   C18S15063   3.210   3.044   8.510  0.3652 -0.3734  0.6129
  138OSM   H18S15064   3.300   2.981   8.492  1.9914  2.2325 -1.0121
  138OSM   H18T15065   3.168   3.022   8.610 -0.0555  1.3508  0.8524
  138OSM   H18U15066   3.248   3.149   8.513  0.8365 -0.4603 -1.0399
  138OSM    C1F15067   2.721   3.169   6.840  0.4866  0.3453 -0.6785
  138OSM     OF15068   2.626   3.125   6.777  0.2706  0.3719 -0.5620
  138OSM    C2F15069   2.709   3.264   6.956  0.6129  0.2920 -0.2729
  138OSM    H2F15070   2.767   3.352   6.921  1.7920 -0.1163  0.5771
  138OSM    H2G15071   2.752   3.213   7.045 -0.2667 -1.0390 -0.5810
  138OSM    C3F15072   2.570   3.325   6.984  0.2630 -1.2540 -0.0175
  138OSM    H3F15073   2.499   3.245   7.013 -0.1529 -0.9854 -0.2764
  138OSM    H3G15074   2.532   3.376   6.893 -0.3123  3.8031  2.6583
  138OSM    C4F15075   2.583   3.444   7.082 -0.3074  0.4564  0.0338
  138OSM    H4F15076   2.492   3.508   7.080  0.5948  1.7907 -0.0531
  138OSM    H4G15077   2.673   3.507   7.062 -0.7103  1.4172  1.1406
  138OSM    C5F15078   2.591   3.401   7.228 -0.3284  0.5330  0.0613
  138OSM    H5F15079   2.697   3.366   7.228 -0.2293  0.8161 -0.4156
  138OSM    H5G15080   2.521   3.320   7.258 -1.4630  2.3690  2.7971
  138OSM    C6F15081   2.554   3.518   7.324  0.4836 -0.3105  0.0341
  138OSM    H6F15082   2.443   3.529   7.333  0.7353  2.1551  0.8492
  138OSM    H6G15083   2.605   3.599   7.268  0.2979 -2.5719 -3.7314
  138OSM    C7F15084   2.625   3.509   7.463 -0.1493  0.4624  0.3589
  138OSM    H7F15085   2.735   3.508   7.446 -0.0230  1.3184  1.0449
  138OSM    H7G15086   2.608   3.406   7.499 -0.1173 -1.2855 -4.0299
  138OSM    C8F15087   2.581   3.607   7.565  0.4728  0.1374  0.2602
  138OSM    H8F15088   2.471   3.600   7.577  0.3812 -0.8945 -0.9783
  138OSM    H8G15089   2.603   3.708   7.523 -2.7168  0.7593 -0.1508
  138OSM    C9F15090   2.664   3.583   7.684 -0.0783 -0.3072  0.3668
  138OSM    H9F15091   2.770   3.606   7.667  0.5930 -3.4364 -0.4505
  138OSM   C10F15092   2.627   3.526   7.798  0.5502  0.6391 -0.3857
  138OSM   H10F15093   2.699   3.517   7.881 -0.3479  0.4269  0.3823
  138OSM   C11F15094   2.487   3.474   7.823  0.0197  1.0863  0.0357
  138OSM   H11F15095   2.489   3.369   7.859  0.0506  0.4923 -1.5841
  138OSM   H11G15096   2.447   3.443   7.723 -0.0099  0.3539  0.2664
  138OSM   C12F15097   2.392   3.558   7.902 -0.1583 -0.0573  0.0252
  138OSM   H12F15098   2.287   3.523   7.897  0.1799 -1.0673 -0.2151
  138OSM   H12G15099   2.395   3.657   7.851 -0.8582 -0.4695 -0.8576
  138OSM   C13F15100   2.434   3.588   8.051  0.5060 -0.6513 -0.1886
  138OSM   H13F15101   2.343   3.643   8.083  0.5530 -0.3222 -0.6101
  138OSM   H13G15102   2.522   3.654   8.067 -0.1421  0.0030  0.7894
  138OSM   C14F15103   2.438   3.456   8.129  0.6407 -0.1342 -0.3238
  138OSM   H14F15104   2.536   3.405   8.121  1.8191  1.8941  0.2371
  138OSM   H14G15105   2.359   3.386   8.096 -1.6933  0.6188  3.1619
  138OSM   C15F15106   2.392   3.489   8.274  0.5447  0.3720  0.2370
  138OSM   H15F15107   2.385   3.393   8.330  1.8065  0.5387  0.7233
  138OSM   H15G15108   2.293   3.538   8.285  0.0948 -0.6843  1.1219
  138OSM   C16F15109   2.487   3.576   8.352 -0.4257 -0.4716  0.0738
  138OSM   H16F15110   2.505   3.669   8.295 -1.2580 -0.2062  0.2413
  138OSM   H16G15111   2.589   3.533   8.339 -0.2237 -0.0348  0.1933
  138OSM   C17F15112   2.444   3.592   8.490 -0.0374 -0.4080  0.3092
  138OSM   H17F15113   2.420   3.498   8.544 -1.6745 -0.0902  0.1720
  138OSM   H17G15114   2.347   3.644   8.481  0.6887  1.1258  0.9976
  138OSM   C18F15115   2.533   3.672   8.586 -0.1673  0.5108  0.1714
  138OSM   H18F15116   2.523   3.616   8.681 -2.7177 -0.5528 -0.6437
  138OSM   H18G15117   2.486   3.768   8.616 -0.9360 -0.0199  0.6936
  138OSM   H18H15118   2.637   3.678   8.547  0.6653  0.3911  2.2385
  139OSM      N15119   0.941   3.071   5.973 -1.0280  0.0775  0.8803
  139OSM    C1515120   1.079   3.114   6.009  0.3844 -0.5265  0.1747
  139OSM   H15A15121   1.085   3.221   6.021  0.6258 -0.6243  0.9645
  139OSM   H15B15122   1.148   3.076   5.935 -0.7407 -1.8203 -0.2410
  139OSM   H15C15123   1.119   3.075   6.101  2.0455  0.6513  0.0021
  139OSM    C1415124   0.892   3.145   5.851 -0.0198 -0.3349  0.8247
  139OSM   H14A15125   0.848   3.241   5.873  1.7470  0.6632  0.2147
  139OSM   H14B15126   0.819   3.091   5.793 -0.5036  2.6005 -1.5739
  139OSM   H14C15127   0.974   3.178   5.789 -2.9653  1.8696 -2.3297
  139OSM    C1315128   0.952   2.927   5.938  0.3759 -0.4244 -0.1175
  139OSM   H13A15129   0.855   2.888   5.910 -0.2235  1.0333 -0.1540
  139OSM   H13B15130   0.979   2.872   6.028 -1.3205  2.9667  2.7213
  139OSM   H13C15131   1.021   2.911   5.857  0.2768 -1.5991  0.0155
  139OSM    C1215132   0.843   3.086   6.087 -0.4778 -0.0920 -0.1294
  139OSM   H12A15133   0.743   3.077   6.049 -0.2362  0.4001 -0.8852
  139OSM   H12B15134   0.851   3.191   6.112 -0.6555 -0.3850  1.2755
  139OSM    C1115135   0.859   2.997   6.215  0.2925  0.4465  1.2540
  139OSM   H11A15136   0.843   2.895   6.173 -2.1757  1.1204  0.4288
  139OSM   H11B15137   0.776   3.023   6.284 -0.0440 -0.6204  1.2667
  139OSM      P15138   1.019   3.126   6.382  0.1114 -0.0169  0.0508
  139OSM    O1315139   1.160   3.179   6.356  0.3980  0.1386  0.0340
  139OSM    O1415140   0.909   3.223   6.384  0.4084 -0.0591  0.3241
  139OSM    O1115141   1.008   3.032   6.517  0.0720  0.1270 -0.0823
  139OSM    O1215142   0.989   3.014   6.274  0.3300 -0.3739  0.9758
  139OSM    C1S15143   1.102   3.042   6.625 -0.3933 -0.0555  0.0307
  139OSM    H1S15144   1.198   3.084   6.589  0.6312 -2.0520  0.2687
  139OSM    H1T15145   1.123   2.939   6.662 -1.5561 -0.7640 -1.1688
  139OSM     NF15146   1.131   3.091   6.860 -0.2142 -0.2788  1.2241
  139OSM    HNF15147   1.098   3.076   6.953 -2.2162 -2.2098  0.3230
  139OSM    C2S15148   1.040   3.120   6.744  0.7262 -0.0528 -0.0680
  139OSM    H2S15149   1.038   3.227   6.715 -1.4732 -0.1080 -0.2840
  139OSM    C3S15150   0.895   3.077   6.770  0.3446  0.5109  0.6213
  139OSM    H3S15151   0.897   2.968   6.787  3.9414  0.6492  2.0170
  139OSM     O315152   0.796   3.104   6.666 -0.6629  0.3866  0.6474
  139OSM    HO315153   0.837   3.124   6.582 -0.9447 -3.0530 -0.4403
  139OSM    C4S15154   0.842   3.141   6.899  0.8660  0.1614  0.6642
  139OSM    H4S15155   0.875   3.093   6.992  1.0361  0.8678  0.9822
  139OSM    C5S15156   0.776   3.255   6.903  0.6199 -0.6894  0.8341
  139OSM    H5S15157   0.748   3.306   6.810  0.2846 -1.7064  0.3621
  139OSM    C6S15158   0.719   3.320   7.029  0.1642 -0.7353  0.0315
  139OSM    H6S15159   0.609   3.302   7.033 -0.4111  1.4451 -2.6989
  139OSM    H6T15160   0.740   3.429   7.022  1.4062 -0.4301  4.8795
  139OSM    C7S15161   0.773   3.281   7.166 -1.0387  0.1732  0.2620
  139OSM    H7S15162   0.883   3.284   7.157 -1.1522  0.9891 -1.0265
  139OSM    H7T15163   0.741   3.174   7.167  1.9107 -0.7913  1.3502
  139OSM    C8S15164   0.735   3.369   7.287  0.1438 -0.8061  0.4503
  139OSM    H8S15165   0.628   3.394   7.270  0.0994 -0.3388  1.3969
  139OSM    H8T15166   0.795   3.462   7.282  0.5338 -1.0988 -0.9408
  139OSM    C9S15167   0.747   3.297   7.425 -0.3656 -0.0140  0.3994
  139OSM    H9S15168   0.845   3.245   7.422  0.0671  0.8118 -0.7828
  139OSM    H9T15169   0.683   3.208   7.438 -0.4071 -0.0991 -0.3805
  139OSM   C10S15170   0.730   3.397   7.539  0.0522 -0.3656  0.5662
  139OSM   H10S15171   0.627   3.440   7.539 -0.1530  0.0240 -5.4922
  139OSM   H10T15172   0.808   3.475   7.525  0.5429 -1.0004 -0.2919
  139OSM   C11S15173   0.754   3.331   7.671  0.6190 -0.1202  0.2253
  139OSM   H11S15174   0.861   3.302   7.676  0.3665 -1.0891  0.3095
  139OSM   H11T15175   0.688   3.242   7.675 -0.4791  0.7225  1.9546
  139OSM   C12S15176   0.722   3.431   7.789  0.0298  0.4810 -0.0467
  139OSM   H12S15177   0.613   3.454   7.793 -0.0453  0.3506 -1.1716
  139OSM   H12T15178   0.768   3.528   7.763  0.1100  1.2794  2.7529
  139OSM   C13S15179   0.765   3.373   7.918 -0.2882 -0.5850 -0.7702
  139OSM   H13S15180   0.876   3.375   7.923 -0.2061 -2.7906 -0.8613
  139OSM   H13T15181   0.731   3.271   7.943 -0.4636  0.0311  1.7764
  139OSM   C14S15182   0.713   3.456   8.042  0.2355 -0.2774  0.5796
  139OSM   H14S15183   0.604   3.442   8.033  0.6586 -3.0943 -2.0363
  139OSM   H14T15184   0.738   3.558   8.008  0.3079 -0.7754 -0.9360
  139OSM   C15S15185   0.761   3.411   8.178 -0.9412  0.3093  0.3700
  139OSM   H15S15186   0.738   3.506   8.231  0.6397 -0.2088  2.0936
  139OSM   H15T15187   0.871   3.404   8.190 -0.4905  1.9077 -2.1077
  139OSM   C16S15188   0.698   3.294   8.254  0.2172 -0.9427 -0.1516
  139OSM   H16S15189   0.713   3.192   8.212  0.4556 -0.8453 -0.3016
  139OSM   H16T15190   0.588   3.305   8.263  0.1860 -0.8004 -0.7091
  139OSM   C17S15191   0.767   3.297   8.393 -0.4144  0.0191  0.4603
  139OSM   H17S15192   0.752   3.396   8.439 -1.6937  1.2483 -2.3457
  139OSM   H17T15193   0.874   3.269   8.380 -0.3103  0.8125 -0.4472
  139OSM   C18S15194   0.698   3.178   8.464 -0.0029 -0.6576  0.0964
  139OSM   H18S15195   0.744   3.179   8.565  1.5064  1.5639 -0.5370
  139OSM   H18T15196   0.715   3.092   8.396  1.4047  0.8494 -1.5532
  139OSM   H18U15197   0.588   3.190   8.479 -0.8086 -5.1030 -0.8597
  139OSM    C1F15198   1.258   3.133   6.858  0.9475  0.1285  0.4753
  139OSM     OF15199   1.291   3.199   6.762 -0.0045  0.4792 -0.1294
  139OSM    C2F15200   1.336   3.105   6.982  0.3259  0.2177 -1.1534
  139OSM    H2F15201   1.364   2.998   6.971 -2.5978 -0.7008 -0.6398
  139OSM    H2G15202   1.268   3.120   7.069  2.5996  2.5448  0.3551
  139OSM    C3F15203   1.472   3.179   7.001  0.2596  0.2831 -0.7929
  139OSM    H3F15204   1.465   3.289   6.991  2.0674  0.3785 -1.3615
  139OSM    H3G15205   1.537   3.156   6.914  0.7791  2.8493 -1.1669
  139OSM    C4F15206   1.542   3.129   7.125 -0.0199  0.3343  0.0676
  139OSM    H4F15207   1.564   3.021   7.131 -0.6037  0.2781  1.8572
  139OSM    H4G15208   1.478   3.159   7.211 -0.2316  1.0579 -0.3301
  139OSM    C5F15209   1.697   3.163   7.132  0.1533 -0.1494 -0.2562
  139OSM    H5F15210   1.714   3.271   7.112  1.2665 -0.9311 -4.2685
  139OSM    H5G15211   1.736   3.114   7.041 -0.6428 -0.3598 -0.4920
  139OSM    C6F15212   1.760   3.118   7.260 -0.1829  0.2891 -0.2366
  139OSM    H6F15213   1.870   3.104   7.245 -0.2050 -0.7269  0.4885
  139OSM    H6G15214   1.719   3.024   7.301 -1.7557  0.0142 -2.2760
  139OSM    C7F15215   1.751   3.233   7.364 -0.6708 -0.1037 -0.1112
  139OSM    H7F15216   1.800   3.323   7.319  0.1264  0.5671  1.9687
  139OSM    H7G15217   1.821   3.214   7.448 -0.9095 -0.5018 -0.0042
  139OSM    C8F15218   1.608   3.270   7.419 -0.6070 -0.9133  0.2474
  139OSM    H8F15219   1.546   3.184   7.453  0.5156 -2.2203 -0.8515
  139OSM    H8G15220   1.552   3.322   7.339  0.8487 -1.1889 -0.9944
  139OSM    C9F15221   1.620   3.360   7.535  0.0376 -0.2978 -0.6859
  139OSM    H9F15222   1.657   3.463   7.525 -0.0843 -0.2351 -0.4775
  139OSM   C10F15223   1.575   3.347   7.663  0.3104  0.7347 -0.2001
  139OSM   H10F15224   1.600   3.427   7.734 -1.2330  0.6860  0.4528
  139OSM   C11F15225   1.491   3.235   7.726  0.2683  0.2315  0.5331
  139OSM   H11F15226   1.435   3.185   7.645  1.5176 -0.2732 -0.0435
  139OSM   H11G15227   1.418   3.275   7.800  2.3555  3.9638  0.7788
  139OSM   C12F15228   1.582   3.128   7.788 -0.4996  0.2391 -0.0476
  139OSM   H12F15229   1.645   3.088   7.706  0.4544  2.0377 -0.2348
  139OSM   H12G15230   1.512   3.044   7.811 -1.7452  1.3631  0.4078
  139OSM   C13F15231   1.666   3.169   7.909 -0.6278  0.0040  0.2920
  139OSM   H13F15232   1.733   3.254   7.886 -0.8115  0.2405  0.6212
  139OSM   H13G15233   1.736   3.092   7.949 -1.9801 -2.5098 -1.8037
  139OSM   C14F15234   1.572   3.207   8.021 -0.2357 -0.2284  0.8592
  139OSM   H14F15235   1.493   3.130   8.018  0.7594 -1.2321 -0.0854
  139OSM   H14G15236   1.528   3.309   8.008  1.4832  0.1836 -2.6903
  139OSM   C15F15237   1.651   3.207   8.153 -0.4887  0.0570  0.9615
  139OSM   H15F15238   1.745   3.260   8.122  0.8176 -3.8058 -2.7001
  139OSM   H15G15239   1.680   3.103   8.177  4.4813  1.3748  1.7599
  139OSM   C16F15240   1.582   3.283   8.261 -0.2852 -0.2629 -0.2136
  139OSM   H16F15241   1.567   3.382   8.214 -0.6784 -0.1418  0.1618
  139OSM   H16G15242   1.647   3.308   8.347 -2.1028 -1.0710  1.4933
  139OSM   C17F15243   1.447   3.233   8.309  0.5396  0.4174  0.0413
  139OSM   H17F15244   1.465   3.128   8.341 -0.0159  0.4090  0.3298
  139OSM   H17G15245   1.375   3.223   8.225 -1.7123 -0.9768  2.0209
  139OSM   C18F15246   1.389   3.312   8.420 -0.3012 -0.5602 -0.3028
  139OSM   H18F15247   1.283   3.284   8.438 -0.6484  0.3262 -0.9009
  139OSM   H18G15248   1.400   3.421   8.404 -3.3705 -0.0130  0.6296
  139OSM   H18H15249   1.444   3.278   8.510  1.5899  1.4740 -0.5942
  140OSM      N15250   2.982   6.396   6.403  0.0180  0.3179 -0.3924
  140OSM    C1515251   3.073   6.335   6.502 -0.3840  0.0111 -0.7486
  140OSM   H15A15252   3.023   6.274   6.576 -0.3174 -0.5518 -1.1615
  140OSM   H15B15253   3.118   6.417   6.557 -2.1719  1.3618 -1.1895
  140OSM   H15C15254   3.149   6.269   6.462 -0.9414 -2.6629  2.1894
  140OSM    C1415255   3.065   6.499   6.320  0.6413  0.2821 -0.1744
  140OSM   H14A15256   3.008   6.540   6.238 -0.0219 -1.7256 -0.7707
  140OSM   H14B15257   3.136   6.450   6.256  0.0809  0.9448 -1.3289
  140OSM   H14C15258   3.119   6.570   6.383  0.0184 -1.1752  2.1196
  140OSM    C1315259   2.935   6.279   6.318  0.6713  0.2432 -0.9788
  140OSM   H13A15260   2.859   6.218   6.365  1.5573  1.8357  2.9360
  140OSM   H13B15261   3.015   6.212   6.289  0.4157  0.3794 -2.0439
  140OSM   H13C15262   2.898   6.310   6.222 -0.9192  1.0013 -0.1531
  140OSM    C1215263   2.868   6.463   6.475  0.2424  0.1062 -0.4175
  140OSM   H12A15264   2.799   6.504   6.403  2.0025  3.7033 -0.2691
  140OSM   H12B15265   2.895   6.552   6.531 -1.4071  0.6086 -0.3762
  140OSM    C1115266   2.769   6.370   6.562 -0.3020  0.0080  0.5917
  140OSM   H11A15267   2.699   6.437   6.617 -2.4273 -1.3252 -0.3268
  140OSM   H11B15268   2.833   6.337   6.646  0.2457 -0.4878 -0.0102
  140OSM      P15269   2.583   6.280   6.411 -0.0681  0.2949 -0.1507
  140OSM    O1315270   2.609   6.402   6.324  0.3463  0.0431  0.0484
  140OSM    O1415271   2.563   6.152   6.335  0.5679  0.4324 -0.2992
  140OSM    O1115272   2.466   6.317   6.512  0.4767  0.7759  0.2671
  140OSM    O1215273   2.706   6.258   6.504  0.2418 -0.0336 -0.0695
  140OSM    C1S15274   2.414   6.222   6.610  0.9204  0.1745 -0.2695
  140OSM    H1S15275   2.448   6.116   6.603 -4.2139 -1.9233  1.8755
  140OSM    H1T15276   2.304   6.213   6.603  0.7386  0.6678  1.5294
  140OSM     NF15277   2.431   6.166   6.852  0.3235  0.0192 -0.2444
  140OSM    HNF15278   2.342   6.158   6.897 -1.3093 -0.0112 -3.2144
  140OSM    C2S15279   2.448   6.270   6.756  1.3195 -0.5680  0.1170
  140OSM    H2S15280   2.549   6.314   6.757  1.2657 -0.1475 -3.2811
  140OSM    C3S15281   2.354   6.394   6.796  0.0084 -0.2713  0.3895
  140OSM    H3S15282   2.245   6.375   6.790  0.0484 -0.1017 -1.3251
  140OSM     O315283   2.377   6.495   6.698 -0.0420 -0.2311 -0.3195
  140OSM    HO315284   2.431   6.456   6.629 -0.9862 -0.8358 -0.7369
  140OSM    C4S15285   2.386   6.448   6.929  0.5256 -0.5809 -0.0424
  140OSM    H4S15286   2.491   6.478   6.941  1.8403 -2.9667 -3.9209
  140OSM    C5S15287   2.302   6.446   7.032  0.1558 -0.2651 -0.3760
  140OSM    H5S15288   2.197   6.411   7.031 -0.5636  1.7994 -0.4185
  140OSM    C6S15289   2.346   6.491   7.171  0.1490  0.0810 -0.2962
  140OSM    H6S15290   2.257   6.537   7.220 -0.6377  0.8048 -2.3040
  140OSM    H6T15291   2.420   6.573   7.162 -0.1038  0.0766 -3.2789
  140OSM    C7S15292   2.394   6.374   7.259 -0.6963  0.0247  0.2047
  140OSM    H7S15293   2.474   6.323   7.201 -0.0663  1.4975 -0.2851
  140OSM    H7T15294   2.317   6.306   7.302  0.5115 -0.4221  1.7522
  140OSM    C8S15295   2.465   6.424   7.384 -0.0331  0.2196  0.0835
  140OSM    H8S15296   2.404   6.494   7.445  1.1179  1.0855  0.2820
  140OSM    H8T15297   2.546   6.499   7.367 -0.9777  1.5664  1.2910
  140OSM    C9S15298   2.513   6.311   7.476  0.0302  0.1770  0.8013
  140OSM    H9S15299   2.596   6.242   7.452 -1.2731 -1.5997  1.2443
  140OSM    H9T15300   2.430   6.237   7.475  0.8674 -0.7935 -1.1075
  140OSM   C10S15301   2.551   6.361   7.615  0.3184 -1.2493 -0.3081
  140OSM   H10S15302   2.621   6.444   7.591  0.8350 -2.0951 -1.7994
  140OSM   H10T15303   2.616   6.281   7.656  1.9834  0.2471  0.0892
  140OSM   C11S15304   2.430   6.409   7.703  0.0684  0.4146  0.1324
  140OSM   H11S15305   2.370   6.322   7.737  1.0932 -0.3815 -0.0702
  140OSM   H11T15306   2.360   6.474   7.646 -1.1363 -0.8242  0.1386
  140OSM   C12S15307   2.491   6.474   7.827  0.5797 -0.5634 -0.6462
  140OSM   H12S15308   2.547   6.558   7.781  1.0342 -0.5518 -0.0767
  140OSM   H12T15309   2.562   6.413   7.888  0.3232  0.4344  0.6814
  140OSM   C13S15310   2.390   6.539   7.927  0.7925  0.3940  0.2145
  140OSM   H13S15311   2.326   6.617   7.880  2.0959  1.3478 -0.0375
  140OSM   H13T15312   2.442   6.598   8.005 -0.2626  0.3821  0.9439
  140OSM   C14S15313   2.297   6.433   8.003  0.1865  0.6535 -0.0139
  140OSM   H14S15314   2.241   6.371   7.929  3.2562 -3.4182  0.7642
  140OSM   H14T15315   2.228   6.498   8.062 -0.1120  0.5518 -0.2444
  140OSM   C15S15316   2.369   6.341   8.102 -0.1563 -0.2916  0.3700
  140OSM   H15S15317   2.465   6.391   8.126 -0.4775  1.6785 -2.0521
  140OSM   H15T15318   2.401   6.247   8.053  0.3144  0.1072 -0.0937
  140OSM   C16S15319   2.309   6.308   8.240 -0.1615  0.5160  0.2826
  140OSM   H16S15320   2.309   6.403   8.297 -0.7811  0.4887  0.3340
  140OSM   H16T15321   2.372   6.229   8.287 -1.8740 -1.7479 -0.9886
  140OSM   C17S15322   2.167   6.249   8.223 -0.5689  0.0977  0.3623
  140OSM   H17S15323   2.111   6.299   8.141  1.5421  1.8051 -0.1174
  140OSM   H17T15324   2.121   6.271   8.322  1.2011  2.7696  0.6972
  140OSM   C18S15325   2.168   6.087   8.215  0.0512 -0.9310  0.9269
  140OSM   H18S15326   2.067   6.043   8.207 -1.0458  1.3619  1.3320
  140OSM   H18T15327   2.231   6.047   8.298  1.0863  0.2042  0.7167
  140OSM   H18U15328   2.231   6.063   8.127 -0.5299 -0.7943  0.4716
  140OSM    C1F15329   2.513   6.063   6.862  0.0064  0.7565  0.5150
  140OSM     OF15330   2.612   6.049   6.787 -0.0031 -0.1272  0.1390
  140OSM    C2F15331   2.474   5.951   6.960 -0.5470  0.2056  0.1615
  140OSM    H2F15332   2.478   5.850   6.914  0.7630 -0.4395  1.5886
  140OSM    H2G15333   2.374   5.971   7.004 -1.1315  1.3044 -1.5720
  140OSM    C3F15334   2.579   5.956   7.073  0.1684  0.3306 -0.4402
  140OSM    H3F15335   2.599   6.062   7.097 -0.3266  0.9377 -2.4797
  140OSM    H3G15336   2.671   5.917   7.025  1.0129  1.1809  0.4481
  140OSM    C4F15337   2.526   5.881   7.198  0.0739 -0.6923  0.7151
  140OSM    H4F15338   2.492   5.782   7.161  0.6404 -1.0230  1.0692
  140OSM    H4G15339   2.434   5.930   7.238  0.3882  0.3499  0.2060
  140OSM    C5F15340   2.630   5.860   7.310 -0.0959 -0.7202  0.3482
  140OSM    H5F15341   2.719   5.818   7.258 -0.6917 -0.3156 -1.0427
  140OSM    H5G15342   2.589   5.787   7.382 -0.8916 -0.3655  0.2591
  140OSM    C6F15343   2.681   5.991   7.381  0.3590 -0.3873 -0.1466
  140OSM    H6F15344   2.593   6.026   7.438 -0.4281 -1.5420 -0.6178
  140OSM    H6G15345   2.717   6.067   7.308 -0.9401 -0.5693 -1.0148
  140OSM    C7F15346   2.789   5.956   7.485 -0.4948 -0.5152 -0.4574
  140OSM    H7F15347   2.885   5.957   7.429  0.3893  1.5905  0.9605
  140OSM    H7G15348   2.753   5.859   7.523  0.6983 -0.7344  0.1507
  140OSM    C8F15349   2.796   6.065   7.597  0.2144  0.7867 -0.3854
  140OSM    H8F15350   2.693   6.066   7.638 -1.6383 -0.5116 -4.5002
  140OSM    H8G15351   2.818   6.168   7.563 -1.5326  1.4493  0.3750
  140OSM    C9F15352   2.876   6.012   7.712  0.6789 -0.1402  0.3855
  140OSM    H9F15353   2.863   5.904   7.730  1.6606 -0.0088  2.0811
  140OSM   C10F15354   2.969   6.074   7.786  0.3061  0.7645 -1.2261
  140OSM   H10F15355   3.003   6.032   7.882 -0.6752  0.1796 -1.1215
  140OSM   C11F15356   3.017   6.220   7.784  0.3557  0.2880  0.2136
  140OSM   H11F15357   2.952   6.281   7.718 -0.8704  0.1295  1.2470
  140OSM   H11G15358   3.116   6.233   7.734 -0.7654  1.4594 -1.8398
  140OSM   C12F15359   3.025   6.279   7.924 -0.5719 -0.6123 -0.1007
  140OSM   H12F15360   3.067   6.381   7.917 -0.5417 -0.4279  2.0032
  140OSM   H12G15361   3.093   6.225   7.994  0.7430  2.3294  1.0693
  140OSM   C13F15362   2.886   6.303   7.989  0.5911 -0.0472 -0.5020
  140OSM   H13F15363   2.845   6.203   8.013 -1.0743  0.6975 -0.1307
  140OSM   H13G15364   2.824   6.346   7.908 -1.7670 -2.8366 -0.3595
  140OSM   C14F15365   2.889   6.394   8.116  0.1184 -0.2005 -0.0967
  140OSM   H14F15366   2.786   6.422   8.144  0.6120  0.4135  1.1369
  140OSM   H14G15367   2.950   6.480   8.080 -1.8796 -0.0382 -3.6200
  140OSM   C15F15368   2.948   6.314   8.234  0.2730 -0.3675 -0.3296
  140OSM   H15F15369   3.008   6.223   8.214  0.0277 -1.7926  4.2687
  140OSM   H15G15370   2.858   6.270   8.283  0.4477  1.6790  2.0096
  140OSM   C16F15371   3.016   6.392   8.343 -0.3188 -0.3928  0.2937
  140OSM   H16F15372   2.937   6.451   8.394 -1.8674  0.0529 -2.4502
  140OSM   H16G15373   3.098   6.460   8.311 -0.3388  0.2517  1.5407
  140OSM   C17F15374   3.072   6.296   8.452 -0.6775 -0.1518 -0.6988
  140OSM   H17F15375   3.113   6.357   8.535  0.9135  0.2280 -1.7163
  140OSM   H17G15376   3.155   6.236   8.407 -0.9354 -1.2344  0.2047
  140OSM   C18F15377   2.966   6.206   8.517  0.0501  0.1914  0.2548
  140OSM   H18F15378   2.874   6.264   8.540 -1.6106 -2.7274  1.4724
  140OSM   H18G15379   3.003   6.153   8.608 -1.5285 -2.4166 -0.5380
  140OSM   H18H15380   2.938   6.127   8.445  0.1943 -0.6403  1.0912
  141OSM      N15381   1.892   0.619   6.061 -0.1169 -0.2000 -0.7808
  141OSM    C1515382   1.819   0.747   6.084  0.0742 -0.2181  0.3432
  141OSM   H15A15383   1.717   0.718   6.106 -0.4134 -0.4779 -2.0719
  141OSM   H15B15384   1.814   0.802   5.991  1.0451 -1.3037 -0.3749
  141OSM   H15C15385   1.860   0.803   6.168 -4.8441 -1.4004  3.9888
  141OSM    C1415386   1.816   0.540   5.966 -0.0969  1.0815 -0.3219
  141OSM   H14A15387   1.858   0.441   5.972 -0.1363  0.9651 -1.7709
  141OSM   H14B15388   1.821   0.575   5.864 -1.2334  2.0666 -0.0680
  141OSM   H14C15389   1.709   0.529   5.981 -0.1498  0.4414 -1.1246
  141OSM    C1315390   2.021   0.642   6.005 -0.3213 -0.4433  0.3485
  141OSM   H13A15391   2.075   0.550   5.985  1.3126 -0.0963  2.7567
  141OSM   H13B15392   2.085   0.701   6.069  2.2103 -1.9630 -0.6066
  141OSM   H13C15393   2.018   0.698   5.912 -0.5684 -0.1982  0.5018
  141OSM    C1215394   1.898   0.550   6.197 -0.4121  0.6264  0.1957
  141OSM   H12A15395   1.956   0.599   6.274  1.6645 -0.3420 -0.6806
  141OSM   H12B15396   1.961   0.463   6.187  0.4427  1.3853 -1.3518
  141OSM    C1115397   1.768   0.503   6.260  0.0953  0.1251  0.4569
  141OSM   H11A15398   1.787   0.447   6.354 -0.5191 -0.9312 -0.0386
  141OSM   H11B15399   1.712   0.439   6.189 -0.0521 -0.6870  1.2831
  141OSM      P15400   1.540   0.605   6.337  0.0688  0.1274 -0.0551
  141OSM    O1315401   1.498   0.744   6.376  0.4372  0.4456  0.0070
  141OSM    O1415402   1.453   0.547   6.233  0.2616 -0.7772 -0.0750
  141OSM    O1115403   1.537   0.509   6.464  0.1791  0.0125 -0.1211
  141OSM    O1215404   1.686   0.614   6.288 -0.5772 -0.4453 -0.2760
  141OSM    C1S15405   1.628   0.531   6.573  0.0388 -0.1224 -0.1594
  141OSM    H1S15406   1.722   0.577   6.538  0.2052  0.0916  0.5549
  141OSM    H1T15407   1.652   0.432   6.617 -0.3733  0.5435  1.6874
  141OSM     NF15408   1.692   0.661   6.768  0.3574  0.0836 -0.1324
  141OSM    HNF15409   1.720   0.620   6.855 -0.5943 -1.1299 -0.3736
  141OSM    C2S15410   1.581   0.622   6.690  0.4103 -0.7579 -0.4431
  141OSM    H2S15411   1.547   0.718   6.647  0.8444 -0.3451  0.1248
  141OSM    C3S15412   1.468   0.555   6.771  0.0137  0.7477  0.3443
  141OSM    H3S15413   1.509   0.459   6.809 -2.1880 -0.1570  0.5614
  141OSM     O315414   1.351   0.520   6.699 -0.2604  0.0217  0.8129
  141OSM    HO315415   1.370   0.536   6.607  0.9329 -1.4068  0.7818
  141OSM    C4S15416   1.435   0.635   6.898 -0.2321 -0.7139 -0.1005
  141OSM    H4S15417   1.493   0.614   6.989  1.1626  2.0867 -0.2445
  141OSM    C5S15418   1.330   0.726   6.894 -0.5248  0.1361  0.4017
  141OSM    H5S15419   1.273   0.733   6.800  0.0652  1.2707  0.1139
  141OSM    C6S15420   1.294   0.812   7.014  0.3635 -0.1175  0.3638
  141OSM    H6S15421   1.184   0.818   7.028  0.5146 -0.3748  1.8125
  141OSM    H6T15422   1.337   0.910   6.985  1.4254 -0.3089  1.2344
  141OSM    C7S15423   1.357   0.769   7.149  0.2253  0.2919  0.8247
  141OSM    H7S15424   1.468   0.771   7.149  0.2786  0.1045 -1.3913
  141OSM    H7T15425   1.321   0.669   7.181 -0.1085  0.5533  1.2842
  141OSM    C8S15426   1.312   0.852   7.264 -0.3338  0.0158 -0.6917
  141OSM    H8S15427   1.203   0.836   7.278 -0.1196 -0.6384  0.3423
  141OSM    H8T15428   1.336   0.959   7.249 -1.3859  0.6986  2.0336
  141OSM    C9S15429   1.354   0.810   7.405  0.4174 -0.1194 -0.4426
  141OSM    H9S15430   1.463   0.815   7.424 -0.0970  0.4494  3.0425
  141OSM    H9T15431   1.340   0.700   7.410 -0.8960  0.0695  0.3887
  141OSM   C10S15432   1.277   0.891   7.516 -0.3726  0.4679  0.4722
  141OSM   H10S15433   1.168   0.872   7.503 -0.3071  0.0914  0.4482
  141OSM   H10T15434   1.296   1.000   7.512 -3.6247  1.1218 -3.6405
  141OSM   C11S15435   1.333   0.847   7.649  0.4149 -0.6305 -0.7609
  141OSM   H11S15436   1.441   0.869   7.665  0.7971 -0.0616 -3.5327
  141OSM   H11T15437   1.326   0.736   7.647 -0.0018 -0.6068 -0.8286
  141OSM   C12S15438   1.242   0.898   7.771  0.2069 -0.5588 -0.0352
  141OSM   H12S15439   1.143   0.855   7.800 -0.1853  2.4000  3.9868
  141OSM   H12T15440   1.224   1.006   7.750 -0.2648 -0.8896 -1.4359
  141OSM   C13S15441   1.318   0.901   7.907  0.2157  0.2260 -0.4672
  141OSM   H13S15442   1.425   0.929   7.907 -0.1580  1.8464 -2.2052
  141OSM   H13T15443   1.312   0.797   7.947 -0.2997  0.5721  0.4063
  141OSM   C14S15444   1.247   0.994   8.012 -0.7818  0.2029 -0.2193
  141OSM   H14S15445   1.140   0.968   8.004 -0.3959 -2.6993  2.2887
  141OSM   H14T15446   1.270   1.097   7.978  1.4878 -0.3502 -0.5626
  141OSM   C15S15447   1.294   0.974   8.159  0.3703  0.5154 -0.5483
  141OSM   H15S15448   1.402   1.001   8.161  0.1173  1.6651 -1.1724
  141OSM   H15T15449   1.283   0.867   8.185  1.4220  0.2518 -1.1486
  141OSM   C16S15450   1.225   1.061   8.260 -0.0459  0.0549 -0.2704
  141OSM   H16S15451   1.116   1.046   8.244 -0.5116  1.7605  1.0534
  141OSM   H16T15452   1.246   1.170   8.250 -0.4830  0.3441  1.6649
  141OSM   C17S15453   1.251   1.013   8.402 -0.7465 -0.4931  0.0506
  141OSM   H17S15454   1.273   1.099   8.469 -4.7636 -0.3228  1.4345
  141OSM   H17T15455   1.339   0.947   8.419  0.1719  0.8089  0.5018
  141OSM   C18S15456   1.140   0.933   8.469 -0.1005 -0.3045 -0.6525
  141OSM   H18S15457   1.039   0.967   8.438 -0.2636 -0.8508 -0.7342
  141OSM   H18T15458   1.147   0.944   8.579 -0.2361  1.0785 -0.7595
  141OSM   H18U15459   1.144   0.826   8.439  1.3311 -0.0039 -1.6664
  141OSM    C1F15460   1.784   0.746   6.719 -0.1045 -0.0070 -0.1403
  141OSM     OF15461   1.758   0.825   6.626  0.2751 -0.0097 -0.3534
  141OSM    C2F15462   1.924   0.727   6.754 -0.6089 -0.0753  0.6192
  141OSM    H2F15463   1.983   0.718   6.660 -1.1335  0.4946  0.2321
  141OSM    H2G15464   1.935   0.636   6.817 -1.7866 -0.3772  0.4243
  141OSM    C3F15465   1.967   0.849   6.838  0.1629  1.1040 -0.3633
  141OSM    H3F15466   1.901   0.860   6.926  0.1254 -1.6572  0.0624
  141OSM    H3G15467   1.953   0.939   6.775  0.4023  1.6804  0.3849
  141OSM    C4F15468   2.115   0.841   6.880  0.3071  0.2143 -0.6425
  141OSM    H4F15469   2.168   0.830   6.783 -0.3284 -1.0254 -0.8675
  141OSM    H4G15470   2.132   0.752   6.945 -2.2085  1.1902  1.5655
  141OSM    C5F15471   2.165   0.967   6.952 -0.0762 -0.3682 -0.0169
  141OSM    H5F15472   2.157   1.061   6.893 -2.7021 -0.1193  0.6081
  141OSM    H5G15473   2.274   0.947   6.964  0.2030 -0.3815 -2.0892
  141OSM    C6F15474   2.110   0.987   7.095 -1.0249  0.1304 -0.3046
  141OSM    H6F15475   2.003   1.018   7.096 -0.7758  1.4855 -3.1667
  141OSM    H6G15476   2.164   1.075   7.138 -0.1347 -0.0504 -1.0185
  141OSM    C7F15477   2.141   0.865   7.182 -0.2130 -0.1242 -0.4494
  141OSM    H7F15478   2.244   0.830   7.161  0.6073  2.6312 -1.4233
  141OSM    H7G15479   2.078   0.779   7.149  0.0762 -0.5961  0.1976
  141OSM    C8F15480   2.118   0.896   7.332 -0.6024 -0.0978  0.9676
  141OSM    H8F15481   2.017   0.934   7.355 -1.3023 -1.1591 -0.2438
  141OSM    H8G15482   2.194   0.972   7.361 -0.4537  0.7071 -1.2967
  141OSM    C9F15483   2.144   0.768   7.411  0.3324  0.0597 -0.0065
  141OSM    H9F15484   2.175   0.679   7.353  2.7927  0.7588  0.1416
  141OSM   C10F15485   2.114   0.750   7.540 -1.3219 -0.7246  0.5230
  141OSM   H10F15486   2.139   0.656   7.592  1.3658  0.3747  1.4060
  141OSM   C11F15487   2.057   0.851   7.639  0.1378  0.0749  0.7186
  141OSM   H11F15488   1.951   0.860   7.607  0.4265 -1.2038 -0.6983
  141OSM   H11G15489   2.098   0.953   7.627  2.5803 -0.7713  1.2731
  141OSM   C12F15490   2.068   0.806   7.788  0.5861  0.2329 -0.2796
  141OSM   H12F15491   2.175   0.786   7.810  0.4588 -0.2889 -0.1260
  141OSM   H12G15492   2.016   0.709   7.799  0.4261  0.2550 -0.7853
  141OSM   C13F15493   2.021   0.914   7.898  0.5437  0.4002  0.5746
  141OSM   H13F15494   1.919   0.950   7.873  1.1383  0.0855 -2.7948
  141OSM   H13G15495   2.092   0.999   7.886 -0.6536  1.6128  1.7460
  141OSM   C14F15496   2.031   0.873   8.049 -0.0743  0.1110  0.0201
  141OSM   H14F15497   2.129   0.835   8.085  0.0397 -0.8928 -1.2380
  141OSM   H14G15498   1.961   0.788   8.061  0.9367 -0.6446  0.7772
  141OSM   C15F15499   1.999   0.992   8.143 -0.2357  0.6804  0.2492
  141OSM   H15F15500   1.935   1.064   8.088  0.0984  1.0104  0.2883
  141OSM   H15G15501   2.092   1.051   8.157  0.5057 -0.6353  0.9864
  141OSM   C16F15502   1.940   0.957   8.280  0.0635  0.0534  0.7652
  141OSM   H16F15503   1.848   0.897   8.269 -0.3983  0.9619 -0.6197
  141OSM   H16G15504   1.905   1.051   8.327  1.4293  0.3119  1.3202
  141OSM   C17F15505   2.046   0.886   8.363 -0.7401  0.0098  0.4124
  141OSM   H17F15506   2.137   0.951   8.368 -1.5121  1.2634 -0.9593
  141OSM   H17G15507   2.074   0.794   8.308  0.9165  0.3094  0.6776
  141OSM   C18F15508   2.003   0.857   8.503 -0.1279  0.0712 -0.5940
  141OSM   H18F15509   2.076   0.800   8.564 -0.6813 -0.0489 -0.0319
  141OSM   H18G15510   1.904   0.807   8.504  0.5014 -1.2158  0.1257
  141OSM   H18H15511   2.002   0.952   8.559 -1.9627  0.1959 -0.7645
  142OSM      N15512   1.480   2.420   6.237 -0.2232 -0.0833  0.0898
  142OSM    C1515513   1.396   2.516   6.155 -0.4904  0.2441  0.4184
  142OSM   H15A15514   1.363   2.478   6.060  0.7801  0.9640 -0.3400
  142OSM   H15B15515   1.451   2.606   6.130  0.1667 -0.5564 -1.1138
  142OSM   H15C15516   1.302   2.541   6.202 -1.7399 -0.0888 -1.8047
  142OSM    C1415517   1.398   2.298   6.261  0.4055 -1.0168 -0.0477
  142OSM   H14A15518   1.453   2.225   6.319 -0.7477 -0.8446  1.3239
  142OSM   H14B15519   1.363   2.251   6.170 -1.5939  0.4219 -0.0838
  142OSM   H14C15520   1.312   2.323   6.322  0.4229 -2.3619  0.5764
  142OSM    C1315521   1.602   2.377   6.161 -0.3008  0.1838  0.7163
  142OSM   H13A15522   1.664   2.460   6.131 -0.0953 -0.2259 -0.0216
  142OSM   H13B15523   1.580   2.324   6.069  0.5375  1.4671 -0.2707
  142OSM   H13C15524   1.668   2.318   6.222 -0.2773 -0.8367 -0.2577
  142OSM    C1215525   1.518   2.483   6.370  0.5663 -0.0311 -0.3918
  142OSM   H12A15526   1.428   2.518   6.419  0.1851  0.3249 -1.3299
  142OSM   H12B15527   1.558   2.582   6.353  1.6277 -0.5389 -0.9557
  142OSM    C1115528   1.613   2.399   6.463 -0.3458 -0.2166  0.4292
  142OSM   H11A15529   1.562   2.305   6.494  0.1379  0.1834  2.5842
  142OSM   H11B15530   1.606   2.451   6.561 -3.1408 -2.2183  1.4230
  142OSM      P15531   1.861   2.477   6.421  0.0241  0.1876 -0.1584
  142OSM    O1315532   1.961   2.439   6.321  0.8653  0.1852 -0.1873
  142OSM    O1415533   1.803   2.613   6.400 -0.1004 -0.2707  0.3306
  142OSM    O1115534   1.919   2.467   6.569 -0.0711 -0.1586  0.5602
  142OSM    O1215535   1.742   2.376   6.412  0.4339  0.3453  0.2427
  142OSM    C1S15536   1.960   2.581   6.642  0.0223 -0.3852 -0.2510
  142OSM    H1S15537   1.870   2.642   6.666  0.0588 -0.4684  0.1055
  142OSM    H1T15538   2.035   2.633   6.579 -1.3046 -0.5031 -2.0018
  142OSM     NF15539   2.064   2.673   6.845 -0.0612 -0.0223  0.4169
  142OSM    HNF15540   2.158   2.694   6.820  0.5432 -0.3538  2.3177
  142OSM    C2S15541   2.029   2.554   6.778 -0.0883 -0.2163 -1.0724
  142OSM    H2S15542   1.958   2.493   6.838  3.2136 -2.3864  0.9430
  142OSM    C3S15543   2.152   2.452   6.753  1.2980 -0.5482 -0.3746
  142OSM    H3S15544   2.227   2.493   6.682  0.3337  1.9718 -0.0410
  142OSM     O315545   2.107   2.334   6.689  0.0333 -0.1339 -0.7596
  142OSM    HO315546   2.038   2.374   6.635 -0.3062 -1.4293 -1.3213
  142OSM    C4S15547   2.214   2.432   6.884 -0.1664  0.6025 -0.8185
  142OSM    H4S15548   2.313   2.481   6.886 -0.5836  1.4730  1.1983
  142OSM    C5S15549   2.180   2.352   6.987  0.5335 -0.2674  0.8053
  142OSM    H5S15550   2.088   2.295   6.972  0.6277 -0.0708 -0.7598
  142OSM    C6S15551   2.254   2.322   7.118 -0.6313 -0.1430 -0.0069
  142OSM    H6S15552   2.306   2.224   7.108 -0.7601 -0.1202 -0.9227
  142OSM    H6T15553   2.182   2.309   7.202  0.6108  1.8693  1.4716
  142OSM    C7S15554   2.371   2.423   7.149 -0.0488 -0.0823 -0.1644
  142OSM    H7S15555   2.338   2.526   7.124 -0.6827 -0.1320  0.4587
  142OSM    H7T15556   2.450   2.406   7.072 -0.9305 -1.0878 -0.8673
  142OSM    C8S15557   2.422   2.408   7.296 -0.0561  0.1508  0.0009
  142OSM    H8S15558   2.521   2.459   7.304 -0.4414  0.9535 -0.2125
  142OSM    H8T15559   2.438   2.303   7.328  1.0070  0.2272 -0.2570
  142OSM    C9S15560   2.332   2.465   7.407  0.5136  0.1735  0.5724
  142OSM    H9S15561   2.258   2.387   7.435 -0.4994  0.2897 -1.5826
  142OSM    H9T15562   2.284   2.559   7.371  0.2295 -0.5126 -0.9182
  142OSM   C10S15563   2.403   2.507   7.537 -0.7990 -0.2646 -0.3281
  142OSM   H10S15564   2.485   2.574   7.501  0.4628 -0.9954  1.0849
  142OSM   H10T15565   2.449   2.417   7.583  0.5824  1.4782  1.8888
  142OSM   C11S15566   2.313   2.583   7.638 -0.0903  0.4219  0.0912
  142OSM   H11S15567   2.223   2.520   7.656  1.8750 -2.9491 -0.8914
  142OSM   H11T15568   2.268   2.668   7.583 -1.6193  0.0509  0.7276
  142OSM   C12S15569   2.397   2.638   7.760  0.0659  0.0244  0.1724
  142OSM   H12S15570   2.461   2.722   7.724 -0.3222 -0.8404 -2.8257
  142OSM   H12T15571   2.460   2.552   7.789 -0.1157 -0.3278 -0.4565
  142OSM   C13S15572   2.304   2.678   7.880  0.1563 -0.6815  0.6486
  142OSM   H13S15573   2.212   2.616   7.874 -0.1266 -0.2043 -0.1057
  142OSM   H13T15574   2.266   2.781   7.871 -0.6632 -0.9983  0.3879
  142OSM   C14S15575   2.362   2.674   8.023  0.2094 -0.7233  0.3415
  142OSM   H14S15576   2.445   2.747   8.030  0.3438 -0.5597 -2.1290
  142OSM   H14T15577   2.410   2.574   8.035  1.2327 -0.0096  3.0778
  142OSM   C15S15578   2.259   2.698   8.128  0.1168 -0.6473 -0.3240
  142OSM   H15S15579   2.175   2.626   8.117 -1.8219  1.3425  0.6522
  142OSM   H15T15580   2.214   2.799   8.144  1.1776 -0.3658  1.0168
  142OSM   C16S15581   2.316   2.667   8.271  0.3571 -0.5619  0.4491
  142OSM   H16S15582   2.410   2.726   8.283  0.5335 -0.5828 -0.7757
  142OSM   H16T15583   2.355   2.564   8.279 -2.8850 -1.7403  3.6170
  142OSM   C17S15584   2.218   2.704   8.381  0.0571 -0.5760 -0.2824
  142OSM   H17S15585   2.148   2.618   8.389  0.4531 -0.8636  0.0725
  142OSM   H17T15586   2.160   2.794   8.348 -0.1038 -0.2356  0.8870
  142OSM   C18S15587   2.280   2.740   8.517  0.5347  0.3910  1.0605
  142OSM   H18S15588   2.216   2.809   8.575  1.6753  2.2336  0.2433
  142OSM   H18T15589   2.378   2.793   8.509  0.5240  0.3301  0.4912
  142OSM   H18U15590   2.298   2.655   8.587 -0.2780 -2.7461 -2.2308
  142OSM    C1F15591   1.977   2.765   6.885 -0.1305 -0.0399 -0.2450
  142OSM     OF15592   1.853   2.740   6.880  0.9468 -0.6518  0.4533
  142OSM    C2F15593   2.036   2.897   6.940 -0.7918  0.2182 -0.0628
  142OSM    H2F15594   1.957   2.952   6.996  0.6990  2.2491  0.1779
  142OSM    H2G15595   2.083   2.961   6.862  1.5951 -1.4401 -0.0741
  142OSM    C3F15596   2.146   2.875   7.039  0.5481  0.2573 -0.6442
  142OSM    H3F15597   2.235   2.843   6.980  1.9949  0.2489  1.4288
  142OSM    H3G15598   2.127   2.800   7.118 -0.8474  0.6307 -0.6109
  142OSM    C4F15599   2.174   3.009   7.101  0.0110 -0.1884 -0.4812
  142OSM    H4F15600   2.085   3.041   7.160  0.6142 -2.2926  1.7546
  142OSM    H4G15601   2.192   3.081   7.018 -2.8587  0.5821 -0.5443
  142OSM    C5F15602   2.303   3.006   7.189 -0.4570  0.3253 -0.5141
  142OSM    H5F15603   2.342   3.110   7.192  0.9299 -0.1902  0.0209
  142OSM    H5G15604   2.389   2.947   7.151 -0.4045 -0.2542  0.4941
  142OSM    C6F15605   2.280   2.955   7.328 -0.0525  0.4329 -0.4935
  142OSM    H6F15606   2.373   2.969   7.387 -0.7665  1.3929  0.4359
  142OSM    H6G15607   2.256   2.846   7.321 -0.6144 -0.1262  5.2517
  142OSM    C7F15608   2.153   3.016   7.391 -0.0566 -0.0899 -0.0360
  142OSM    H7F15609   2.060   2.968   7.354 -0.1768  0.7732 -0.8771
  142OSM    H7G15610   2.151   3.126   7.376  1.4236  0.0089  0.2671
  142OSM    C8F15611   2.152   2.988   7.540  0.0069 -0.0341 -0.5945
  142OSM    H8F15612   2.255   3.015   7.573  0.1122  0.8067 -1.5529
  142OSM    H8G15613   2.136   2.879   7.553  1.8485 -0.1165  1.5842
  142OSM    C9F15614   2.050   3.067   7.620 -1.2248  0.4819 -0.4513
  142OSM    H9F15615   1.945   3.064   7.587 -0.8465  0.9315 -1.7859
  142OSM   C10F15616   2.065   3.139   7.734 -0.7660 -0.4369 -0.3784
  142OSM   H10F15617   1.976   3.188   7.775  0.1036  0.7556  0.1428
  142OSM   C11F15618   2.194   3.159   7.812 -0.3788  0.3356 -0.3623
  142OSM   H11F15619   2.217   3.266   7.831  0.1479  0.0095  0.9518
  142OSM   H11G15620   2.280   3.116   7.756 -0.5354  1.1063 -1.2171
  142OSM   C12F15621   2.189   3.096   7.954  0.3192  0.5419 -0.5784
  142OSM   H12F15622   2.284   3.107   8.011 -0.5329 -1.1097  1.3099
  142OSM   H12G15623   2.171   2.986   7.946  2.4969  0.0527  0.4935
  142OSM   C13F15624   2.079   3.155   8.042  0.4776 -0.4252 -0.7447
  142OSM   H13F15625   1.981   3.142   7.990 -0.1459  2.3163 -0.3986
  142OSM   H13G15626   2.086   3.265   8.054  0.9208 -0.6710  1.7439
  142OSM   C14F15627   2.068   3.093   8.186 -0.1084 -0.3131  0.5124
  142OSM   H14F15628   2.094   2.986   8.172 -2.4206 -0.4743 -4.3001
  142OSM   H14G15629   1.971   3.105   8.240  0.6477  2.9111  1.3899
  142OSM   C15F15630   2.172   3.147   8.284  0.0508 -0.1428 -0.3377
  142OSM   H15F15631   2.173   3.257   8.273  1.9076 -0.2474 -1.6437
  142OSM   H15G15632   2.272   3.121   8.244  1.2626  1.2128  1.6520
  142OSM   C16F15633   2.163   3.098   8.433  0.4150 -0.7434 -0.2799
  142OSM   H16F15634   2.255   3.139   8.480  1.0931 -2.6369  0.1759
  142OSM   H16G15635   2.162   2.987   8.429 -0.3891 -0.7065 -2.1761
  142OSM   C17F15636   2.052   3.165   8.521  0.2702  0.4660 -0.0964
  142OSM   H17F15637   2.033   3.265   8.478  1.8627  0.3588 -1.1392
  142OSM   H17G15638   2.090   3.163   8.625  0.2448 -2.2544 -0.0507
  142OSM   C18F15639   1.919   3.088   8.533 -0.6759  0.2854 -0.2363
  142OSM   H18F15640   1.945   2.995   8.589  0.7447 -0.2494 -1.7339
  142OSM   H18G15641   1.868   3.059   8.438  1.6709  0.1671 -1.5172
  142OSM   H18H15642   1.845   3.135   8.602 -0.3642  2.1331 -1.1005
  143OSM      N15643   2.521   3.934   5.873 -0.5874  0.5397  0.1530
  143OSM    C1515644   2.659   3.955   5.836 -0.3220 -0.5203 -0.0367
  143OSM   H15A15645   2.680   3.971   5.731 -2.5376 -0.7543 -0.5574
  143OSM   H15B15646   2.724   3.875   5.870  0.3564 -0.7062 -1.6305
  143OSM   H15C15647   2.697   4.048   5.875  1.8198 -1.1355 -0.4745
  143OSM    C1415648   2.438   4.060   5.853  0.4704  0.0543 -0.9761
  143OSM   H14A15649   2.480   4.131   5.922  1.0778 -1.1941 -0.0184
  143OSM   H14B15650   2.343   4.033   5.897  1.6501 -0.5543  1.3577
  143OSM   H14C15651   2.427   4.106   5.756 -0.8398  3.2465  0.5555
  143OSM    C1315652   2.456   3.823   5.798  0.0744  0.5607  0.3919
  143OSM   H13A15653   2.493   3.725   5.823  0.9473  0.0184 -2.6627
  143OSM   H13B15654   2.457   3.837   5.691 -1.2549 -0.2277  0.2526
  143OSM   H13C15655   2.351   3.825   5.823 -0.4236 -1.4247 -1.2949
  143OSM    C1215656   2.525   3.902   6.017  0.2992 -0.2021  0.0894
  143OSM   H12A15657   2.572   3.807   6.034  3.2960  1.4315  1.8466
  143OSM   H12B15658   2.424   3.875   6.045  0.1977  1.5053  1.5943
  143OSM    C1115659   2.579   4.006   6.124  0.6212  0.8905  0.6474
  143OSM   H11A15660   2.532   3.971   6.219  1.7102 -0.3194  0.7654
  143OSM   H11B15661   2.534   4.102   6.090 -0.8174 -0.4621 -1.4743
  143OSM      P15662   2.792   3.889   6.196 -0.1691 -0.3259 -0.0941
  143OSM    O1315663   2.756   3.749   6.153  0.5168 -0.1196 -0.2846
  143OSM    O1415664   2.934   3.923   6.205  0.2094 -0.6163  0.3194
  143OSM    O1115665   2.730   3.909   6.335 -0.8535  0.2783 -0.2371
  143OSM    O1215666   2.718   3.997   6.109 -0.2723 -0.2488  0.6377
  143OSM    C1S15667   2.700   4.026   6.408 -0.1626 -0.1092 -0.8411
  143OSM    H1S15668   2.639   4.101   6.354 -0.5052 -0.6206 -1.1655
  143OSM    H1T15669   2.791   4.082   6.439 -1.1328  0.7091  0.6765
  143OSM     NF15670   2.595   4.119   6.616 -0.4837  0.1890  0.0162
  143OSM    HNF15671   2.664   4.147   6.683  1.0020 -1.0870 -0.9218
  143OSM    C2S15672   2.624   3.991   6.542  0.1299  0.1413 -0.6685
  143OSM    H2S15673   2.526   3.958   6.503 -0.5212  0.9891  0.2246
  143OSM    C3S15674   2.701   3.880   6.625 -0.4093 -0.3243  0.3695
  143OSM    H3S15675   2.781   3.939   6.673 -2.2894  1.4009  1.5510
  143OSM     O315676   2.746   3.765   6.551  0.1589 -0.4178  0.3213
  143OSM    HO315677   2.733   3.776   6.456 -1.3617 -1.6608  0.3313
  143OSM    C4S15678   2.604   3.838   6.726 -1.0790 -0.6780  0.4518
  143OSM    H4S15679   2.507   3.832   6.675  0.2542  2.1895 -2.9096
  143OSM    C5S15680   2.626   3.842   6.859  0.1610  0.0021 -0.5020
  143OSM    H5S15681   2.728   3.865   6.894  0.5852  1.5171 -2.4853
  143OSM    C6S15682   2.516   3.821   6.958  0.3858  0.0510 -0.4540
  143OSM    H6S15683   2.556   3.772   7.049 -2.8424 -0.6303  0.7118
  143OSM    H6T15684   2.427   3.760   6.932  1.5551 -2.3076  0.7735
  143OSM    C7S15685   2.452   3.957   6.991  0.1771 -0.4460  0.0413
  143OSM    H7S15686   2.411   3.999   6.897  0.3121  0.4824  0.3855
  143OSM    H7T15687   2.542   4.013   7.024  1.5273 -1.5867 -1.5820
  143OSM    C8S15688   2.343   3.958   7.097  0.2109  0.5431 -0.1574
  143OSM    H8S15689   2.249   3.903   7.074  0.4701  0.1668 -0.3416
  143OSM    H8T15690   2.307   4.062   7.115 -1.1532  0.0010  0.4104
  143OSM    C9S15691   2.399   3.906   7.236 -0.1380  0.3256  0.1342
  143OSM    H9S15692   2.491   3.965   7.255 -0.5256  1.0448 -0.1980
  143OSM    H9T15693   2.424   3.798   7.231 -0.7807  0.1355  0.8526
  143OSM   C10S15694   2.300   3.942   7.352 -1.1806 -0.4794 -0.4778
  143OSM   H10S15695   2.201   3.901   7.326 -2.4467  0.5830  2.3146
  143OSM   H10T15696   2.278   4.051   7.351  2.5122  0.4330  0.0819
  143OSM   C11S15697   2.352   3.904   7.489  0.1421 -0.3461 -0.1411
  143OSM   H11S15698   2.452   3.949   7.503 -0.0858  0.5152 -1.2049
  143OSM   H11T15699   2.362   3.793   7.489  1.2151 -0.2627 -0.8292
  143OSM   C12S15700   2.260   3.936   7.608  0.0016 -0.8900 -0.5462
  143OSM   H12S15701   2.185   3.854   7.606  0.5223 -1.3528 -1.5169
  143OSM   H12T15702   2.216   4.037   7.600  1.8999 -0.2053 -4.0679
  143OSM   C13S15703   2.334   3.939   7.743  0.1602  0.9297 -0.3365
  143OSM   H13S15704   2.392   4.033   7.735  1.3196  0.2608  0.0084
  143OSM   H13T15705   2.394   3.848   7.764 -1.7561 -0.3637 -0.1820
  143OSM   C14S15706   2.225   3.939   7.860 -0.5949 -0.8638  0.0329
  143OSM   H14S15707   2.178   3.839   7.855 -0.3729 -0.9788  0.2475
  143OSM   H14T15708   2.152   4.019   7.835 -1.8763 -2.4440 -1.5103
  143OSM   C15S15709   2.289   3.954   8.000 -0.5380  0.3264 -0.7199
  143OSM   H15S15710   2.357   4.042   8.002 -1.0251  0.6977 -0.1705
  143OSM   H15T15711   2.356   3.871   8.028  1.1278  1.9436  0.3420
  143OSM   C16S15712   2.181   3.965   8.112  0.1741  0.7090  0.0010
  143OSM   H16S15713   2.088   3.921   8.070  0.6370  0.1525 -0.4718
  143OSM   H16T15714   2.147   4.069   8.130 -1.7346  0.9118 -3.7815
  143OSM   C17S15715   2.219   3.885   8.242 -0.0986  0.0205 -0.0429
  143OSM   H17S15716   2.225   3.781   8.203 -1.4685  0.6256 -2.0084
  143OSM   H17T15717   2.141   3.894   8.321  0.1944 -0.2936  0.2896
  143OSM   C18S15718   2.349   3.923   8.321  0.1026 -0.4253  0.7737
  143OSM   H18S15719   2.433   3.924   8.248 -1.2763  0.1386 -0.8842
  143OSM   H18T15720   2.372   3.859   8.409  0.7552  0.1594  1.0365
  143OSM   H18U15721   2.351   4.028   8.358 -1.5687  0.4988 -1.5247
  143OSM    C1F15722   2.499   4.202   6.564 -0.7787 -0.1153 -0.6272
  143OSM     OF15723   2.429   4.168   6.469  0.2201 -0.3043  0.0528
  143OSM    C2F15724   2.491   4.342   6.632  0.3401  0.1677 -0.2216
  143OSM    H2F15725   2.402   4.397   6.595 -0.0870 -1.0073 -1.0045
  143OSM    H2G15726   2.584   4.400   6.615  1.2495 -1.1195  0.1926
  143OSM    C3F15727   2.471   4.329   6.790  0.0384  0.4527 -1.1068
  143OSM    H3F15728   2.540   4.253   6.833 -1.4375 -0.8990 -1.0382
  143OSM    H3G15729   2.368   4.292   6.810  0.1819  0.7303  0.2330
  143OSM    C4F15730   2.476   4.459   6.865 -0.6919 -0.5149  0.2934
  143OSM    H4F15731   2.413   4.524   6.801  0.1433 -0.3392 -0.3736
  143OSM    H4G15732   2.579   4.503   6.863 -0.7595 -0.3668  0.0443
  143OSM    C5F15733   2.408   4.450   7.004 -0.0863  0.5394 -0.6182
  143OSM    H5F15734   2.301   4.426   6.988 -0.0671  0.2851 -0.3629
  143OSM    H5G15735   2.404   4.555   7.039 -0.6381 -0.0115  1.0380
  143OSM    C6F15736   2.478   4.362   7.104 -0.0083 -0.1321 -0.5013
  143OSM    H6F15737   2.569   4.418   7.136  0.9380 -1.6784 -0.3358
  143OSM    H6G15738   2.504   4.267   7.051 -0.0394 -0.9339  0.8611
  143OSM    C7F15739   2.389   4.328   7.233 -0.7007  0.1215  0.7729
  143OSM    H7F15740   2.317   4.253   7.193 -0.4202  0.0384  0.4194
  143OSM    H7G15741   2.342   4.427   7.251  0.6416  0.3081  3.7288
  143OSM    C8F15742   2.464   4.288   7.360 -0.0044  0.3178 -0.7371
  143OSM    H8F15743   2.540   4.211   7.331  0.2606  0.8844 -1.5737
  143OSM    H8G15744   2.396   4.234   7.430 -1.6072  1.8607 -1.0573
  143OSM    C9F15745   2.529   4.403   7.439  0.5691  0.0820  0.2688
  143OSM    H9F15746   2.624   4.434   7.394  0.9229  0.6545  1.3836
  143OSM   C10F15747   2.493   4.448   7.561 -0.5847  0.5145 -0.3653
  143OSM   H10F15748   2.548   4.531   7.607 -1.0846 -1.2765  3.8589
  143OSM   C11F15749   2.378   4.409   7.641 -0.8662  0.4754  0.0208
  143OSM   H11F15750   2.314   4.345   7.577 -0.9673  0.3637  0.2346
  143OSM   H11G15751   2.324   4.501   7.673 -1.0520 -0.1638  1.6515
  143OSM   C12F15752   2.427   4.336   7.769 -0.3072 -0.0872 -0.0585
  143OSM   H12F15753   2.480   4.240   7.751 -1.6764 -0.7389 -0.7053
  143OSM   H12G15754   2.337   4.317   7.832 -0.7208  1.8075 -0.0217
  143OSM   C13F15755   2.514   4.420   7.868 -0.2244  0.3718 -0.2771
  143OSM   H13F15756   2.457   4.513   7.886 -3.2113 -1.8112  2.8461
  143OSM   H13G15757   2.606   4.450   7.813  0.5718 -0.3755  0.5918
  143OSM   C14F15758   2.548   4.349   8.008  0.1135  0.3937  0.2676
  143OSM   H14F15759   2.630   4.411   8.050  3.5071 -2.1264 -2.0492
  143OSM   H14G15760   2.599   4.256   7.975  0.0161 -0.3400  2.0611
  143OSM   C15F15761   2.421   4.324   8.097 -0.2693  0.0800 -0.8760
  143OSM   H15F15762   2.365   4.234   8.065  0.8429 -0.3655 -1.6523
  143OSM   H15G15763   2.371   4.422   8.083  1.3974  0.8298 -1.9343
  143OSM   C16F15764   2.452   4.292   8.246  0.0032  0.0586 -0.6269
  143OSM   H16F15765   2.538   4.356   8.277  0.9975 -1.1292 -0.8507
  143OSM   H16G15766   2.482   4.185   8.254  0.5531  0.0801 -2.0790
  143OSM   C17F15767   2.331   4.318   8.338  0.1249 -0.6125  0.3114
  143OSM   H17F15768   2.261   4.234   8.317 -0.2818  0.5454 -3.8657
  143OSM   H17G15769   2.284   4.417   8.322 -1.8133 -1.2229  1.8045
  143OSM   C18F15770   2.368   4.326   8.482 -0.4464 -0.3097  0.7580
  143OSM   H18F15771   2.413   4.227   8.507 -0.2655 -2.0996 -5.0536
  143OSM   H18G15772   2.278   4.335   8.546  1.6327  0.2662  3.8148
  143OSM   H18H15773   2.436   4.408   8.511 -1.1780  0.4823  0.2648
  144OSM      N15774   1.789   4.301   6.024  0.1349 -0.7550 -0.4689
  144OSM    C1515775   1.728   4.424   5.968  0.5604 -0.6091 -0.3678
  144OSM   H15A15776   1.746   4.506   6.035  1.5501 -1.0368 -0.0968
  144OSM   H15B15777   1.623   4.416   5.942  0.6503 -2.8478 -0.1801
  144OSM   H15C15778   1.773   4.460   5.877  0.0076 -1.0412 -0.8240
  144OSM    C1415779   1.703   4.254   6.142 -0.0377  0.1884 -0.4506
  144OSM   H14A15780   1.608   4.215   6.109  0.7848 -2.8592  0.4607
  144OSM   H14B15781   1.694   4.328   6.221  1.1608  0.2257 -0.3353
  144OSM   H14C15782   1.752   4.166   6.179 -0.1245 -0.7953 -2.5548
  144OSM    C1315783   1.792   4.198   5.925 -0.2194  0.4593  0.1103
  144OSM   H13A15784   1.857   4.229   5.845  1.1252  0.3325  1.1168
  144OSM   H13B15785   1.692   4.173   5.894 -0.6094  0.3670  1.3845
  144OSM   H13C15786   1.827   4.098   5.949  0.1672  0.3337 -0.9285
  144OSM    C1215787   1.929   4.336   6.071 -0.0303  0.2311 -0.0213
  144OSM   H12A15788   1.982   4.379   5.987  0.5286  1.3974  0.8860
  144OSM   H12B15789   1.985   4.251   6.108 -0.0291  0.6788  1.0609
  144OSM    C1115790   1.938   4.459   6.172 -0.6737 -0.1300 -0.1820
  144OSM   H11A15791   1.877   4.545   6.136 -0.8803 -0.8525 -1.6307
  144OSM   H11B15792   2.044   4.491   6.181 -0.0416 -1.6284 -1.8872
  144OSM      P15793   1.976   4.340   6.396 -0.0786 -0.6686  0.5852
  144OSM    O1315794   1.885   4.239   6.443  0.6108  0.6637 -0.0550
  144OSM    O1415795   2.101   4.292   6.330 -0.2107  0.6165 -0.2166
  144OSM    O1115796   2.015   4.448   6.504  0.6941  0.4306  0.1113
  144OSM    O1215797   1.891   4.429   6.296 -0.0421 -0.8272 -0.5623
  144OSM    C1S15798   1.909   4.526   6.557  0.2389 -0.3297  0.8060
  144OSM    H1S15799   1.817   4.470   6.584  0.8466 -1.0013  1.5370
  144OSM    H1T15800   1.872   4.595   6.478  1.4681 -1.1763 -0.5579
  144OSM     NF15801   1.833   4.669   6.739 -0.2168  0.2909  0.0208
  144OSM    HNF15802   1.827   4.759   6.697 -1.2462 -0.6494 -1.9734
  144OSM    C2S15803   1.947   4.598   6.690 -0.4461  0.5615 -0.3139
  144OSM    H2S15804   1.967   4.519   6.765  2.6277 -1.3275 -2.8862
  144OSM    C3S15805   2.075   4.681   6.662 -0.2147 -0.4273  0.5005
  144OSM    H3S15806   2.048   4.747   6.577  0.0474 -1.2687 -0.2460
  144OSM     O315807   2.190   4.599   6.631 -0.2255  0.3629  0.6797
  144OSM    HO315808   2.147   4.518   6.603  1.5495  0.1293 -1.7548
  144OSM    C4S15809   2.117   4.758   6.775  0.4301  0.7397  0.0025
  144OSM    H4S15810   2.143   4.695   6.862  0.0893 -0.2749 -0.6167
  144OSM    C5S15811   2.123   4.885   6.794 -1.0130 -0.3376  0.3127
  144OSM    H5S15812   2.102   4.954   6.712  0.0222 -0.0339  0.2909
  144OSM    C6S15813   2.170   4.953   6.922  0.1954 -0.1122  0.3261
  144OSM    H6S15814   2.085   5.014   6.959  0.6365  0.1566  0.9121
  144OSM    H6T15815   2.231   5.041   6.894 -0.9752  1.5713  2.7439
  144OSM    C7S15816   2.231   4.862   7.032  0.5048  0.4982  0.8514
  144OSM    H7S15817   2.321   4.809   6.994 -0.9959 -1.7316  0.2005
  144OSM    H7T15818   2.157   4.782   7.054 -0.0091  0.3184 -1.3479
  144OSM    C8S15819   2.277   4.939   7.151 -0.7987  0.6226  0.0773
  144OSM    H8S15820   2.235   5.041   7.148 -1.1361  0.4854  0.0078
  144OSM    H8T15821   2.388   4.942   7.146 -0.7966 -0.4749 -0.9804
  144OSM    C9S15822   2.228   4.859   7.281 -0.4346 -0.3389  0.4521
  144OSM    H9S15823   2.305   4.780   7.289  2.5315  2.5465  3.4325
  144OSM    H9T15824   2.122   4.826   7.276 -0.6427 -0.3828  3.2106
  144OSM   C10S15825   2.241   4.948   7.399 -0.3449 -0.2772 -1.1242
  144OSM   H10S15826   2.183   5.042   7.389  2.1315  1.2034 -2.4200
  144OSM   H10T15827   2.351   4.960   7.404 -0.4553  0.7822  3.7357
  144OSM   C11S15828   2.196   4.875   7.528  0.2191  0.2926 -0.1317
  144OSM   H11S15829   2.245   4.776   7.527 -1.2892 -0.5282  1.7086
  144OSM   H11T15830   2.088   4.852   7.514  0.0756  1.4778 -1.1615
  144OSM   C12S15831   2.203   4.957   7.653  0.3045 -0.5129  0.0338
  144OSM   H12S15832   2.121   5.030   7.638 -0.5885 -1.8416 -1.8696
  144OSM   H12T15833   2.299   5.013   7.655 -0.3019  0.5380  0.4202
  144OSM   C13S15834   2.192   4.879   7.784 -0.4419  1.1986 -0.3943
  144OSM   H13S15835   2.140   4.782   7.770  0.2169  0.4111  2.1123
  144OSM   H13T15836   2.124   4.946   7.841 -0.0785  2.5109 -1.4603
  144OSM   C14S15837   2.325   4.846   7.852 -0.1646 -0.1267  0.2333
  144OSM   H14S15838   2.358   4.944   7.892 -1.0498  0.4218 -0.3378
  144OSM   H14T15839   2.395   4.812   7.773 -0.3051  2.7338 -1.2525
  144OSM   C15S15840   2.305   4.749   7.967 -0.8508  0.2088 -0.1463
  144OSM   H15S15841   2.401   4.739   8.023  0.3849  1.0130 -2.0194
  144OSM   H15T15842   2.269   4.647   7.944 -0.7890  0.5218 -1.6875
  144OSM   C16S15843   2.207   4.811   8.071 -0.5042 -0.1681  1.2439
  144OSM   H16S15844   2.105   4.786   8.035 -0.0775 -0.1356 -0.0193
  144OSM   H16T15845   2.218   4.922   8.067  1.3774 -0.3239  1.2812
  144OSM   C17S15846   2.232   4.773   8.211 -0.0906  1.1377 -0.1959
  144OSM   H17S15847   2.338   4.789   8.242 -0.0520 -0.8770  0.9094
  144OSM   H17T15848   2.237   4.663   8.220  0.7130  1.3080  2.1709
  144OSM   C18S15849   2.142   4.839   8.319  0.2970  0.1187 -0.0121
  144OSM   H18S15850   2.173   4.828   8.425 -0.6837 -1.3885  0.1379
  144OSM   H18T15851   2.042   4.791   8.315 -0.2727  1.2599  0.2409
  144OSM   H18U15852   2.121   4.944   8.287  0.7498 -0.5024 -2.5592
  144OSM    C1F15853   1.721   4.622   6.788  0.1105  0.2053  0.0275
  144OSM     OF15854   1.700   4.502   6.791  0.6764  0.0495 -0.2999
  144OSM    C2F15855   1.623   4.727   6.839 -0.8353  0.2922 -0.0564
  144OSM    H2F15856   1.542   4.744   6.764 -0.3558 -0.2440 -0.7137
  144OSM    H2G15857   1.675   4.825   6.837 -1.8781  1.0105  3.1244
  144OSM    C3F15858   1.550   4.698   6.974  0.0732  0.6912  0.5064
  144OSM    H3F15859   1.624   4.681   7.056 -1.4465 -0.2914  1.7347
  144OSM    H3G15860   1.481   4.611   6.964  1.1010 -0.0048 -0.9889
  144OSM    C4F15861   1.469   4.819   7.017 -0.0104 -0.0398 -0.2813
  144OSM    H4F15862   1.375   4.832   6.959  0.1261 -0.6700 -0.6600
  144OSM    H4G15863   1.536   4.906   7.000 -1.3595  1.4403  1.5922
  144OSM    C5F15864   1.436   4.799   7.160  0.0254 -0.4642 -0.5548
  144OSM    H5F15865   1.525   4.800   7.227 -0.4699  3.8745  0.3230
  144OSM    H5G15866   1.385   4.701   7.172  2.8098 -1.8611  0.6760
  144OSM    C6F15867   1.345   4.907   7.224  1.0400  0.5782 -0.0433
  144OSM    H6F15868   1.322   4.875   7.327 -1.3739  0.3543 -0.5850
  144OSM    H6G15869   1.248   4.911   7.171 -0.1657 -0.6641  1.9724
  144OSM    C7F15870   1.414   5.036   7.226  0.2502 -0.1348 -0.7290
  144OSM    H7F15871   1.453   5.068   7.127  0.3546 -1.9777 -1.3231
  144OSM    H7G15872   1.508   5.022   7.284  0.2608  0.9971 -0.4420
  144OSM    C8F15873   1.331   5.152   7.297  0.2966 -0.2770 -0.0451
  144OSM    H8F15874   1.319   5.120   7.403  0.9766  0.5304  0.2791
  144OSM    H8G15875   1.240   5.168   7.235  2.0518  0.6953 -2.5372
  144OSM    C9F15876   1.409   5.284   7.278  0.5610  0.2705  0.0564
  144OSM    H9F15877   1.402   5.325   7.176  1.1161 -0.7696 -0.4191
  144OSM   C10F15878   1.508   5.339   7.353  0.1622  0.1060 -0.1026
  144OSM   H10F15879   1.541   5.443   7.338 -2.4760  0.8683 -1.1790
  144OSM   C11F15880   1.564   5.278   7.480 -0.2679  0.4155 -0.0509
  144OSM   H11F15881   1.675   5.287   7.480  0.0109 -1.7494  2.5900
  144OSM   H11G15882   1.537   5.170   7.485  0.0302  0.2668 -1.2944
  144OSM   C12F15883   1.522   5.345   7.614 -0.4460  0.0820  0.0648
  144OSM   H12F15884   1.411   5.345   7.626 -0.3487 -0.2682  0.9989
  144OSM   H12G15885   1.563   5.448   7.625 -1.1166  0.3461  0.1479
  144OSM   C13F15886   1.558   5.256   7.734 -0.0784  0.4246  0.3629
  144OSM   H13F15887   1.669   5.252   7.734 -0.0597  0.8082  0.7689
  144OSM   H13G15888   1.517   5.153   7.724 -1.6104  0.9000  1.3393
  144OSM   C14F15889   1.496   5.314   7.856  0.0294  0.0865 -0.1998
  144OSM   H14F15890   1.388   5.292   7.844  0.1921 -0.4863 -0.6570
  144OSM   H14G15891   1.513   5.422   7.836 -0.8357  0.0922 -1.0017
  144OSM   C15F15892   1.551   5.281   7.996  0.1155 -0.5721 -0.1978
  144OSM   H15F15893   1.658   5.308   7.994  0.0589 -0.2706  0.3870
  144OSM   H15G15894   1.545   5.172   8.019  1.6946 -1.2254 -2.6301
  144OSM   C16F15895   1.500   5.373   8.100  0.7564 -0.1779  0.3984
  144OSM   H16F15896   1.389   5.365   8.103  0.6879  0.3176  4.3826
  144OSM   H16G15897   1.525   5.469   8.049 -0.7601 -0.9402 -1.9686
  144OSM   C17F15898   1.569   5.376   8.234 -0.9299  0.6637  0.3406
  144OSM   H17F15899   1.513   5.444   8.302 -1.1860  0.5417  0.2520
  144OSM   H17G15900   1.658   5.437   8.208  0.6405 -0.6491  2.2929
  144OSM   C18F15901   1.615   5.243   8.303 -0.2426 -0.2122  0.6956
  144OSM   H18F15902   1.650   5.275   8.403  2.2544 -0.4440 -0.0406
  144OSM   H18G15903   1.704   5.206   8.248  0.3768  0.6542  1.1047
  144OSM   H18H15904   1.537   5.163   8.307  0.0480 -0.5379  0.0615
  145SAPE     N15905   6.498   4.274  10.893 -0.5653 -0.0643  0.5865
  145SAPE   HN115906   6.412   4.266  10.834 -0.5326 -1.0654  0.6699
  145SAPE   HN215907   6.528   4.184  10.935 -1.5076 -0.2889  0.7952
  145SAPE   HN315908   6.474   4.329  10.978 -2.6009 -1.9539  1.3305
  145SAPE   C1215909   6.608   4.326  10.814 -0.3803  0.6393  0.2614
  145SAPE  H12A15910   6.640   4.255  10.736  0.2309  1.2382 -0.0432
  145SAPE  H12B15911   6.696   4.331  10.882  0.5334 -0.6036 -0.7809
  145SAPE   C1115912   6.573   4.459  10.742 -0.3029 -0.3959  0.0430
  145SAPE  H11A15913   6.646   4.510  10.677 -0.2256  0.5565  0.8520
  145SAPE  H11B15914   6.562   4.531  10.827 -0.3047 -0.0032 -0.2860
  145SAPE     P15915   6.375   4.569  10.616 -0.1507 -0.2711 -0.0498
  145SAPE   O1315916   6.287   4.618  10.723  0.1124  0.2628  0.3051
  145SAPE   O1415917   6.473   4.662  10.548  0.0639 -0.5783  0.0027
  145SAPE   O1215918   6.450   4.443  10.669 -0.2094  0.3438 -0.3677
  145SAPE   O1115919   6.281   4.513  10.503  1.2054 -0.2310 -0.4878
  145SAPE    C115920   6.286   4.393  10.430  0.4115 -0.8440 -0.4556
  145SAPE    HA15921   6.320   4.305  10.488  3.4045  1.7010  2.0451
  145SAPE    HB15922   6.186   4.380  10.382  0.2912  2.0848 -1.1753
  145SAPE    C215923   6.367   4.420  10.295 -0.3520  0.2397  0.2490
  145SAPE    HS15924   6.336   4.338  10.227  2.4888  0.0840 -0.9748
  145SAPE   O2115925   6.503   4.418  10.319 -0.9749  1.1913 -0.1557
  145SAPE   C2115926   6.550   4.295  10.357  0.1412 -0.7583  0.3504
  145SAPE   O2215927   6.485   4.192  10.361  0.6526  0.0241  0.1747
  145SAPE   C2215928   6.691   4.308  10.401 -0.0773  0.6656 -0.9384
  145SAPE   H2R15929   6.752   4.354  10.321  0.0195 -0.0624 -1.2966
  145SAPE   H2S15930   6.688   4.381  10.484  0.9726 -2.1648  1.7650
  145SAPE    C315931   6.334   4.551  10.227  0.0653 -0.1576  0.0896
  145SAPE    HX15932   6.389   4.634  10.277  1.0988 -0.9501  0.2854
  145SAPE    HY15933   6.224   4.571  10.226 -0.1372 -1.0522  1.7593
  145SAPE   O3115934   6.385   4.531  10.092  0.0783 -0.7508  0.1338
  145SAPE   C3115935   6.507   4.578  10.062  0.0223 -0.7946  0.3819
  145SAPE   O3215936   6.577   4.646  10.135 -0.4753 -0.3323  0.3639
  145SAPE   C3215937   6.538   4.517   9.930 -0.5830  0.1368  0.5888
  145SAPE   H2X15938   6.456   4.532   9.856 -1.6754  2.5217  2.1613
  145SAPE   H2Y15939   6.533   4.407   9.944  0.9214  0.0882  0.9886
  145SAPE   C2315940   6.756   4.178  10.451  0.0435 -0.1491  0.1628
  145SAPE   H3R15941   6.696   4.113  10.518  0.3437 -2.0163 -1.3084
  145SAPE   H3S15942   6.838   4.202  10.522  0.9772 -0.8209 -0.6761
  145SAPE   C2415943   6.814   4.086  10.346  0.8499 -0.3672  0.6427
  145SAPE   H4R15944   6.892   4.144  10.291 -1.7818  0.5155 -2.4611
  145SAPE   H4S15945   6.741   4.050  10.271 -1.1504 -0.1781  2.4088
  145SAPE   C2515946   6.880   3.973  10.408 -0.8931 -0.2311 -0.1617
  145SAPE   H5R15947   6.850   3.939  10.508  0.5922 -0.9713  0.0643
  145SAPE   C2615948   6.980   3.909  10.343  0.0389  0.4775 -0.0574
  145SAPE   H6R15949   7.035   3.832  10.398 -0.2287  0.5129  0.2635
  145SAPE   C2715950   7.044   3.931  10.207 -0.1546 -0.9204  0.1805
  145SAPE   H7R15951   6.966   3.970  10.138  1.3365  4.5700  1.0947
  145SAPE   H7S15952   7.092   3.845  10.156 -1.1210 -1.2185 -0.2437
  145SAPE   C2815953   7.141   4.049  10.212 -0.3000 -0.1963 -0.2090
  145SAPE   H8R15954   7.111   4.122  10.289 -0.0187 -1.9346  1.6411
  145SAPE   C2915955   7.240   4.072  10.124 -0.0929  0.1287  0.1152
  145SAPE   H9R15956   7.322   4.141  10.150 -0.3208  0.7673 -0.8392
  145SAPE  C21015957   7.271   3.980  10.006 -0.6529  0.0013  0.2764
  145SAPE  H10R15958   7.188   3.968   9.933 -0.8925  0.6559  0.4347
  145SAPE  H10S15959   7.279   3.872  10.032  1.5120 -0.1154 -0.7003
  145SAPE  C21115960   7.398   4.022   9.934 -0.5635 -0.0882  0.6950
  145SAPE  H11R15961   7.475   3.944   9.928 -1.2106 -0.7441  0.7541
  145SAPE  C21215962   7.428   4.143   9.881  0.1346 -0.0608 -0.0602
  145SAPE  H12R15963   7.523   4.151   9.826  0.6387 -0.9479  0.6592
  145SAPE  C21315964   7.339   4.265   9.870 -0.4837  0.5823  0.9745
  145SAPE  H13R15965   7.402   4.335   9.812 -0.3010 -0.1579  0.2658
  145SAPE  H13S15966   7.329   4.307   9.972 -0.1270  0.4234  1.0752
  145SAPE  C21415967   7.203   4.228   9.809 -0.0495 -0.1662  0.0269
  145SAPE  H14R15968   7.138   4.168   9.874  1.4424  0.0512  1.8220
  145SAPE  C21515969   7.151   4.276   9.700 -0.2301 -0.0014  0.3324
  145SAPE  H15R15970   7.048   4.248   9.674 -0.2656  2.3117 -2.5924
  145SAPE  C21615971   7.219   4.371   9.606 -0.7745  0.6157  0.0974
  145SAPE  H16R15972   7.279   4.451   9.654 -0.7086  2.1688 -2.3776
  145SAPE  H16S15973   7.141   4.419   9.543  0.2633  0.0504 -1.6918
  145SAPE  C21715974   7.328   4.310   9.515 -0.1443 -0.0056  0.2995
  145SAPE  H17R15975   7.387   4.236   9.574 -0.0568 -0.4749 -0.3557
  145SAPE  H17S15976   7.395   4.390   9.477  0.7924 -1.4266 -1.1807
  145SAPE  C21815977   7.261   4.251   9.382 -0.1582  0.1110  0.2079
  145SAPE  H18R15978   7.194   4.320   9.327 -0.3737  0.8877  1.3944
  145SAPE  H18S15979   7.196   4.168   9.417 -1.1609  0.7557 -0.1103
  145SAPE  C21915980   7.363   4.202   9.286 -0.4051 -0.1006  0.2089
  145SAPE  H19R15981   7.407   4.288   9.230  0.9656 -1.5235 -1.0272
  145SAPE  H19S15982   7.316   4.141   9.206 -0.5934 -0.4340  0.5701
  145SAPE  C22015983   7.475   4.126   9.344 -0.5994  0.1443  0.1561
  145SAPE  H20R15984   7.529   4.068   9.266 -3.1026  1.2874 -2.5948
  145SAPE  H20S15985   7.425   4.052   9.410  0.6708 -1.0134 -0.1253
  145SAPE  H20T15986   7.539   4.201   9.395 -0.8171  0.5836 -0.2129
  145SAPE   C3315987   6.677   4.538   9.852 -1.1326  0.7555  0.5565
  145SAPE   H3X15988   6.702   4.439   9.809 -0.3994  0.0363  2.5273
  145SAPE   H3Y15989   6.759   4.563   9.923  1.4137 -0.8554 -1.6304
  145SAPE   C3415990   6.664   4.641   9.743  0.5290 -0.4986 -0.3737
  145SAPE   H4X15991   6.640   4.743   9.781 -2.5267 -0.6599 -1.5303
  145SAPE   H4Y15992   6.588   4.612   9.667  0.1814  1.2129 -0.7359
  145SAPE   C3515993   6.800   4.660   9.672  0.1935 -0.2143  0.4648
  145SAPE   H5X15994   6.848   4.560   9.678 -1.3296 -1.0329 -0.3663
  145SAPE   H5Y15995   6.864   4.734   9.724  1.0057 -0.6140  0.0521
  145SAPE   C3615996   6.777   4.680   9.518  0.5569  0.0784 -0.6861
  145SAPE   H6X15997   6.685   4.634   9.477 -0.6036  2.2860 -0.7056
  145SAPE   H6Y15998   6.858   4.619   9.473  0.1190 -0.0066 -1.3863
  145SAPE   C3715999   6.801   4.832   9.486 -0.4478 -0.3521 -0.0191
  145SAPE   H7X16000   6.881   4.875   9.550 -0.8332  2.1157 -1.0839
  145SAPE   H7Y16001   6.707   4.882   9.517 -0.0095  0.4711 -0.0084
  145SAPE   C3816002   6.817   4.858   9.337 -0.5683 -0.2402  0.3339
  145SAPE   H8X16003   6.830   4.966   9.311  1.7983 -0.6210 -0.2944
  145SAPE   H8Y16004   6.731   4.818   9.280  0.2763  0.8778 -1.8382
  145SAPE   C3916005   6.944   4.791   9.283 -0.1679  0.6365  0.9036
  145SAPE   H9X16006   6.937   4.681   9.292  1.6238  0.2159 -1.8134
  145SAPE   H9Y16007   7.033   4.834   9.333  0.9399  0.0123 -0.4952
  145SAPE  C31016008   6.951   4.828   9.133  0.2882 -0.0207  0.4466
  145SAPE  H10X16009   6.977   4.936   9.134  3.3690 -0.6744  0.5798
  145SAPE  H10Y16010   6.858   4.806   9.077 -0.1295 -0.8988  1.4513
  145SAPE  C31116011   7.062   4.746   9.073 -0.0761  0.3183 -0.6586
  145SAPE  H11X16012   7.048   4.636   9.079 -0.8830  0.4674  0.4006
  145SAPE  H11Y16013   7.153   4.759   9.136 -1.7551  0.9872  1.7605
  145SAPE  C31216014   7.098   4.791   8.927 -0.4269  0.0867 -0.6509
  145SAPE  H12X16015   7.014   4.802   8.855  1.0434  0.0424 -2.4291
  145SAPE  H12Y16016   7.168   4.709   8.901 -1.0174 -0.3626 -0.8508
  145SAPE  C31316017   7.177   4.922   8.928 -0.1608 -0.1131 -0.1804
  145SAPE  H13X16018   7.285   4.904   8.941  0.3602  2.1410 -0.9323
  145SAPE  H13Y16019   7.137   4.978   9.016 -1.9701 -2.7089  0.7935
  145SAPE  C31416020   7.167   5.006   8.802  0.1571 -0.2413 -0.6129
  145SAPE  H14X16021   7.059   5.025   8.786 -0.1146 -1.0792  0.1803
  145SAPE  H14Y16022   7.195   4.943   8.714  0.6769 -0.3684 -0.3635
  145SAPE  C31516023   7.264   5.125   8.813  0.6053 -0.6959 -0.1388
  145SAPE  H15X16024   7.288   5.160   8.710 -1.2213  0.4835 -0.2068
  145SAPE  H15Y16025   7.361   5.098   8.859  1.1043  1.2095  0.0193
  145SAPE  C31616026   7.213   5.253   8.881  0.8113  0.5492  0.3587
  145SAPE  H16X16027   7.199   5.223   8.987  1.4132  0.1873  0.3435
  145SAPE  H16Y16028   7.116   5.287   8.839  1.3652  0.1009 -1.3724
  145SAPE  C31716029   7.303   5.377   8.867  0.3559  0.6013  0.3062
  145SAPE  H17X16030   7.246   5.453   8.926  0.2260  0.6290  0.1455
  145SAPE  H17Y16031   7.311   5.399   8.758 -0.3676 -3.0594 -0.6309
  145SAPE  C31816032   7.436   5.367   8.934 -0.0955  0.9813 -0.7264
  145SAPE  H18X16033   7.483   5.467   8.925  0.8776  0.5410 -0.6032
  145SAPE  H18Y16034   7.505   5.289   8.897 -0.0144  1.0106 -0.6347
  145SAPE  H18Z16035   7.420   5.361   9.044  0.5743 -3.3820 -0.7167
  146SAPE     N16036   6.364   1.037  10.621  0.0577  0.2734  0.5689
  146SAPE   HN116037   6.302   0.957  10.598 -1.0267  1.0669  0.6334
  146SAPE   HN216038   6.317   1.082  10.702 -0.6773  1.2495 -0.3662
  146SAPE   HN316039   6.362   1.104  10.541 -3.5038 -0.7145 -0.3426
  146SAPE   C1216040   6.505   0.986  10.641 -0.3933 -0.0141 -0.0660
  146SAPE  H12A16041   6.574   1.071  10.661 -0.1144 -0.8625  3.2259
  146SAPE  H12B16042   6.533   0.938  10.545 -0.8766  1.7078 -1.1053
  146SAPE   C1116043   6.511   0.895  10.762  0.0787  0.1288 -0.6367
  146SAPE  H11A16044   6.476   0.947  10.853  0.7647 -0.6996  0.1227
  146SAPE  H11B16045   6.621   0.881  10.776  0.7649  1.4608 -3.7313
  146SAPE     P16046   6.394   0.670  10.838  0.1267 -0.1239 -0.2457
  146SAPE   O1316047   6.433   0.722  10.972 -0.9600  0.4937  0.3265
  146SAPE   O1416048   6.251   0.620  10.821  0.3957 -0.1216 -0.2022
  146SAPE   O1216049   6.427   0.782  10.740  0.3422 -0.0010  0.1930
  146SAPE   O1116050   6.493   0.553  10.792  0.0822 -0.1889 -0.6183
  146SAPE    C116051   6.623   0.580  10.745  0.0182 -0.0177 -0.3383
  146SAPE    HA16052   6.675   0.658  10.803 -1.6576 -0.1011  1.3831
  146SAPE    HB16053   6.685   0.488  10.740 -0.9725 -0.6418 -2.2935
  146SAPE    C216054   6.616   0.607  10.585  0.5393  0.8393 -0.5714
  146SAPE    HS16055   6.560   0.700  10.561  3.0478  2.6887  0.1727
  146SAPE   O2116056   6.558   0.487  10.526 -0.4025  0.0542  0.7156
  146SAPE   C2116057   6.474   0.516  10.419  0.2753  0.0345  0.3480
  146SAPE   O2216058   6.441   0.628  10.381 -0.6016  0.7729  0.2157
  146SAPE   C2216059   6.449   0.388  10.338  0.1409 -0.0834  0.3819
  146SAPE   H2R16060   6.545   0.336  10.321  0.8890  1.5599 -0.6664
  146SAPE   H2S16061   6.369   0.332  10.390 -0.5658  0.1306 -0.4641
  146SAPE    C316062   6.755   0.618  10.531  0.0717 -0.1384  0.4399
  146SAPE    HX16063   6.816   0.532  10.567  1.6477  0.1349 -1.3959
  146SAPE    HY16064   6.799   0.708  10.578 -0.3317  0.2275  0.1194
  146SAPE   O3116065   6.754   0.619  10.387 -0.1559  0.4834  0.2826
  146SAPE   C3116066   6.764   0.735  10.327  0.1291  0.3843 -0.7848
  146SAPE   O3216067   6.755   0.846  10.381 -0.4046  0.2261  0.2080
  146SAPE   C3216068   6.780   0.706  10.178  0.0750 -0.2907 -0.4645
  146SAPE   H2X16069   6.699   0.633  10.155 -2.5969  1.5843  2.2248
  146SAPE   H2Y16070   6.885   0.673  10.162  0.6016  1.9819 -2.1453
  146SAPE   C2316071   6.391   0.414  10.199  0.2224 -0.4659 -0.4002
  146SAPE   H3R16072   6.453   0.487  10.142 -1.5806  1.4522 -0.0331
  146SAPE   H3S16073   6.296   0.466  10.223  0.6268 -0.4485  1.2736
  146SAPE   C2416074   6.390   0.288  10.108  0.1038  0.1379 -0.5097
  146SAPE   H4R16075   6.328   0.302  10.017 -1.7400  0.7664  0.7844
  146SAPE   H4S16076   6.347   0.203  10.164 -0.7997  0.4828 -0.6677
  146SAPE   C2516077   6.518   0.245  10.062  0.3819  0.4174 -0.2012
  146SAPE   H5R16078   6.582   0.224  10.149  1.6408  0.9342 -0.9613
  146SAPE   C2616079   6.567   0.253   9.936 -0.4549 -0.2850  0.4490
  146SAPE   H6R16080   6.668   0.215   9.913 -1.4348 -1.6482 -1.9246
  146SAPE   C2716081   6.498   0.301   9.811  0.0844 -0.0256 -0.1735
  146SAPE   H7R16082   6.389   0.297   9.832 -0.0488 -3.9857 -0.7979
  146SAPE   H7S16083   6.524   0.238   9.723 -0.4189  1.1512 -1.1836
  146SAPE   C2816084   6.529   0.451   9.799 -0.2176 -0.9655  0.4991
  146SAPE   H8R16085   6.576   0.492   9.889 -0.7605  1.6059 -0.3054
  146SAPE   C2916086   6.519   0.529   9.689 -0.4450  0.0330 -0.0506
  146SAPE   H9R16087   6.541   0.637   9.700  0.8926 -0.4512  2.8277
  146SAPE  C21016088   6.473   0.492   9.551  0.4635 -0.4606 -0.6255
  146SAPE  H10R16089   6.496   0.390   9.513  0.8287 -0.4874 -0.3378
  146SAPE  H10S16090   6.527   0.554   9.475  0.6604 -0.1525 -0.2375
  146SAPE  C21116091   6.326   0.487   9.536  0.0904  0.5414  0.9771
  146SAPE  H11R16092   6.270   0.462   9.628  0.2583 -1.4507  0.5927
  146SAPE  C21216093   6.265   0.504   9.421  0.8571 -0.8735 -0.8153
  146SAPE  H12R16094   6.156   0.495   9.418  0.6574  0.7942 -0.0756
  146SAPE  C21316095   6.324   0.525   9.295  0.0038 -0.8443 -0.2871
  146SAPE  H13R16096   6.267   0.499   9.203  2.7925  2.4151 -3.2194
  146SAPE  H13S16097   6.417   0.465   9.288 -0.1143 -0.8589 -2.8932
  146SAPE  C21416098   6.363   0.666   9.277 -0.5416 -0.0034  0.7270
  146SAPE  H14R16099   6.369   0.735   9.362 -1.5118  1.4738 -0.3599
  146SAPE  C21516100   6.378   0.729   9.156  0.2025  0.4354 -0.9636
  146SAPE  H15R16101   6.426   0.828   9.148  0.1606  0.5190 -0.2732
  146SAPE  C21616102   6.367   0.652   9.025  0.6424  0.6430  0.1677
  146SAPE  H16R16103   6.262   0.618   9.025  1.3414 -1.6999 -0.9135
  146SAPE  H16S16104   6.434   0.564   9.019  0.1854  0.3658 -1.5171
  146SAPE  C21716105   6.390   0.734   8.900  0.4672 -0.2890  0.3925
  146SAPE  H17R16106   6.340   0.833   8.903  1.0085  0.0622 -1.2039
  146SAPE  H17S16107   6.342   0.685   8.813  2.4815  1.6130 -1.9680
  146SAPE  C21816108   6.543   0.750   8.862  0.5449 -0.0876 -0.1606
  146SAPE  H18R16109   6.590   0.649   8.863 -0.0346 -0.3709 -0.7067
  146SAPE  H18S16110   6.604   0.816   8.927 -0.3349  1.4236 -0.8104
  146SAPE  C21916111   6.545   0.799   8.717 -0.2126 -0.4046 -0.0339
  146SAPE  H19R16112   6.481   0.890   8.716  2.3530  1.5076 -1.4172
  146SAPE  H19S16113   6.496   0.721   8.655 -1.1020 -0.3557  0.5808
  146SAPE  C22016114   6.695   0.837   8.685  0.4512 -0.3072 -0.7841
  146SAPE  H20R16115   6.730   0.922   8.746 -1.2634 -0.4114  0.4136
  146SAPE  H20S16116   6.705   0.861   8.577  2.8175 -1.1014 -0.8001
  146SAPE  H20T16117   6.761   0.747   8.690  2.2951  1.0571  1.1124
  146SAPE   C3316118   6.752   0.833  10.095 -0.8558 -0.7542  0.2703
  146SAPE   H3X16119   6.818   0.920  10.116 -1.1962  0.4210 -2.9041
  146SAPE   H3Y16120   6.645   0.855  10.116 -0.7709  0.1066 -0.1457
  146SAPE   C3416121   6.752   0.802   9.944 -0.4894 -0.6143 -0.4605
  146SAPE   H4X16122   6.668   0.733   9.923 -0.0086 -1.6498  0.9134
  146SAPE   H4Y16123   6.837   0.741   9.907  1.3443  2.3081 -1.4686
  146SAPE   C3516124   6.731   0.929   9.866 -0.1687  0.5607 -0.4347
  146SAPE   H5X16125   6.775   1.017   9.917 -1.3051 -0.0444  1.7092
  146SAPE   H5Y16126   6.620   0.932   9.865 -0.2790 -1.5051 -2.2004
  146SAPE   C3616127   6.765   0.926   9.719 -0.4090  0.2878 -0.1894
  146SAPE   H6X16128   6.695   0.854   9.672 -0.4356  0.6186 -0.6698
  146SAPE   H6Y16129   6.869   0.895   9.696 -0.0785  1.1705  0.0551
  146SAPE   C3716130   6.726   1.057   9.641  0.2346  0.3961  0.2307
  146SAPE   H7X16131   6.780   1.138   9.695 -0.5651  0.9860  0.1561
  146SAPE   H7Y16132   6.616   1.067   9.645 -0.0140  0.3267 -3.3394
  146SAPE   C3816133   6.760   1.045   9.495 -0.3950 -0.5324 -0.1449
  146SAPE   H8X16134   6.715   0.949   9.461 -2.0456  0.2862 -0.3689
  146SAPE   H8Y16135   6.869   1.025   9.491 -0.5416 -1.7522  1.0533
  146SAPE   C3916136   6.718   1.162   9.400  0.5009 -1.0574  0.2822
  146SAPE   H9X16137   6.793   1.243   9.411  0.6650 -1.0206 -0.9560
  146SAPE   H9Y16138   6.627   1.218   9.431  1.7238  0.1844  1.7808
  146SAPE  C31016139   6.704   1.114   9.251  0.7172  0.2619 -1.2092
  146SAPE  H10X16140   6.615   1.047   9.252  1.8022 -1.2638 -1.8879
  146SAPE  H10Y16141   6.794   1.057   9.221  0.7943  0.2956 -1.0465
  146SAPE  C31116142   6.659   1.217   9.151 -0.3920  0.4578  0.1125
  146SAPE  H11X16143   6.724   1.307   9.156  0.9988 -0.4551 -0.8786
  146SAPE  H11Y16144   6.558   1.253   9.179 -1.1733 -1.6577  0.2076
  146SAPE  C31216145   6.648   1.160   9.007 -0.3849 -0.7640  0.4746
  146SAPE  H12X16146   6.573   1.078   9.001 -0.9687 -0.4495  2.7551
  146SAPE  H12Y16147   6.736   1.097   8.983 -0.6440 -1.5103  1.4347
  146SAPE  C31316148   6.617   1.270   8.900  0.3328 -0.3740 -0.6595
  146SAPE  H13X16149   6.693   1.352   8.895 -2.6558  2.5503 -1.4576
  146SAPE  H13Y16150   6.524   1.323   8.928 -0.1086 -1.4830 -0.0061
  146SAPE  C31416151   6.591   1.207   8.765 -0.4589  0.4079 -0.3686
  146SAPE  H14X16152   6.502   1.141   8.768  0.2836 -0.6585 -1.0352
  146SAPE  H14Y16153   6.682   1.153   8.731 -0.0783  1.3340 -0.8824
  146SAPE  C31516154   6.575   1.309   8.662 -0.1611 -0.5297 -0.2347
  146SAPE  H15X16155   6.682   1.337   8.647 -0.2624 -0.4932 -0.9457
  146SAPE  H15Y16156   6.518   1.394   8.705  0.7854  0.1446 -0.2836
  146SAPE  C31616157   6.507   1.266   8.528  0.1084  0.6532  0.5281
  146SAPE  H16X16158   6.525   1.342   8.449 -0.0545  0.3530  0.1981
  146SAPE  H16Y16159   6.398   1.256   8.549  0.4093 -0.1885  1.7753
  146SAPE  C31716160   6.547   1.130   8.467  0.4960  0.3796  0.5117
  146SAPE  H17X16161   6.497   1.044   8.516  3.7221 -0.2965  2.9546
  146SAPE  H17Y16162   6.656   1.111   8.477  0.1792 -0.5966  2.8254
  146SAPE  C31816163   6.512   1.118   8.317 -0.1442  0.6306 -1.2912
  146SAPE  H18X16164   6.522   1.014   8.280  0.0423  1.1377 -2.7540
  146SAPE  H18Y16165   6.571   1.193   8.259 -0.0284  0.9787 -0.7352
  146SAPE  H18Z16166   6.402   1.131   8.306 -0.3217 -0.7425 -1.2799
  147SAPE     N16167   1.146   2.735  10.641 -0.3207 -0.1121 -0.2536
  147SAPE   HN116168   1.048   2.718  10.612 -0.6780  2.3475 -0.6626
  147SAPE   HN216169   1.151   2.773  10.737 -1.0773 -1.7332  0.4641
  147SAPE   HN316170   1.201   2.803  10.585 -0.5002  0.9244  0.8118
  147SAPE   C1216171   1.233   2.612  10.645  0.6367  0.3036 -0.5980
  147SAPE  H12A16172   1.230   2.568  10.544  0.3978  2.8277 -1.7566
  147SAPE  H12B16173   1.196   2.538  10.720  0.2709 -0.0275 -1.1064
  147SAPE   C1116174   1.375   2.648  10.688  0.3649 -0.0529 -0.0828
  147SAPE  H11A16175   1.423   2.689  10.597  0.8843  1.4327  0.8302
  147SAPE  H11B16176   1.425   2.554  10.719 -0.6256 -1.1910 -1.7336
  147SAPE     P16177   1.524   2.822  10.807 -0.2943 -0.4990 -0.1587
  147SAPE   O1316178   1.506   2.966  10.762 -0.1736 -0.1246 -0.2788
  147SAPE   O1416179   1.577   2.790  10.942  0.2404  0.6454 -0.2748
  147SAPE   O1216180   1.382   2.751  10.790 -0.2465 -0.2890  0.1642
  147SAPE   O1116181   1.625   2.758  10.698  0.0511 -0.2242  0.5107
  147SAPE    C116182   1.741   2.838  10.672  0.5016  0.7336  0.5125
  147SAPE    HA16183   1.703   2.928  10.620 -0.2524 -0.3619 -0.9287
  147SAPE    HB16184   1.791   2.865  10.767  0.1143 -1.8155  1.5254
  147SAPE    C216185   1.835   2.768  10.570 -0.0120  0.0890  0.2736
  147SAPE    HS16186   1.919   2.841  10.567 -0.5019  0.6317 -0.3895
  147SAPE   O2116187   1.780   2.751  10.440 -0.3368  0.2726  0.4466
  147SAPE   C2116188   1.743   2.867  10.377 -0.2943  0.0466  1.1048
  147SAPE   O2216189   1.796   2.977  10.397  0.4627  0.5980  0.0509
  147SAPE   C2216190   1.637   2.828  10.273 -0.2359 -0.0901 -0.1646
  147SAPE   H2R16191   1.687   2.751  10.211  0.1197 -0.3315  0.4134
  147SAPE   H2S16192   1.557   2.769  10.323  1.2303 -1.1334  1.0582
  147SAPE    C316193   1.869   2.630  10.638 -0.1758 -0.0080  0.6273
  147SAPE    HX16194   1.789   2.554  10.653  0.8077 -1.0779  0.6021
  147SAPE    HY16195   1.913   2.645  10.739  1.4406  0.2729 -0.0896
  147SAPE   O3116196   1.961   2.569  10.552  0.3514  0.2551 -0.0396
  147SAPE   C3116197   2.008   2.462  10.598  0.3066  0.2520 -0.1818
  147SAPE   O3216198   1.978   2.404  10.700 -0.3509  0.3257  0.7897
  147SAPE   C3216199   2.087   2.397  10.484  0.5190 -0.2974 -0.2387
  147SAPE   H2X16200   2.033   2.402  10.387  0.3571 -1.1217 -0.1978
  147SAPE   H2Y16201   2.091   2.286  10.492 -0.5871 -0.2609  1.1298
  147SAPE   C2316202   1.588   2.943  10.175  0.2216  0.5759 -0.9544
  147SAPE   H3R16203   1.678   2.980  10.121  0.3689  1.4411 -0.1580
  147SAPE   H3S16204   1.563   3.029  10.241  0.3829  0.1306 -0.3016
  147SAPE   C2416205   1.471   2.897  10.079  0.3046 -0.1652 -0.1797
  147SAPE   H4R16206   1.437   2.984  10.018 -1.9905 -1.2823 -0.6151
  147SAPE   H4S16207   1.387   2.862  10.143  0.1907 -2.2027 -1.3565
  147SAPE   C2516208   1.514   2.777   9.996  0.7779  0.2702  0.3114
  147SAPE   H5R16209   1.573   2.700  10.048  4.8186  2.2116 -1.0560
  147SAPE   C2616210   1.500   2.770   9.866  0.6583 -0.3080 -0.2942
  147SAPE   H6R16211   1.536   2.680   9.812 -0.1370 -0.3404 -0.7925
  147SAPE   C2716212   1.427   2.868   9.786 -0.2821  0.1179 -0.2954
  147SAPE   H7R16213   1.482   2.877   9.690  0.4174 -1.3089 -0.0619
  147SAPE   H7S16214   1.435   2.973   9.821 -0.9810 -0.0363  0.3478
  147SAPE   C2816215   1.284   2.826   9.753  0.2847 -0.2837 -0.0502
  147SAPE   H8R16216   1.260   2.731   9.702 -1.1633  0.3456 -0.5834
  147SAPE   C2916217   1.184   2.907   9.796 -0.4265 -0.7226  0.3035
  147SAPE   H9R16218   1.081   2.875   9.775 -0.7125 -1.4447  2.5344
  147SAPE  C21016219   1.190   3.029   9.883 -0.6145 -0.4389 -0.5263
  147SAPE  H10R16220   1.276   3.099   9.878 -1.1610  0.5962  2.3183
  147SAPE  H10S16221   1.187   2.996   9.989 -0.1412 -1.9617 -0.9619
  147SAPE  C21116222   1.076   3.133   9.861 -0.0950 -0.4083 -0.1592
  147SAPE  H11R16223   1.002   3.133   9.943 -1.6824 -0.6309 -1.5260
  147SAPE  C21216224   1.073   3.228   9.763 -0.0742  0.1811  1.0185
  147SAPE  H12R16225   0.990   3.299   9.762 -1.2896 -1.1932  0.0379
  147SAPE  C21316226   1.178   3.245   9.653 -0.6752  0.3142 -0.7527
  147SAPE  H13R16227   1.242   3.154   9.656  1.3114  1.6516 -0.6607
  147SAPE  H13S16228   1.252   3.322   9.685  0.5027 -1.5013  1.1531
  147SAPE  C21416229   1.123   3.293   9.522 -0.5661  0.6098 -0.8896
  147SAPE  H14R16230   1.050   3.375   9.533  1.4819  2.3392  0.9453
  147SAPE  C21516231   1.169   3.244   9.406 -0.0433  0.7193 -0.2233
  147SAPE  H15R16232   1.128   3.277   9.310  1.6889 -1.3998 -1.8166
  147SAPE  C21616233   1.258   3.125   9.386 -0.4135  0.7529 -0.8656
  147SAPE  H16R16234   1.312   3.090   9.477 -0.0816  1.5090 -0.7653
  147SAPE  H16S16235   1.337   3.163   9.317  0.8993 -0.1966  0.0737
  147SAPE  C21716236   1.185   3.001   9.321 -0.2719 -0.6225  0.1520
  147SAPE  H17R16237   1.118   3.025   9.235 -0.6629  1.3530  0.9662
  147SAPE  H17S16238   1.115   2.962   9.398 -1.1942  0.9605  0.1596
  147SAPE  C21816239   1.286   2.893   9.278 -0.1163  0.6980  0.0907
  147SAPE  H18R16240   1.331   2.862   9.375  1.9475 -1.6171 -1.4830
  147SAPE  H18S16241   1.366   2.926   9.209 -1.2921 -0.4140 -1.9047
  147SAPE  C21916242   1.209   2.782   9.202 -0.3361  0.3873  0.3752
  147SAPE  H19R16243   1.109   2.762   9.246 -0.0986  1.8558  1.7063
  147SAPE  H19S16244   1.268   2.691   9.226  3.2262  2.8149  1.9028
  147SAPE  C22016245   1.194   2.805   9.054 -0.1994  0.1768 -0.1368
  147SAPE  H20R16246   1.133   2.898   9.055 -0.2090  0.2199  2.4119
  147SAPE  H20S16247   1.144   2.722   9.000  2.3738 -1.7963  0.3202
  147SAPE  H20T16248   1.295   2.815   9.009  0.7159 -0.9496  1.5335
  147SAPE   C3316249   2.228   2.458  10.470 -0.0349 -0.6988  0.4779
  147SAPE   H3X16250   2.292   2.447  10.561  1.7060  0.3579 -0.5555
  147SAPE   H3Y16251   2.231   2.563  10.435 -0.2138 -0.7232  0.3894
  147SAPE   C3416252   2.315   2.388  10.355 -0.7887  0.0937  0.2866
  147SAPE   H4X16253   2.268   2.288  10.342 -0.3952  0.1363 -1.8319
  147SAPE   H4Y16254   2.421   2.378  10.386 -0.0784 -0.2096 -2.0623
  147SAPE   C3516255   2.305   2.459  10.220  0.7264  0.9395 -0.2969
  147SAPE   H5X16256   2.350   2.559  10.233  0.1753  0.8885  2.6551
  147SAPE   H5Y16257   2.198   2.479  10.195  0.2163 -0.5307  0.5894
  147SAPE   C3616258   2.368   2.398  10.096  0.0233 -0.2423 -1.1827
  147SAPE   H6X16259   2.342   2.291  10.082 -0.8116  0.1999 -3.5694
  147SAPE   H6Y16260   2.478   2.413  10.106 -0.1188  1.1083 -1.4888
  147SAPE   C3716261   2.335   2.462   9.962  0.1851 -0.6655 -0.2992
  147SAPE   H7X16262   2.228   2.494   9.956  0.4413  0.4938  0.8157
  147SAPE   H7Y16263   2.349   2.385   9.884 -1.2129  0.0219 -1.2783
  147SAPE   C3816264   2.426   2.583   9.924  0.4133 -0.8423  0.1604
  147SAPE   H8X16265   2.532   2.551   9.926  1.1680  1.4655 -0.1555
  147SAPE   H8Y16266   2.413   2.655  10.008 -2.0497  0.3071 -1.1086
  147SAPE   C3916267   2.391   2.644   9.790  0.1568 -0.8214 -0.2005
  147SAPE   H9X16268   2.463   2.727   9.772  0.0345 -0.7428 -0.3324
  147SAPE   H9Y16269   2.292   2.693   9.805  0.8203  0.5296 -0.1016
  147SAPE  C31016270   2.400   2.558   9.661  0.3092 -0.1017  0.2150
  147SAPE  H10X16271   2.335   2.472   9.687 -1.1122  0.2679 -1.8912
  147SAPE  H10Y16272   2.504   2.523   9.641  0.6403  0.7462  0.4109
  147SAPE  C31116273   2.332   2.622   9.536  0.0906  0.2178 -0.5636
  147SAPE  H11X16274   2.395   2.703   9.493 -0.6767 -0.3155 -2.8721
  147SAPE  H11Y16275   2.235   2.664   9.570  0.7203  0.2280  1.2949
  147SAPE  C31216276   2.303   2.512   9.429  0.3419 -0.1717 -0.5737
  147SAPE  H12X16277   2.258   2.555   9.337  2.9928  2.0750 -0.9591
  147SAPE  H12Y16278   2.235   2.437   9.475  0.0835  1.1747  1.3482
  147SAPE  C31316279   2.427   2.438   9.395 -0.4554  0.2149  0.2074
  147SAPE  H13X16280   2.480   2.382   9.475  0.0447 -1.2730 -1.1299
  147SAPE  H13Y16281   2.489   2.527   9.371 -1.2573  0.5975 -0.4897
  147SAPE  C31416282   2.421   2.365   9.258 -0.6297 -0.0950  0.3081
  147SAPE  H14X16283   2.378   2.431   9.179 -0.5154  0.0228  0.3444
  147SAPE  H14Y16284   2.363   2.273   9.278  1.1319 -1.0026  1.3987
  147SAPE  C31516285   2.556   2.324   9.189  0.4873 -0.2814  0.1007
  147SAPE  H15X16286   2.594   2.242   9.253 -0.3891 -0.5756  0.2578
  147SAPE  H15Y16287   2.626   2.409   9.199 -0.4728  0.3747  1.3982
  147SAPE  C31616288   2.530   2.286   9.043  0.1968  0.0937 -0.0484
  147SAPE  H16X16289   2.498   2.380   8.992 -0.0873  0.7344  1.2505
  147SAPE  H16Y16290   2.450   2.209   9.040  0.1110  0.1878 -3.0653
  147SAPE  C31716291   2.665   2.239   8.988 -0.0886 -0.1006 -0.6956
  147SAPE  H17X16292   2.649   2.174   8.899 -2.2726 -1.4288  0.5751
  147SAPE  H17Y16293   2.723   2.181   9.063 -1.2379  0.2278  0.4948
  147SAPE  C31816294   2.737   2.362   8.937  0.7168  0.3821 -0.0017
  147SAPE  H18X16295   2.778   2.431   9.014  0.4324  0.4033  0.1306
  147SAPE  H18Y16296   2.670   2.414   8.866  1.0082  0.4660 -0.2185
  147SAPE  H18Z16297   2.824   2.318   8.883  0.4414  0.7605 -0.7748
  148SAPE     N16298   2.073   5.560  10.767  0.1030 -0.7514 -0.4988
  148SAPE   HN116299   1.973   5.534  10.783  0.1591 -0.8679 -0.3227
  148SAPE   HN216300   2.135   5.498  10.824  0.7412  0.0800 -0.2705
  148SAPE   HN316301   2.081   5.657  10.802  0.2103 -0.9397  0.0100
  148SAPE   C1216302   2.099   5.548  10.624 -0.1057 -0.1489 -0.8774
  148SAPE  H12A16303   2.205   5.572  10.603  0.2939 -1.2769 -0.2072
  148SAPE  H12B16304   2.025   5.622  10.584  0.2796  0.6716 -0.1093
  148SAPE   C1116305   2.069   5.407  10.575 -0.5058 -0.3532  0.1485
  148SAPE  H11A16306   2.156   5.343  10.598 -0.7657 -1.8561 -2.6589
  148SAPE  H11B16307   2.050   5.408  10.465  0.0976 -0.0226  0.0458
  148SAPE     P16308   1.810   5.316  10.570  0.0819 -0.1805 -0.0583
  148SAPE   O1316309   1.800   5.170  10.553  0.0869  0.4359  0.2218
  148SAPE   O1416310   1.705   5.378  10.652 -0.5427  0.1972  0.3515
  148SAPE   O1216311   1.949   5.358  10.637  0.2245 -0.3421 -0.4336
  148SAPE   O1116312   1.826   5.379  10.428 -0.1930  0.2171  0.2060
  148SAPE    C116313   1.738   5.488  10.397  0.4144  0.2029 -0.0677
  148SAPE    HA16314   1.630   5.473  10.413  0.2688 -0.2478 -1.3412
  148SAPE    HB16315   1.779   5.583  10.439  1.8354  1.2724 -3.4896
  148SAPE    C216316   1.756   5.531  10.249 -0.3095 -0.1152  0.2413
  148SAPE    HS16317   1.716   5.634  10.237 -0.4034  0.0398  1.7235
  148SAPE   O2116318   1.676   5.443  10.160  0.8051 -0.0078  0.1510
  148SAPE   C2116319   1.545   5.451  10.164 -0.2116 -0.5434  0.4234
  148SAPE   O2216320   1.489   5.526  10.243  0.0688 -0.1881  0.8978
  148SAPE   C2216321   1.478   5.351  10.067  0.5421 -0.1773 -0.4585
  148SAPE   H2R16322   1.533   5.336   9.971  0.1645  0.2652 -0.7469
  148SAPE   H2S16323   1.500   5.258  10.123 -0.1787  0.1939  0.4823
  148SAPE    C316324   1.905   5.549  10.216  0.0308 -0.1826  0.4512
  148SAPE    HX16325   1.948   5.447  10.230  1.0482  0.3329  1.2612
  148SAPE    HY16326   1.943   5.616  10.297  2.3464 -0.3567 -0.4243
  148SAPE   O3116327   1.918   5.600  10.081 -0.1463 -0.4737 -0.1590
  148SAPE   C3116328   2.042   5.588  10.032  0.2386 -0.2549  0.8509
  148SAPE   O3216329   2.143   5.574  10.100  0.0419  0.1046  0.0599
  148SAPE   C3216330   2.038   5.584   9.880 -0.4065 -0.4994  0.5657
  148SAPE   H2X16331   2.017   5.687   9.843 -0.3979 -0.6925  0.0172
  148SAPE   H2Y16332   1.962   5.519   9.832  0.0058  0.3047 -1.2906
  148SAPE   C2316333   1.329   5.369  10.040  0.5360 -0.9787  0.0797
  148SAPE   H3R16334   1.271   5.413  10.124 -2.3279 -1.2247 -1.6167
  148SAPE   H3S16335   1.288   5.269  10.017 -0.4312 -0.7905  0.8833
  148SAPE   C2416336   1.295   5.462   9.913 -0.5827 -0.0523 -0.4628
  148SAPE   H4R16337   1.183   5.461   9.915 -0.6523  1.2386 -1.9677
  148SAPE   H4S16338   1.309   5.404   9.820  0.3646  0.9768 -0.9792
  148SAPE   C2516339   1.363   5.597   9.904  0.0560  0.3774  0.9797
  148SAPE   H5R16340   1.308   5.673   9.961  2.0986  1.0909  2.1040
  148SAPE   C2616341   1.472   5.637   9.835 -0.2132 -0.4611 -0.4868
  148SAPE   H6R16342   1.502   5.742   9.828 -0.7492 -0.1416  1.4139
  148SAPE   C2716343   1.556   5.539   9.753  0.2138 -0.2144  0.5200
  148SAPE   H7R16344   1.509   5.438   9.757  1.9262 -1.0802 -0.3150
  148SAPE   H7S16345   1.655   5.518   9.798 -0.3641  1.7015  2.9136
  148SAPE   C2816346   1.582   5.579   9.614  0.3547  0.0918 -0.6585
  148SAPE   H8R16347   1.684   5.613   9.590 -0.6074  4.8738  0.9085
  148SAPE   C2916348   1.479   5.586   9.526  0.3085 -0.0668 -0.1126
  148SAPE   H9R16349   1.484   5.624   9.423 -1.4384 -0.0212 -0.2076
  148SAPE  C21016350   1.334   5.544   9.542 -0.1473 -0.1286 -1.2285
  148SAPE  H10R16351   1.291   5.582   9.637  0.3425  1.4345 -1.6008
  148SAPE  H10S16352   1.325   5.435   9.558  0.6827  0.0884  1.0808
  148SAPE  C21116353   1.245   5.605   9.440 -0.3809  0.2155 -1.0432
  148SAPE  H11R16354   1.225   5.713   9.452  3.2074  0.7746  1.2741
  148SAPE  C21216355   1.226   5.551   9.319  0.2068 -0.0001  0.2864
  148SAPE  H12R16356   1.175   5.618   9.248 -1.2309 -2.1593 -0.8246
  148SAPE  C21316357   1.273   5.419   9.273  0.5721 -0.0422  0.5295
  148SAPE  H13R16358   1.211   5.342   9.323  0.9040 -1.3810 -1.0119
  148SAPE  H13S16359   1.380   5.395   9.293  0.6418  0.9399  1.3401
  148SAPE  C21416360   1.244   5.404   9.127  0.1082  0.6323 -0.2454
  148SAPE  H14R16361   1.140   5.386   9.095  0.4310  0.2856 -1.1549
  148SAPE  C21516362   1.339   5.422   9.035 -0.4135  0.2845  0.7279
  148SAPE  H15R16363   1.306   5.416   8.930  0.5227 -0.5129  0.4594
  148SAPE  C21616364   1.481   5.476   9.050 -0.0734 -0.4114 -0.1151
  148SAPE  H16R16365   1.532   5.424   9.134  2.0335  0.0886 -1.0171
  148SAPE  H16S16366   1.484   5.583   9.081 -1.3693  0.3421 -2.3605
  148SAPE  C21716367   1.581   5.470   8.929 -0.3629  0.4982 -0.7178
  148SAPE  H17R16368   1.591   5.364   8.897  2.1675  0.2785  0.5206
  148SAPE  H17S16369   1.674   5.517   8.967 -0.0584 -0.2809 -0.4770
  148SAPE  C21816370   1.527   5.565   8.823  0.4496  0.6901  0.6045
  148SAPE  H18R16371   1.559   5.670   8.841  1.4469  0.6099 -0.4970
  148SAPE  H18S16372   1.418   5.548   8.811  0.6313  0.4908 -1.0795
  148SAPE  C21916373   1.581   5.540   8.675  0.2544  0.3384 -0.3780
  148SAPE  H19R16374   1.512   5.544   8.589 -0.2057 -0.3441 -0.0427
  148SAPE  H19S16375   1.619   5.436   8.672  0.9407  0.5770 -0.3148
  148SAPE  C22016376   1.691   5.631   8.632 -0.4870  0.5388  0.0229
  148SAPE  H20R16377   1.783   5.612   8.692 -0.9451  0.3060  0.6503
  148SAPE  H20S16378   1.668   5.739   8.637 -1.8146  0.2678  0.2229
  148SAPE  H20T16379   1.709   5.607   8.525 -0.6501  0.6596 -0.0325
  148SAPE   C3316380   2.174   5.539   9.816 -0.6839  0.1386 -0.2385
  148SAPE   H3X16381   2.190   5.434   9.849 -0.7586  0.2494  0.1677
  148SAPE   H3Y16382   2.253   5.598   9.867 -1.5020  0.1285  1.1183
  148SAPE   C3416383   2.176   5.550   9.663 -0.1007 -0.1955  0.1924
  148SAPE   H4X16384   2.115   5.639   9.637  0.5844  0.8519  1.9384
  148SAPE   H4Y16385   2.133   5.459   9.617 -0.5642  0.7688 -1.3607
  148SAPE   C3516386   2.315   5.559   9.607  0.1176 -0.1310 -0.4152
  148SAPE   H5X16387   2.371   5.470   9.644  0.1668 -0.8232 -2.0712
  148SAPE   H5Y16388   2.372   5.647   9.645 -2.6933  1.5028  0.2968
  148SAPE   C3616389   2.325   5.551   9.453 -0.5963  0.3001  0.2692
  148SAPE   H6X16390   2.272   5.459   9.422  1.3885 -1.4240  1.6720
  148SAPE   H6Y16391   2.429   5.530   9.421  0.1593  2.6442  0.9729
  148SAPE   C3716392   2.283   5.685   9.390 -0.3381 -0.0541  0.5748
  148SAPE   H7X16393   2.344   5.755   9.451  1.2220 -0.4032 -0.5325
  148SAPE   H7Y16394   2.177   5.701   9.419 -0.5991 -0.6201 -0.0288
  148SAPE   C3816395   2.306   5.686   9.235  0.0968  0.4723  0.8514
  148SAPE   H8X16396   2.413   5.678   9.206  0.2246 -0.5725  1.5783
  148SAPE   H8Y16397   2.282   5.787   9.195  0.6274 -0.3294 -1.6281
  148SAPE   C3916398   2.231   5.580   9.159  0.2149 -0.0083 -0.3932
  148SAPE   H9X16399   2.121   5.584   9.172  0.3584  0.2460  0.9113
  148SAPE   H9Y16400   2.278   5.483   9.186 -0.3888 -0.4002 -0.7420
  148SAPE  C31016401   2.259   5.600   9.006  0.2258  0.0008  0.3639
  148SAPE  H10X16402   2.215   5.509   8.960 -2.3509  0.6406  1.4111
  148SAPE  H10Y16403   2.368   5.602   8.986 -0.2874 -0.1708 -3.0115
  148SAPE  C31116404   2.193   5.724   8.939  0.1826 -0.4022 -0.1297
  148SAPE  H11X16405   2.230   5.731   8.835  0.0749  0.5193 -0.1106
  148SAPE  H11Y16406   2.207   5.820   8.994 -0.2469 -1.4927  1.9817
  148SAPE  C31216407   2.036   5.703   8.929 -0.1576 -0.0037  0.1401
  148SAPE  H12X16408   1.995   5.682   9.030 -0.7599 -2.3103 -0.5171
  148SAPE  H12Y16409   2.028   5.617   8.859 -0.5615  0.6688 -0.6688
  148SAPE  C31316410   1.963   5.820   8.876  0.2646 -0.5047 -0.1289
  148SAPE  H13X16411   1.948   5.900   8.952 -1.4205 -2.8927  2.2608
  148SAPE  H13Y16412   1.871   5.779   8.827  0.6506 -1.3648 -0.1498
  148SAPE  C31416413   2.029   5.891   8.754  0.3159  0.4698  0.0152
  148SAPE  H14X16414   2.055   5.804   8.690  0.5326 -0.1823  0.9621
  148SAPE  H14Y16415   2.118   5.946   8.790 -0.8594  1.8897  0.8388
  148SAPE  C31516416   1.940   5.982   8.673 -0.5429  0.0392  0.4137
  148SAPE  H15X16417   1.850   5.921   8.651 -1.8181  0.7560  3.1417
  148SAPE  H15Y16418   1.986   6.003   8.574 -1.4582  0.9859  0.1719
  148SAPE  C31616419   1.896   6.119   8.748 -0.7670  0.7141 -0.7207
  148SAPE  H16X16420   1.981   6.191   8.757 -0.4099  0.6960 -3.2588
  148SAPE  H16Y16421   1.851   6.083   8.843 -0.5258  1.3026 -0.3770
  148SAPE  C31716422   1.791   6.182   8.660 -0.0258 -0.9356 -0.3405
  148SAPE  H17X16423   1.721   6.108   8.618  0.0338  0.5836 -3.4200
  148SAPE  H17Y16424   1.840   6.209   8.563 -1.4701  2.7897 -0.2052
  148SAPE  C31816425   1.728   6.317   8.709  0.0336  0.5843 -0.4700
  148SAPE  H18X16426   1.811   6.390   8.717 -0.1813  0.7064  0.9394
  148SAPE  H18Y16427   1.697   6.295   8.814  0.3074 -0.4517 -0.6001
  148SAPE  H18Z16428   1.645   6.355   8.646  0.7035 -0.1501 -1.8155
  149SAPE     N16429   4.164   0.650  11.033  0.7184 -0.1725  0.5626
  149SAPE   HN116430   4.131   0.708  10.953 -1.6194  0.5150  1.9000
  149SAPE   HN216431   4.248   0.596  11.006  1.1992  0.1922  1.2971
  149SAPE   HN316432   4.090   0.582  11.059 -0.7028  1.2447  0.3735
  149SAPE   C1216433   4.191   0.743  11.145  0.2398 -0.2231 -0.6631
  149SAPE  H12A16434   4.093   0.762  11.193  0.8665 -1.0761  1.0138
  149SAPE  H12B16435   4.240   0.832  11.098  0.5955 -0.5892 -0.9933
  149SAPE   C1116436   4.290   0.684  11.249  0.0285 -0.0742 -0.0698
  149SAPE  H11A16437   4.238   0.593  11.286  0.2480 -0.9232 -1.7855
  149SAPE  H11B16438   4.305   0.761  11.327  3.1404  0.5633 -1.1633
  149SAPE     P16439   4.534   0.731  11.156  0.0704 -0.3950 -0.0469
  149SAPE   O1316440   4.486   0.875  11.135 -0.0957  0.3509  0.4127
  149SAPE   O1416441   4.640   0.709  11.260  0.5372 -0.1161  0.4017
  149SAPE   O1216442   4.416   0.643  11.193 -0.0190 -0.2640 -0.3042
  149SAPE   O1116443   4.582   0.670  11.014  0.1672 -0.2428  0.1013
  149SAPE    C116444   4.664   0.555  11.018  0.1150  0.2605  0.7747
  149SAPE    HA16445   4.672   0.506  11.118 -3.0956  0.3190  1.1663
  149SAPE    HB16446   4.634   0.490  10.933  2.7227  0.2216 -0.2116
  149SAPE    C216447   4.806   0.589  10.960  0.7640  0.6213 -0.2361
  149SAPE    HS16448   4.841   0.676  11.021  0.0183  0.3911  0.5381
  149SAPE   O2116449   4.794   0.631  10.827  1.0103  0.1348  0.3259
  149SAPE   C2116450   4.773   0.761  10.800 -0.1381  0.4201  0.4622
  149SAPE   O2216451   4.759   0.846  10.886 -0.2005  0.4934 -0.0648
  149SAPE   C2216452   4.775   0.800  10.654 -0.2908  0.2320  0.4393
  149SAPE   H2R16453   4.834   0.892  10.631  0.5148  0.3316  2.6582
  149SAPE   H2S16454   4.831   0.717  10.606  0.3812  0.9369 -0.0316
  149SAPE    C316455   4.909   0.477  10.980  0.1880 -0.0360 -0.2034
  149SAPE    HX16456   4.916   0.461  11.090  2.0179 -0.1389 -0.3075
  149SAPE    HY16457   5.013   0.503  10.953 -0.0555  1.5248  0.2855
  149SAPE   O3116458   4.872   0.350  10.925 -0.0286 -0.0935  0.1747
  149SAPE   C3116459   4.930   0.320  10.810 -0.3832  0.0769  0.0121
  149SAPE   O3216460   5.017   0.386  10.756 -0.5688  0.0423  0.2746
  149SAPE   C3216461   4.888   0.187  10.761 -0.0643  0.6158 -0.0794
  149SAPE   H2X16462   4.777   0.197  10.762 -0.0742  0.9008  2.3935
  149SAPE   H2Y16463   4.905   0.108  10.837  0.3298  1.5904  0.8730
  149SAPE   C2316464   4.630   0.812  10.606  0.2345  0.8538  0.8024
  149SAPE   H3R16465   4.631   0.830  10.496  0.7137 -0.5674  0.5511
  149SAPE   H3S16466   4.579   0.899  10.653 -0.5627  1.0663 -0.4013
  149SAPE   C2416467   4.541   0.682  10.608 -0.4724  0.3334  0.3747
  149SAPE   H4R16468   4.449   0.716  10.555  0.0798  1.9642  0.4063
  149SAPE   H4S16469   4.495   0.659  10.706 -0.1152 -1.4235  0.1510
  149SAPE   C2516470   4.605   0.552  10.557  0.4671  0.0875  0.6424
  149SAPE   H5R16471   4.661   0.494  10.631  1.6202 -0.7949 -0.8444
  149SAPE   C2616472   4.605   0.508  10.431 -0.9849 -0.1010 -0.5807
  149SAPE   H6R16473   4.651   0.409  10.418  0.2208  0.6867 -2.6404
  149SAPE   C2716474   4.542   0.569  10.308 -0.1936 -0.4983 -0.2756
  149SAPE   H7R16475   4.609   0.649  10.270 -1.6404  1.2325  0.6949
  149SAPE   H7S16476   4.450   0.627  10.330  0.5859  0.3329  0.9385
  149SAPE   C2816477   4.510   0.467  10.199  0.4413 -0.8604 -0.2430
  149SAPE   H8R16478   4.465   0.374  10.236 -0.1212 -0.7062 -0.5296
  149SAPE   C2916479   4.515   0.486  10.065  0.4365 -0.0994 -0.3692
  149SAPE   H9R16480   4.510   0.403   9.993  2.3330 -1.4621  0.9688
  149SAPE  C21016481   4.563   0.610  10.004 -0.3562 -0.2459 -0.7970
  149SAPE  H10R16482   4.669   0.596   9.975 -0.1067  2.0644 -1.1646
  149SAPE  H10S16483   4.569   0.695  10.075 -0.3892 -0.5362 -0.4442
  149SAPE  C21116484   4.486   0.653   9.878 -0.1856 -0.8822 -0.3070
  149SAPE  H11R16485   4.393   0.703   9.908 -0.8381 -2.7206  0.8940
  149SAPE  C21216486   4.512   0.629   9.749  0.1030 -0.4168 -0.0147
  149SAPE  H12R16487   4.436   0.659   9.676 -0.7515 -2.1778  0.1046
  149SAPE  C21316488   4.622   0.544   9.694  0.5894  0.2619 -0.2439
  149SAPE  H13R16489   4.585   0.457   9.635 -1.9877  1.2168 -0.1616
  149SAPE  H13S16490   4.674   0.489   9.776  0.4647 -1.9499 -1.5436
  149SAPE  C21416491   4.710   0.630   9.607  0.1491 -0.1656 -0.6827
  149SAPE  H14R16492   4.795   0.672   9.662  0.6909 -1.2891 -0.6262
  149SAPE  C21516493   4.688   0.662   9.477 -0.0082  0.4541 -0.4763
  149SAPE  H15R16494   4.758   0.728   9.424  0.8724  0.8358  1.1040
  149SAPE  C21616495   4.569   0.608   9.401 -0.5338 -0.2539 -0.2293
  149SAPE  H16R16496   4.481   0.609   9.469 -0.0675  0.7354  0.3987
  149SAPE  H16S16497   4.595   0.505   9.368  3.9030  1.1005 -1.7580
  149SAPE  C21716498   4.530   0.680   9.279  0.1449  0.0709  0.4532
  149SAPE  H17R16499   4.625   0.687   9.222  1.3381 -1.0842  2.1798
  149SAPE  H17S16500   4.504   0.786   9.300  0.9327  0.7230 -1.6656
  149SAPE  C21816501   4.413   0.621   9.199  0.3528  0.1483 -0.4107
  149SAPE  H18R16502   4.321   0.680   9.220  0.4433  0.5492 -1.1166
  149SAPE  H18S16503   4.388   0.523   9.245  1.0832  0.0039 -0.3130
  149SAPE  C21916504   4.424   0.615   9.046 -0.6581 -0.2976  0.0986
  149SAPE  H19R16505   4.497   0.537   9.017 -0.9287 -0.2662 -0.6882
  149SAPE  H19S16506   4.455   0.716   9.012 -1.9663  1.1226  2.7640
  149SAPE  C22016507   4.290   0.582   8.971  0.1357  0.0981 -0.4174
  149SAPE  H20R16508   4.253   0.484   9.010  0.9158  0.9170  2.6583
  149SAPE  H20S16509   4.301   0.570   8.861 -0.8116 -1.4916 -0.3767
  149SAPE  H20T16510   4.204   0.652   8.980 -0.7717 -0.9862 -0.3292
  149SAPE   C3316511   4.956   0.154  10.627 -0.1378 -0.1030 -0.2159
  149SAPE   H3X16512   5.067   0.165  10.632  0.0020 -0.7374 -1.4891
  149SAPE   H3Y16513   4.911   0.222  10.552 -1.0113 -1.9034 -1.4044
  149SAPE   C3416514   4.910   0.009  10.594 -0.8547  0.3643 -0.3914
  149SAPE   H4X16515   4.799   0.017  10.587 -0.8622  0.6883  0.0642
  149SAPE   H4Y16516   4.936  -0.059  10.678 -1.7476  0.0894 -0.3290
  149SAPE   C3516517   4.971  -0.034  10.464 -0.5894  0.1960 -0.7327
  149SAPE   H5X16518   4.942  -0.137  10.434  1.2429 -1.0830  1.5704
  149SAPE   H5Y16519   5.079  -0.022  10.489 -0.9260  1.8294  0.1044
  149SAPE   C3616520   4.945   0.049  10.337  0.0317  0.1795  0.3139
  149SAPE   H6X16521   4.977  -0.010  10.248 -1.7908 -2.4406  1.2572
  149SAPE   H6Y16522   5.010   0.138  10.336 -1.2421  1.2014  2.5257
  149SAPE   C3716523   4.795   0.096  10.313 -0.9582  0.1447 -0.5966
  149SAPE   H7X16524   4.751   0.160  10.393 -0.7584  0.7568 -0.9777
  149SAPE   H7Y16525   4.739   0.000  10.302 -0.7936 -0.1439  0.7965
  149SAPE   C3816526   4.785   0.171  10.185  0.2009 -0.9793  0.5047
  149SAPE   H8X16527   4.844   0.266  10.186 -0.5266 -0.5228  0.7450
  149SAPE   H8Y16528   4.678   0.198  10.188 -0.2644 -2.6934  0.2209
  149SAPE   C3916529   4.821   0.084  10.058 -0.4420 -0.2384  0.1996
  149SAPE   H9X16530   4.779  -0.016  10.082 -1.0599  0.2641  1.3079
  149SAPE   H9Y16531   4.931   0.066  10.058 -0.5033 -0.6216  0.0447
  149SAPE  C31016532   4.774   0.147   9.927 -0.0279 -0.0580  0.1372
  149SAPE  H10X16533   4.799   0.255   9.919 -0.6603 -0.0012 -1.4829
  149SAPE  H10Y16534   4.663   0.144   9.921 -0.0874  1.7483 -0.1600
  149SAPE  C31116535   4.836   0.091   9.794 -0.0161 -0.4483 -0.0668
  149SAPE  H11X16536   4.791  -0.010   9.792 -0.4959 -0.2272 -1.0496
  149SAPE  H11Y16537   4.947   0.091   9.790 -0.0150  0.5918 -0.2726
  149SAPE  C31216538   4.779   0.159   9.673  0.8112 -0.1723  0.2311
  149SAPE  H12X16539   4.794   0.269   9.680 -1.4801  0.3547 -1.8055
  149SAPE  H12Y16540   4.672   0.129   9.668  0.8082  0.0259 -1.4894
  149SAPE  C31316541   4.853   0.118   9.553 -0.5010 -0.3440 -0.0271
  149SAPE  H13X16542   4.846   0.009   9.532 -0.0377 -0.3052 -0.3881
  149SAPE  H13Y16543   4.962   0.128   9.569 -0.0588 -0.8180 -2.3344
  149SAPE  C31416544   4.849   0.203   9.423 -0.2499 -0.3688 -0.0216
  149SAPE  H14X16545   4.939   0.170   9.366  0.0792  0.1900  0.1663
  149SAPE  H14Y16546   4.858   0.312   9.443 -0.3752 -0.9262  3.6673
  149SAPE  C31516547   4.735   0.175   9.334  0.9513 -0.7766 -1.1544
  149SAPE  H15X16548   4.644   0.182   9.398  1.3149 -1.2493 -0.5777
  149SAPE  H15Y16549   4.727   0.069   9.302 -0.8238 -0.1333 -3.0386
  149SAPE  C31616550   4.726   0.266   9.213  0.3527 -0.3058  0.4439
  149SAPE  H16X16551   4.769   0.366   9.233 -0.2537  0.3244 -1.2063
  149SAPE  H16Y16552   4.624   0.283   9.173 -1.0570 -3.7365  2.1669
  149SAPE  C31716553   4.801   0.200   9.102 -0.0397  0.3869  0.4925
  149SAPE  H17X16554   4.744   0.106   9.090 -0.6928  0.8870 -0.4204
  149SAPE  H17Y16555   4.903   0.166   9.130 -1.0916 -2.9403  0.6963
  149SAPE  C31816556   4.798   0.274   8.967  0.4742  0.3259  0.3433
  149SAPE  H18X16557   4.823   0.381   8.985 -1.2513  0.9387 -0.6376
  149SAPE  H18Y16558   4.693   0.270   8.929  0.2927 -1.1672  0.9277
  149SAPE  H18Z16559   4.863   0.228   8.890 -0.3976  0.1423 -0.3102
  150SAPE     N16560   6.154   6.614  10.982  0.4567 -0.7715 -0.3689
  150SAPE   HN116561   6.248   6.650  10.956  0.6460 -2.2585 -1.9420
  150SAPE   HN216562   6.098   6.688  11.029 -1.3522 -1.5035 -1.2526
  150SAPE   HN316563   6.176   6.543  11.055  1.0760 -1.6022 -1.3318
  150SAPE   C1216564   6.078   6.552  10.869 -0.1863  0.6127  0.0856
  150SAPE  H12A16565   6.048   6.635  10.802  0.0031 -0.6207 -1.5965
  150SAPE  H12B16566   5.987   6.500  10.905 -0.2953  1.1993  0.6822
  150SAPE   C1116567   6.176   6.448  10.810  0.2294  0.2836 -0.4399
  150SAPE  H11A16568   6.269   6.500  10.781 -0.5701  2.0028 -0.0394
  150SAPE  H11B16569   6.125   6.406  10.720  0.7615  2.6753 -1.9427
  150SAPE     P16570   6.107   6.232  10.936 -0.0158  0.1684 -0.3294
  150SAPE   O1316571   6.167   6.097  10.940 -0.1550 -0.1922 -0.1149
  150SAPE   O1416572   6.027   6.267  11.055  0.0736  0.4199  0.4203
  150SAPE   O1216573   6.204   6.351  10.906 -0.1519 -0.0952 -0.5125
  150SAPE   O1116574   6.003   6.241  10.822  0.4521 -0.3598 -0.3247
  150SAPE    C116575   5.913   6.131  10.799  0.4307  0.3343  0.2432
  150SAPE    HA16576   5.957   6.032  10.824  2.2964  1.3210  1.0816
  150SAPE    HB16577   5.815   6.136  10.852 -0.7727  2.8069 -1.9879
  150SAPE    C216578   5.877   6.133  10.646  0.1150  0.4886 -0.3714
  150SAPE    HS16579   5.872   6.025  10.621  0.6939  0.6779 -1.4018
  150SAPE   O2116580   5.978   6.196  10.573 -0.1300  0.3771  0.3836
  150SAPE   C2116581   6.092   6.122  10.557 -0.0807  0.0470  1.1480
  150SAPE   O2216582   6.091   6.004  10.581  0.1523 -0.3458 -0.3513
  150SAPE   C2216583   6.212   6.199  10.507  0.3313 -0.3574  0.5349
  150SAPE   H2R16584   6.175   6.297  10.469  0.7702  0.4314  2.0662
  150SAPE   H2S16585   6.275   6.228  10.594 -0.9379  1.6837  0.8522
  150SAPE    C316586   5.741   6.209  10.619  0.6158 -0.0449 -0.9086
  150SAPE    HX16587   5.767   6.313  10.651  1.1689 -0.1407 -1.0449
  150SAPE    HY16588   5.675   6.166  10.698  0.3993 -0.1629 -1.1526
  150SAPE   O3116589   5.690   6.175  10.489  0.1752 -0.2635 -0.5624
  150SAPE   C3116590   5.681   6.274  10.401 -0.3706  0.0744  0.8720
  150SAPE   O3216591   5.683   6.395  10.426  0.5902  0.0579  0.3803
  150SAPE   C3216592   5.642   6.219  10.269 -0.1523 -0.1088  0.4307
  150SAPE   H2X16593   5.535   6.196  10.290  0.0905  0.2000  2.1835
  150SAPE   H2Y16594   5.698   6.125  10.247  0.6413  0.7907 -1.5911
  150SAPE   C2316595   6.294   6.120  10.403 -0.0372  0.5321 -0.1428
  150SAPE   H3R16596   6.312   6.016  10.438 -2.5726 -0.0243 -0.2656
  150SAPE   H3S16597   6.392   6.173  10.405 -0.6848  1.7723 -0.4006
  150SAPE   C2416598   6.218   6.101  10.263  0.5904 -0.4359  0.0552
  150SAPE   H4R16599   6.119   6.050  10.266  0.8655 -1.1444 -1.5209
  150SAPE   H4S16600   6.274   6.026  10.202  1.1048  0.8142 -1.0541
  150SAPE   C2516601   6.204   6.234  10.198 -0.1214 -0.1231 -0.4344
  150SAPE   H5R16602   6.180   6.317  10.267 -1.5100  0.4496 -1.5434
  150SAPE   C2616603   6.205   6.274  10.066 -0.2538  0.0176  0.1830
  150SAPE   H6R16604   6.195   6.379  10.038  0.3983 -0.4335 -1.9004
  150SAPE   C2716605   6.226   6.181   9.946  0.1284  0.1960  0.2965
  150SAPE   H7R16606   6.124   6.171   9.903  0.1225 -0.5516  0.4710
  150SAPE   H7S16607   6.252   6.075   9.968  2.3766  0.1045 -2.2616
  150SAPE   C2816608   6.332   6.229   9.839 -0.4319  0.3982 -0.2768
  150SAPE   H8R16609   6.432   6.255   9.877 -0.9067  2.3780 -0.2685
  150SAPE   C2916610   6.307   6.249   9.706  0.1724  0.1113  0.0123
  150SAPE   H9R16611   6.390   6.285   9.643 -0.9371 -0.6657 -1.9696
  150SAPE  C21016612   6.171   6.219   9.636  0.6437 -0.3485  0.3358
  150SAPE  H10R16613   6.093   6.184   9.705 -0.9322 -0.3859 -1.3905
  150SAPE  H10S16614   6.172   6.140   9.558 -1.4369 -0.1734  0.0793
  150SAPE  C21116615   6.122   6.341   9.563 -0.0203  0.4565  0.3379
  150SAPE  H11R16616   6.095   6.431   9.619 -0.8405  1.3647 -1.4241
  150SAPE  C21216617   6.143   6.359   9.427 -0.7142  0.1471 -0.0695
  150SAPE  H12R16618   6.105   6.449   9.375  4.2683  2.2854 -0.6301
  150SAPE  C21316619   6.217   6.271   9.332 -0.0780  0.6045  0.0965
  150SAPE  H13R16620   6.179   6.292   9.230 -1.5717 -0.7277  0.3520
  150SAPE  H13S16621   6.191   6.164   9.346  1.4390 -0.1618 -2.3963
  150SAPE  C21416622   6.369   6.296   9.341  0.1379 -0.1200  0.5470
  150SAPE  H14R16623   6.428   6.233   9.409 -0.7921 -0.4589  1.0553
  150SAPE  C21516624   6.440   6.391   9.278  0.7576  0.6177 -0.6354
  150SAPE  H15R16625   6.548   6.407   9.296  0.8822 -1.0417  0.2958
  150SAPE  C21616626   6.373   6.485   9.178 -0.2073  0.1716  0.1909
  150SAPE  H16R16627   6.440   6.571   9.156  0.4626 -0.2747  0.4526
  150SAPE  H16S16628   6.271   6.513   9.212 -0.5017 -1.6452  0.8764
  150SAPE  C21716629   6.356   6.409   9.053  0.0659 -0.8327 -0.5456
  150SAPE  H17R16630   6.303   6.311   9.053  0.7993 -1.3699 -4.1683
  150SAPE  H17S16631   6.454   6.385   9.007  0.2006  1.3968 -1.5407
  150SAPE  C21816632   6.284   6.501   8.948 -0.0932  0.5148 -0.4247
  150SAPE  H18R16633   6.332   6.599   8.927 -1.0382  1.2055  0.5666
  150SAPE  H18S16634   6.184   6.519   8.993  0.7135  1.1892  1.1997
  150SAPE  C21916635   6.263   6.427   8.818  0.3046  0.0844  0.3433
  150SAPE  H19R16636   6.195   6.343   8.847 -1.5816  1.0656 -0.9944
  150SAPE  H19S16637   6.357   6.384   8.777 -0.1000 -1.2066  0.7111
  150SAPE  C22016638   6.195   6.519   8.716  0.6998  0.5238  0.6843
  150SAPE  H20R16639   6.090   6.545   8.741  0.3103 -1.6074  1.4979
  150SAPE  H20S16640   6.186   6.466   8.619  0.8411  0.1579  0.8692
  150SAPE  H20T16641   6.263   6.601   8.686 -0.0377 -0.0640 -3.1745
  150SAPE   C3316642   5.645   6.337  10.163  0.4017 -0.7242  1.2957
  150SAPE   H3X16643   5.751   6.367  10.163  0.3282 -0.3125 -1.3201
  150SAPE   H3Y16644   5.571   6.414  10.194 -0.4807 -1.2073  0.4582
  150SAPE   C3416645   5.628   6.286  10.015  0.4399 -0.1538 -0.3653
  150SAPE   H4X16646   5.542   6.216  10.011  0.8457 -0.9689  2.8781
  150SAPE   H4Y16647   5.723   6.231  10.000  1.7060  1.6430  0.6911
  150SAPE   C3516648   5.610   6.405   9.917 -0.4344 -1.0641  0.3796
  150SAPE   H5X16649   5.688   6.483   9.930 -1.5962  0.4899 -1.5868
  150SAPE   H5Y16650   5.516   6.459   9.941  0.2681 -0.1045  1.0743
  150SAPE   C3616651   5.591   6.368   9.774  0.4021 -0.2167 -0.3194
  150SAPE   H6X16652   5.553   6.453   9.714  2.3657  0.4172 -0.7477
  150SAPE   H6Y16653   5.510   6.291   9.770  0.6624 -0.4992 -0.1992
  150SAPE   C3716654   5.722   6.322   9.706 -0.2670 -0.2565  0.5643
  150SAPE   H7X16655   5.756   6.227   9.752  1.1713 -1.6110 -2.9526
  150SAPE   H7Y16656   5.799   6.400   9.726 -0.5626  0.6104 -1.4749
  150SAPE   C3816657   5.703   6.288   9.549 -0.4251 -0.2650 -0.5667
  150SAPE   H8X16658   5.633   6.203   9.543 -0.2689 -0.3953 -0.5590
  150SAPE   H8Y16659   5.803   6.253   9.515  0.8125  1.4145  1.1133
  150SAPE   C3916660   5.658   6.403   9.455  0.4058 -0.4751 -0.3050
  150SAPE   H9X16661   5.639   6.498   9.511  0.9780 -0.7505  0.3715
  150SAPE   H9Y16662   5.564   6.368   9.407  1.4967 -1.0006 -2.1459
  150SAPE  C31016663   5.766   6.441   9.359  1.0390 -0.4260  0.2870
  150SAPE  H10X16664   5.792   6.346   9.307  0.8028 -1.2830  1.6745
  150SAPE  H10Y16665   5.862   6.453   9.413 -0.2892  1.6592  2.3971
  150SAPE  C31116666   5.740   6.557   9.268 -0.0867 -0.9221 -0.8037
  150SAPE  H11X16667   5.826   6.628   9.268  0.8706 -2.0493 -0.7959
  150SAPE  H11Y16668   5.651   6.618   9.294 -1.0342 -1.9769 -1.4779
  150SAPE  C31216669   5.724   6.515   9.130 -0.4657 -0.2061 -0.4963
  150SAPE  H12X16670   5.621   6.474   9.122 -1.0146  1.2905 -1.6801
  150SAPE  H12Y16671   5.807   6.444   9.109  0.2793  0.3747  0.4230
  150SAPE  C31316672   5.718   6.625   9.027 -0.4624  0.0059  0.2735
  150SAPE  H13X16673   5.802   6.698   9.039  0.7154 -1.3688  0.6302
  150SAPE  H13Y16674   5.632   6.689   9.059 -0.7152  1.2950 -2.6545
  150SAPE  C31416675   5.699   6.570   8.886 -0.4880  0.2957  0.2740
  150SAPE  H14X16676   5.682   6.645   8.806  2.1255 -2.3287 -3.0455
  150SAPE  H14Y16677   5.611   6.503   8.897  2.3178 -3.7824  0.1119
  150SAPE  C31516678   5.826   6.493   8.831  0.3613 -0.4260  0.0335
  150SAPE  H15X16679   5.895   6.456   8.909  0.8139  2.0527  0.9062
  150SAPE  H15Y16680   5.889   6.577   8.796  3.4656 -3.3064 -1.8592
  150SAPE  C31616681   5.787   6.380   8.742 -0.2244  0.8804 -0.2916
  150SAPE  H16X16682   5.761   6.410   8.639  1.0322  1.8285 -0.3601
  150SAPE  H16Y16683   5.690   6.342   8.781 -0.7199  2.0884 -0.3014
  150SAPE  C31716684   5.903   6.271   8.744  0.2178  0.2400  0.8946
  150SAPE  H17X16685   5.910   6.240   8.850 -1.8962 -1.6960  0.5412
  150SAPE  H17Y16686   5.995   6.322   8.708  0.7186 -0.0870  1.6902
  150SAPE  C31816687   5.881   6.153   8.652 -0.5457 -0.3490  0.4663
  150SAPE  H18X16688   5.787   6.108   8.693  0.2092 -1.4012  1.0807
  150SAPE  H18Y16689   5.963   6.078   8.656  0.1477  0.2908 -1.1224
  150SAPE  H18Z16690   5.864   6.183   8.547 -0.1237  0.0414  0.5124
  151SAPE     N16691   4.345   4.124  10.784  0.4637 -0.1845 -0.0196
  151SAPE   HN116692   4.279   4.076  10.848  1.2443  0.6939  1.5116
  151SAPE   HN216693   4.426   4.064  10.758  0.1352 -0.5472 -0.2214
  151SAPE   HN316694   4.373   4.214  10.829 -2.1005 -0.3784  2.2701
  151SAPE   C1216695   4.261   4.155  10.661 -0.0009 -0.4601  0.1296
  151SAPE  H12A16696   4.177   4.216  10.699 -1.2793 -1.2881 -1.2733
  151SAPE  H12B16697   4.224   4.057  10.624  2.2548 -2.5977  3.0725
  151SAPE   C1116698   4.337   4.229  10.551 -0.0854 -0.3893 -0.2200
  151SAPE  H11A16699   4.275   4.226  10.459 -0.3986 -1.1028  0.0074
  151SAPE  H11B16700   4.433   4.179  10.531 -0.6343 -1.5437 -0.0527
  151SAPE     P16701   4.262   4.483  10.561 -0.4082  0.0675  0.3680
  151SAPE   O1316702   4.134   4.456  10.631  0.0317 -0.9763 -0.0466
  151SAPE   O1416703   4.331   4.612  10.595 -0.4743  0.1841 -0.3129
  151SAPE   O1216704   4.362   4.363  10.599  0.0257 -0.2979 -0.4292
  151SAPE   O1116705   4.238   4.474  10.399  0.1330  0.3878 -0.4703
  151SAPE    C116706   4.099   4.480  10.350 -0.4715  0.8018  0.5565
  151SAPE    HA16707   4.085   4.408  10.267  1.2735 -1.0697  1.7914
  151SAPE    HB16708   4.023   4.449  10.425 -1.8134  0.1629 -1.0010
  151SAPE    C216709   4.068   4.625  10.305  0.0457  0.0965 -0.1868
  151SAPE    HS16710   4.094   4.681  10.397 -2.0678  0.1554  0.4273
  151SAPE   O2116711   3.924   4.630  10.276  0.6005 -0.2710 -0.2783
  151SAPE   C2116712   3.844   4.640  10.379  0.4172  0.1814  0.1770
  151SAPE   O2216713   3.881   4.628  10.495  0.0150 -0.5193 -0.4086
  151SAPE   C2216714   3.697   4.638  10.341  0.1615 -0.2276 -0.0465
  151SAPE   H2R16715   3.637   4.693  10.417 -0.4670  0.1405 -0.7882
  151SAPE   H2S16716   3.683   4.697  10.248 -3.5058  0.9975  1.0953
  151SAPE    C316717   4.151   4.665  10.190 -0.3770  0.2514 -0.2878
  151SAPE    HX16718   4.253   4.627  10.215  0.0091  2.2046  1.3679
  151SAPE    HY16719   4.155   4.776  10.202 -1.4151  0.2757 -0.1356
  151SAPE   O3116720   4.103   4.625  10.064  0.1435  0.1008  0.0537
  151SAPE   C3116721   4.156   4.697   9.962 -0.2118  0.3254 -0.1649
  151SAPE   O3216722   4.236   4.786   9.976  0.2931  0.4834 -0.1229
  151SAPE   C3216723   4.100   4.635   9.830  0.1038  0.2350 -0.3487
  151SAPE   H2X16724   4.153   4.540   9.810 -2.6751 -1.5817  0.3383
  151SAPE   H2Y16725   4.128   4.709   9.751  1.2814 -0.0933 -0.2546
  151SAPE   C2316726   3.643   4.495  10.324  0.6192 -0.7043 -0.1758
  151SAPE   H3R16727   3.537   4.503  10.294  0.1436 -2.1716  0.9714
  151SAPE   H3S16728   3.646   4.443  10.422 -0.4743  1.0227  0.8230
  151SAPE   C2416729   3.712   4.410  10.218 -0.2439 -0.4778 -0.0034
  151SAPE   H4R16730   3.645   4.321  10.212 -1.1944  0.2111  0.2087
  151SAPE   H4S16731   3.810   4.368  10.250 -0.0033  2.2594  3.3169
  151SAPE   C2516732   3.726   4.465  10.079  0.1599 -0.2784 -0.0429
  151SAPE   H5R16733   3.816   4.528  10.071 -0.5372  0.6561 -0.6876
  151SAPE   C2616734   3.647   4.448   9.975 -0.3754 -0.0784  0.8449
  151SAPE   H6R16735   3.674   4.493   9.878 -1.3973  0.0378  0.5992
  151SAPE   C2716736   3.522   4.363   9.958 -0.3911 -0.3679 -0.0584
  151SAPE   H7R16737   3.513   4.283  10.034 -0.0033 -1.2569 -0.9250
  151SAPE   H7S16738   3.527   4.309   9.861 -1.1499 -1.1503  0.3249
  151SAPE   C2816739   3.391   4.442   9.949  0.5676  0.7988 -0.3744
  151SAPE   H8R16740   3.371   4.490  10.046  1.4102 -2.0305  1.3054
  151SAPE   C2916741   3.299   4.459   9.851  0.3277 -0.6676  0.1280
  151SAPE   H9R16742   3.203   4.507   9.873  2.3064  2.8579  1.9798
  151SAPE  C21016743   3.309   4.393   9.719 -0.3490  0.5562 -0.4696
  151SAPE  H10R16744   3.413   4.384   9.681 -0.3034  0.6752 -0.3760
  151SAPE  H10S16745   3.257   4.454   9.643 -0.5803  0.7847 -0.1344
  151SAPE  C21116746   3.257   4.257   9.733 -0.4023  0.6864 -0.8254
  151SAPE  H11R16747   3.274   4.207   9.830 -0.1741 -0.4612 -1.4350
  151SAPE  C21216748   3.197   4.179   9.639 -0.6870  0.6357  0.4469
  151SAPE  H12R16749   3.170   4.075   9.663 -1.3300 -0.3746 -3.9313
  151SAPE  C21316750   3.183   4.215   9.493 -0.0274 -1.1706 -0.5696
  151SAPE  H13R16751   3.260   4.292   9.469 -0.4087 -0.8897 -0.9041
  151SAPE  H13S16752   3.081   4.257   9.483 -0.2190 -0.3274  3.3073
  151SAPE  C21416753   3.200   4.114   9.385 -0.8753  0.4413 -0.3252
  151SAPE  H14R16754   3.243   4.017   9.414 -3.4617 -0.1699  1.9841
  151SAPE  C21516755   3.143   4.124   9.265  0.8579 -0.1297 -0.0947
  151SAPE  H15R16756   3.143   4.032   9.205 -0.2291  1.0495 -2.0003
  151SAPE  C21616757   3.069   4.242   9.209 -0.1584  0.6246 -0.0702
  151SAPE  H16R16758   3.142   4.321   9.180  1.4676 -0.5304  0.7630
  151SAPE  H16S16759   3.002   4.289   9.284  0.1125  0.6232  0.1726
  151SAPE  C21716760   2.986   4.201   9.085  0.4296 -0.2491  0.4645
  151SAPE  H17R16761   2.899   4.151   9.132  0.1496 -0.7328 -0.5381
  151SAPE  H17S16762   3.043   4.127   9.025 -1.5140 -2.1634  0.8560
  151SAPE  C21816763   2.952   4.315   8.986 -0.4744 -0.3902  0.2086
  151SAPE  H18R16764   3.044   4.375   8.968 -0.6205 -0.8981 -2.7967
  151SAPE  H18S16765   2.867   4.377   9.019  0.8117  2.1704 -0.9688
  151SAPE  C21916766   2.903   4.268   8.849 -0.6818  0.1276 -1.0082
  151SAPE  H19R16767   2.805   4.220   8.866 -0.4007  0.2193  1.0975
  151SAPE  H19S16768   2.970   4.191   8.805 -0.7171 -1.3372  1.3799
  151SAPE  C22016769   2.891   4.371   8.748  0.3229 -0.5016  0.0880
  151SAPE  H20R16770   2.994   4.399   8.718 -0.0245  1.8756  0.9038
  151SAPE  H20S16771   2.845   4.461   8.794  1.2839  0.1778 -0.2352
  151SAPE  H20T16772   2.829   4.329   8.666  0.4699 -1.7019  0.5747
  151SAPE   C3316773   3.952   4.610   9.824  0.1727 -0.3328  0.2702
  151SAPE   H3X16774   3.904   4.692   9.882 -0.3735 -0.3307 -0.1735
  151SAPE   H3Y16775   3.926   4.517   9.878 -0.7983 -0.9154 -1.1404
  151SAPE   C3416776   3.884   4.609   9.692 -0.2984 -0.4295 -0.0435
  151SAPE   H4X16777   3.922   4.703   9.646  0.8997 -0.8562  0.0197
  151SAPE   H4Y16778   3.774   4.620   9.704  0.0295  3.5562  0.7103
  151SAPE   C3516779   3.917   4.478   9.605 -0.0348 -0.1242 -0.9312
  151SAPE   H5X16780   3.938   4.389   9.668  1.7408  1.4071  0.7750
  151SAPE   H5Y16781   4.004   4.504   9.541  0.3217  0.9591 -0.0447
  151SAPE   C3616782   3.804   4.436   9.503  0.1734 -0.4201 -0.3794
  151SAPE   H6X16783   3.846   4.380   9.417 -0.4077 -3.6323  1.2989
  151SAPE   H6Y16784   3.758   4.527   9.458 -0.4152 -0.1225  0.7770
  151SAPE   C3716785   3.700   4.329   9.562 -0.2784 -1.0003  0.0217
  151SAPE   H7X16786   3.643   4.379   9.643  0.8510  0.9957 -0.3414
  151SAPE   H7Y16787   3.753   4.241   9.604  3.6840  1.7817  1.5130
  151SAPE   C3816788   3.588   4.282   9.470 -0.4135 -0.7092 -0.5074
  151SAPE   H8X16789   3.524   4.366   9.436  2.2259  2.2523  1.2550
  151SAPE   H8Y16790   3.529   4.221   9.541 -0.0171  0.5087  0.9170
  151SAPE   C3916791   3.643   4.204   9.351  0.0960 -0.1264 -0.4013
  151SAPE   H9X16792   3.732   4.152   9.392 -0.5058 -1.1412 -0.3332
  151SAPE   H9Y16793   3.689   4.279   9.282  1.0143 -1.2790 -1.0871
  151SAPE  C31016794   3.528   4.123   9.282 -0.0036  0.5149 -0.6301
  151SAPE  H10X16795   3.452   4.201   9.260  0.4511  0.7212 -1.5214
  151SAPE  H10Y16796   3.487   4.043   9.347  1.4496  1.4887  1.6180
  151SAPE  C31116797   3.575   4.062   9.154  0.1289  0.6224  0.0759
  151SAPE  H11X16798   3.641   3.979   9.188  0.7031  1.0435  0.0080
  151SAPE  H11Y16799   3.639   4.138   9.103  1.2095 -0.8878 -0.9016
  151SAPE  C31216800   3.455   4.007   9.073 -0.3397  0.6944  0.4942
  151SAPE  H12X16801   3.365   4.069   9.090  0.3828  1.4399  1.7643
  151SAPE  H12Y16802   3.437   3.911   9.124  3.9374 -1.9970 -2.3792
  151SAPE  C31316803   3.503   3.987   8.925  0.2490 -0.1380 -0.8268
  151SAPE  H13X16804   3.589   3.918   8.928 -2.1559 -3.4018  2.9639
  151SAPE  H13Y16805   3.533   4.088   8.888 -1.7871  0.8699  0.0917
  151SAPE  C31416806   3.391   3.923   8.843  1.0878 -0.2892 -0.4930
  151SAPE  H14X16807   3.313   4.002   8.845  1.6227  0.2676 -1.0360
  151SAPE  H14Y16808   3.351   3.836   8.900  0.4673  1.2687  1.5643
  151SAPE  C31516809   3.428   3.879   8.697 -0.3988  0.3309  0.2987
  151SAPE  H15X16810   3.530   3.835   8.691 -0.1664  0.8604  0.3259
  151SAPE  H15Y16811   3.443   3.980   8.653 -0.5386  0.3486  0.2912
  151SAPE  C31616812   3.317   3.798   8.623 -0.7504 -0.2654 -0.5682
  151SAPE  H16X16813   3.278   3.711   8.680 -3.2470  1.7571  1.0709
  151SAPE  H16Y16814   3.344   3.771   8.519  0.9205  0.3391 -0.3159
  151SAPE  C31716815   3.192   3.887   8.605 -0.3405 -0.3680 -0.1081
  151SAPE  H17X16816   3.159   3.936   8.700 -1.0803 -1.0639  0.0106
  151SAPE  H17Y16817   3.100   3.828   8.582 -1.5308  0.4116  2.2782
  151SAPE  C31816818   3.209   4.000   8.498 -0.5310 -0.0939  0.3280
  151SAPE  H18X16819   3.233   3.949   8.402  0.4323  1.0696 -0.0770
  151SAPE  H18Y16820   3.285   4.078   8.520  0.5417 -0.7414 -0.8730
  151SAPE  H18Z16821   3.113   4.054   8.490 -0.1413  0.4474 -1.1163
  152SAPE     N16822   5.850   3.430  10.849  0.0837 -0.4571 -0.6444
  152SAPE   HN116823   5.835   3.485  10.761 -1.9821  2.3872  1.2837
  152SAPE   HN216824   5.829   3.330  10.830 -1.6567  0.0739 -1.8952
  152SAPE   HN316825   5.780   3.467  10.917 -0.5167 -1.1472 -0.8655
  152SAPE   C1216826   5.986   3.463  10.902 -0.0852  0.4378  0.3379
  152SAPE  H12A16827   6.053   3.396  10.845  0.4388  0.6441  0.7007
  152SAPE  H12B16828   5.989   3.434  11.009  0.0352 -3.0293 -0.4993
  152SAPE   C1116829   6.039   3.607  10.870 -0.2372  0.3963 -0.2399
  152SAPE  H11A16830   6.150   3.605  10.860 -0.2698 -2.4596 -0.6830
  152SAPE  H11B16831   6.016   3.680  10.951 -0.8795  1.6296 -1.4939
  152SAPE     P16832   6.049   3.740  10.645  0.1751  0.3354  0.4229
  152SAPE   O1316833   5.949   3.775  10.543 -0.3513 -0.0114 -0.4696
  152SAPE   O1416834   6.108   3.855  10.714 -0.1388  0.6733 -0.1483
  152SAPE   O1216835   5.973   3.649  10.753  0.4588 -0.1441  0.3383
  152SAPE   O1116836   6.172   3.649  10.591  0.3901  0.0023  0.6710
  152SAPE    C116837   6.146   3.536  10.508  0.2986 -0.0097 -0.4834
  152SAPE    HA16838   6.203   3.450  10.550  0.6334  0.3369 -0.2103
  152SAPE    HB16839   6.039   3.509  10.500  0.8814 -2.1567 -2.0862
  152SAPE    C216840   6.186   3.569  10.366  0.3470  0.3521 -0.1472
  152SAPE    HS16841   6.288   3.614  10.360 -0.7786  2.8704 -1.9143
  152SAPE   O2116842   6.095   3.665  10.306  0.1049  0.4363  0.2059
  152SAPE   C2116843   6.133   3.785  10.301 -0.1001 -0.1627 -1.0078
  152SAPE   O2216844   6.241   3.827  10.343  0.6026  0.3130 -0.0573
  152SAPE   C2216845   6.031   3.870  10.221 -0.3646  0.6076  0.0299
  152SAPE   H2R16846   6.001   3.808  10.133 -0.4896  0.5469  0.1166
  152SAPE   H2S16847   5.955   3.894  10.297  1.5551  1.9192  1.6408
  152SAPE    C316848   6.197   3.441  10.283 -1.2400  0.1052 -0.1762
  152SAPE    HX16849   6.096   3.399  10.260 -1.6464  0.1803  1.3109
  152SAPE    HY16850   6.245   3.360  10.342 -2.1578 -0.3125  0.0192
  152SAPE   O3116851   6.256   3.468  10.158 -0.3458 -0.1920 -0.1878
  152SAPE   C3116852   6.283   3.361  10.080 -0.0468 -0.4194 -0.3787
  152SAPE   O3216853   6.243   3.247  10.101  0.9172 -0.1079  0.2460
  152SAPE   C3216854   6.363   3.402   9.957 -0.1336  0.3381  0.2061
  152SAPE   H2X16855   6.411   3.309   9.920 -1.2642 -1.1314  2.2018
  152SAPE   H2Y16856   6.437   3.479   9.988 -0.3986  0.0743  1.5445
  152SAPE   C2316857   6.094   4.007  10.166 -0.0712 -0.1617 -0.2156
  152SAPE   H3R16858   6.199   3.991  10.133 -0.2585  1.4341 -1.7710
  152SAPE   H3S16859   6.083   4.073  10.255  0.1769 -2.0361  1.2549
  152SAPE   C2416860   6.005   4.071  10.057 -0.3502 -0.0124 -0.0566
  152SAPE   H4R16861   5.908   4.048  10.106  1.2944 -2.8781  2.1601
  152SAPE   H4S16862   6.011   4.004   9.969  0.9189  0.3845 -0.2862
  152SAPE   C2516863   6.031   4.219  10.032  0.6410 -0.2255  0.4159
  152SAPE   H5R16864   6.040   4.288  10.117 -1.2474 -0.1657  0.6181
  152SAPE   C2616865   6.027   4.266   9.905  0.2175 -0.1910 -0.3299
  152SAPE   H6R16866   6.033   4.374   9.883  0.3955 -0.1528 -0.0969
  152SAPE   C2716867   5.999   4.183   9.783  0.2037  0.8796  0.4047
  152SAPE   H7R16868   5.912   4.118   9.804  0.8773 -0.0450  0.4245
  152SAPE   H7S16869   6.088   4.120   9.761 -1.6870 -1.6691 -0.3089
  152SAPE   C2816870   5.961   4.264   9.664 -0.1315  0.3609  0.6660
  152SAPE   H8R16871   5.855   4.276   9.638  0.1986 -0.3164 -1.1204
  152SAPE   C2916872   6.041   4.325   9.574  1.0130  1.2595  0.3969
  152SAPE   H9R16873   6.001   4.384   9.490 -1.7752 -2.6290 -1.3023
  152SAPE  C21016874   6.184   4.334   9.572  0.2455  0.1246  0.4555
  152SAPE  H10R16875   6.215   4.314   9.467  1.1213 -0.3525  0.7890
  152SAPE  H10S16876   6.234   4.258   9.637  3.7596  1.0182 -1.0029
  152SAPE  C21116877   6.224   4.472   9.619 -0.1774 -0.1256  0.7544
  152SAPE  H11R16878   6.203   4.496   9.724  0.6699  0.5849  0.7699
  152SAPE  C21216879   6.299   4.563   9.541 -0.4550  0.0401  0.3949
  152SAPE  H12R16880   6.324   4.665   9.574 -0.9459  1.1363 -2.3789
  152SAPE  C21316881   6.337   4.542   9.393 -0.7318 -0.4445 -0.4045
  152SAPE  H13R16882   6.371   4.438   9.373  0.8407 -0.5197  2.2023
  152SAPE  H13S16883   6.432   4.598   9.378 -0.5188 -0.9736 -1.0806
  152SAPE  C21416884   6.242   4.591   9.296  0.3429  0.3942  0.1740
  152SAPE  H14R16885   6.216   4.697   9.304  1.3266  0.5419  2.3996
  152SAPE  C21516886   6.174   4.521   9.203  0.1817 -0.2673 -0.3406
  152SAPE  H15R16887   6.092   4.577   9.156 -1.0665  1.4672  3.4539
  152SAPE  C21616888   6.171   4.376   9.176 -0.5799  0.6198  0.2117
  152SAPE  H16R16889   6.096   4.320   9.236 -2.3614  4.2361  1.6771
  152SAPE  H16S16890   6.267   4.329   9.206  0.4666  0.9990 -2.3525
  152SAPE  C21716891   6.160   4.355   9.025 -0.0621  0.2064 -0.4072
  152SAPE  H17R16892   6.167   4.245   9.008 -1.3897 -0.0989  0.8692
  152SAPE  H17S16893   6.258   4.388   8.985 -0.4597 -0.7523 -2.2810
  152SAPE  C21816894   6.048   4.417   8.945 -0.4691  0.9206 -0.2346
  152SAPE  H18R16895   6.054   4.528   8.941  0.1327  0.8680 -2.0420
  152SAPE  H18S16896   5.956   4.394   9.001 -0.1321  0.4938  0.1496
  152SAPE  C21916897   6.033   4.359   8.804  0.0441 -0.5618 -0.3135
  152SAPE  H19R16898   6.123   4.395   8.749 -0.5939  0.2255 -0.8602
  152SAPE  H19S16899   5.944   4.408   8.759 -0.0159  1.1661  1.5412
  152SAPE  C22016900   6.004   4.205   8.797 -0.5901  0.3399 -0.0676
  152SAPE  H20R16901   5.943   4.175   8.710 -0.0872  0.2538 -0.3950
  152SAPE  H20S16902   5.940   4.176   8.884  0.2170  0.3508  0.5462
  152SAPE  H20T16903   6.103   4.154   8.801 -0.3824  0.4280 -2.6751
  152SAPE   C3316904   6.274   3.442   9.835  0.5811  0.5953 -0.7640
  152SAPE   H3X16905   6.232   3.539   9.871 -0.9394 -0.7467  1.3310
  152SAPE   H3Y16906   6.207   3.354   9.825 -0.9031  0.8872  3.9980
  152SAPE   C3416907   6.340   3.464   9.702 -0.3845  0.2134  0.0747
  152SAPE   H4X16908   6.418   3.388   9.681 -0.0805  1.3207 -3.4574
  152SAPE   H4Y16909   6.402   3.556   9.702  0.0766 -0.0299 -2.4658
  152SAPE   C3516910   6.241   3.466   9.586  1.0236  0.4968  0.1096
  152SAPE   H5X16911   6.155   3.535   9.603  0.6082 -0.0252  0.1572
  152SAPE   H5Y16912   6.198   3.364   9.581 -1.1591  1.1341  2.7317
  152SAPE   C3616913   6.308   3.507   9.453 -0.4158  0.2988 -0.4575
  152SAPE   H6X16914   6.239   3.473   9.373  0.2762 -0.2007 -0.8540
  152SAPE   H6Y16915   6.392   3.436   9.439 -1.0603 -0.5114 -0.3008
  152SAPE   C3716916   6.348   3.654   9.448  0.6546 -0.2443 -0.1777
  152SAPE   H7X16917   6.437   3.681   9.509  0.4451  0.8123 -0.3108
  152SAPE   H7Y16918   6.264   3.711   9.494 -0.2010 -0.4356 -1.4723
  152SAPE   C3816919   6.383   3.698   9.310 -0.0827 -0.2871  0.2482
  152SAPE   H8X16920   6.301   3.688   9.235  0.7492 -2.2569 -0.4412
  152SAPE   H8Y16921   6.465   3.631   9.279 -0.9622 -0.7189 -1.2101
  152SAPE   C3916922   6.444   3.842   9.291  0.3202  0.6290 -0.5913
  152SAPE   H9X16923   6.511   3.869   9.376  0.1257 -3.7223  1.1839
  152SAPE   H9Y16924   6.358   3.913   9.294 -1.8778 -1.8819  1.0394
  152SAPE  C31016925   6.521   3.861   9.160  0.1372  0.0732 -0.6359
  152SAPE  H10X16926   6.613   3.798   9.159  1.5356  2.0326 -1.1934
  152SAPE  H10Y16927   6.553   3.967   9.161 -2.8225  1.0561  0.8058
  152SAPE  C31116928   6.433   3.831   9.046 -0.6543  0.3976  1.0413
  152SAPE  H11X16929   6.332   3.877   9.056 -1.9464 -1.5706 -1.7031
  152SAPE  H11Y16930   6.418   3.722   9.034 -1.5368  0.7043 -0.9961
  152SAPE  C31216931   6.501   3.899   8.920  0.4212 -0.1442  0.1435
  152SAPE  H12X16932   6.453   3.847   8.835  0.8765  1.3142 -1.0491
  152SAPE  H12Y16933   6.609   3.874   8.931  0.2864 -0.1041  1.8831
  152SAPE  C31316934   6.478   4.052   8.908 -0.2328 -0.5352  0.6283
  152SAPE  H13X16935   6.529   4.099   8.995 -0.9212  3.8142 -1.0709
  152SAPE  H13Y16936   6.368   4.069   8.913 -0.1783  0.0419 -0.0382
  152SAPE  C31416937   6.551   4.121   8.790  0.0054  0.4346  0.0918
  152SAPE  H14X16938   6.660   4.102   8.800 -0.4694 -1.6383  2.2052
  152SAPE  H14Y16939   6.528   4.229   8.795 -2.7842 -0.1384  1.2338
  152SAPE  C31516940   6.503   4.060   8.658 -0.0352 -0.2761  0.3959
  152SAPE  H15X16941   6.531   3.954   8.643  0.3241  0.1231 -2.2457
  152SAPE  H15Y16942   6.545   4.129   8.582  0.3717  2.3710  2.8531
  152SAPE  C31616943   6.346   4.075   8.638 -0.3270  0.3961  0.3291
  152SAPE  H16X16944   6.319   4.183   8.639 -3.2187 -0.2523  0.5701
  152SAPE  H16Y16945   6.293   4.022   8.720 -0.8061  1.2914  0.6121
  152SAPE  C31716946   6.296   4.015   8.509  0.3252  0.4589 -0.0350
  152SAPE  H17X16947   6.310   3.905   8.512 -1.7619  0.1626  2.5307
  152SAPE  H17Y16948   6.364   4.055   8.431  0.1339  1.7472  0.4188
  152SAPE  C31816949   6.142   4.033   8.491 -0.3223 -0.9843  0.0802
  152SAPE  H18X16950   6.124   4.141   8.471  2.8891  0.4489  3.7277
  152SAPE  H18Y16951   6.079   4.010   8.580  1.5483 -1.1861  1.3995
  152SAPE  H18Z16952   6.103   3.968   8.410  0.3177 -3.1603  1.4502
  153SAPE     N16953   5.690   3.730  10.620 -0.2664 -0.7955  0.8166
  153SAPE   HN116954   5.775   3.788  10.609 -1.7531  1.5122  0.9287
  153SAPE   HN216955   5.664   3.754  10.718 -0.0415 -0.2397  0.7444
  153SAPE   HN316956   5.713   3.628  10.621  1.6584 -0.3986  0.4438
  153SAPE   C1216957   5.588   3.777  10.515  0.2839  0.4859 -0.5738
  153SAPE  H12A16958   5.605   3.718  10.422  1.6838 -0.4326  0.2269
  153SAPE  H12B16959   5.613   3.884  10.499 -1.9777  1.0615 -0.5856
  153SAPE   C1116960   5.449   3.783  10.560  0.3894 -0.2316 -0.0772
  153SAPE  H11A16961   5.389   3.816  10.473  0.0998 -0.7706 -0.0894
  153SAPE  H11B16962   5.446   3.859  10.642  1.3698  0.3477 -0.5651
  153SAPE     P16963   5.239   3.637  10.645  0.1549  0.1132  0.0667
  153SAPE   O1316964   5.239   3.542  10.758 -0.4147  0.2075 -0.7069
  153SAPE   O1416965   5.165   3.762  10.656  0.2865  0.1068 -0.1232
  153SAPE   O1216966   5.391   3.655  10.615  0.0173 -0.1227 -0.2114
  153SAPE   O1116967   5.194   3.554  10.516 -0.2715 -0.0453  0.4463
  153SAPE    C116968   5.286   3.456  10.464 -0.1940  0.4936  0.0049
  153SAPE    HA16969   5.361   3.418  10.537 -1.9301 -3.6674 -0.0770
  153SAPE    HB16970   5.239   3.359  10.437  2.2612 -0.8668  0.3407
  153SAPE    C216971   5.369   3.499  10.343 -0.7730  0.1651  0.2452
  153SAPE    HS16972   5.454   3.564  10.374  0.8037 -1.7175  0.0824
  153SAPE   O2116973   5.292   3.557  10.235 -0.2825  0.1379  0.2525
  153SAPE   C2116974   5.331   3.676  10.200 -0.2445 -0.5214  0.4908
  153SAPE   O2216975   5.439   3.730  10.229 -0.0411  0.1450 -0.4199
  153SAPE   C2216976   5.227   3.740  10.104  0.2450 -0.1534 -0.0538
  153SAPE   H2R16977   5.145   3.671  10.079  0.8983 -1.2141  0.6408
  153SAPE   H2S16978   5.187   3.824  10.165  1.9485  0.0183  0.8968
  153SAPE    C316979   5.438   3.372  10.286  0.1145 -0.0126 -0.1392
  153SAPE    HX16980   5.356   3.301  10.264  0.5690 -0.2588 -1.1066
  153SAPE    HY16981   5.500   3.321  10.362 -0.5423 -0.1636  0.3011
  153SAPE   O3116982   5.513   3.390  10.161  0.0496  0.1129 -0.1168
  153SAPE   C3116983   5.622   3.459  10.191  0.0377  0.3772 -0.1699
  153SAPE   O3216984   5.675   3.460  10.300 -0.2254 -0.3850  0.4439
  153SAPE   C3216985   5.701   3.513  10.073 -0.5006 -0.0115  0.6907
  153SAPE   H2X16986   5.644   3.592  10.019 -1.5318 -0.9827  0.3201
  153SAPE   H2Y16987   5.726   3.431  10.002  1.0676  0.5312  0.5593
  153SAPE   C2316988   5.294   3.806   9.979  0.6945 -0.1029 -0.1517
  153SAPE   H3R16989   5.370   3.876  10.021  0.7489 -1.0073  1.3376
  153SAPE   H3S16990   5.219   3.872   9.931 -0.4602  0.9036  2.8630
  153SAPE   C2416991   5.357   3.703   9.882 -0.1752  0.2779 -0.4016
  153SAPE   H4R16992   5.276   3.647   9.830 -0.8692  1.4797 -0.6592
  153SAPE   H4S16993   5.409   3.626   9.944 -1.9761  0.1576  1.0582
  153SAPE   C2516994   5.450   3.787   9.800  0.5222  0.1400  0.0013
  153SAPE   H5R16995   5.524   3.854   9.847  1.0211 -0.3359 -0.0988
  153SAPE   C2616996   5.437   3.787   9.668  0.0728  0.3640 -0.2733
  153SAPE   H6R16997   5.505   3.859   9.620  1.5525  0.8831  2.4180
  153SAPE   C2716998   5.354   3.710   9.567  0.0525  0.4762  0.2489
  153SAPE   H7R16999   5.331   3.773   9.479 -2.3716 -1.6394 -0.7499
  153SAPE   H7S17000   5.256   3.675   9.606  0.7694  0.1309  1.8265
  153SAPE   C2817001   5.434   3.589   9.517 -0.2076 -0.0980  0.7259
  153SAPE   H8R17002   5.413   3.496   9.572 -2.2657  0.4634  0.9677
  153SAPE   C2917003   5.514   3.584   9.406 -0.5188 -0.1984  0.1271
  153SAPE   H9R17004   5.570   3.491   9.388 -1.8012 -0.9775  0.0374
  153SAPE  C21017005   5.549   3.697   9.308  0.6718  0.6825 -0.9088
  153SAPE  H10R17006   5.655   3.680   9.279  1.0636  1.4348  0.0374
  153SAPE  H10S17007   5.547   3.796   9.359  0.0643  0.3540 -0.2720
  153SAPE  C21117008   5.456   3.712   9.189 -0.0874 -0.2742 -0.1290
  153SAPE  H11R17009   5.365   3.650   9.181 -0.2080  0.1407 -3.6289
  153SAPE  C21217010   5.489   3.795   9.084 -0.0014 -0.1523  0.8847
  153SAPE  H12R17011   5.421   3.798   8.997 -0.5442  0.8841  1.3233
  153SAPE  C21317012   5.609   3.883   9.068 -0.8756 -0.0010  0.4278
  153SAPE  H13R17013   5.619   3.907   8.960 -0.9410  1.5772  0.7483
  153SAPE  H13S17014   5.695   3.816   9.089 -1.0153 -0.6927 -1.0712
  153SAPE  C21417015   5.614   4.011   9.145 -0.9138  0.1110  0.1741
  153SAPE  H14R17016   5.628   3.984   9.251 -1.6352  0.9538  0.4928
  153SAPE  C21517017   5.601   4.141   9.102 -0.2829  0.3774 -0.2787
  153SAPE  H15R17018   5.620   4.221   9.175  0.9079 -1.6893  1.8131
  153SAPE  C21617019   5.574   4.194   8.964 -0.3134  0.2133 -0.1319
  153SAPE  H16R17020   5.594   4.114   8.889  3.2489  2.1545 -1.4763
  153SAPE  H16S17021   5.640   4.281   8.947 -0.6358  0.8131  1.5109
  153SAPE  C21717022   5.434   4.234   8.933  0.6721  0.0924 -0.6391
  153SAPE  H17R17023   5.399   4.335   8.960 -0.0391 -0.6667  1.4644
  153SAPE  H17S17024   5.366   4.174   8.997 -0.2438  2.1039  0.3641
  153SAPE  C21817025   5.387   4.211   8.787 -0.1015 -0.1487 -0.3996
  153SAPE  H18R17026   5.277   4.225   8.776 -0.3945 -2.7767 -1.7279
  153SAPE  H18S17027   5.418   4.106   8.769 -0.2362 -0.1874 -0.4070
  153SAPE  C21917028   5.460   4.300   8.680  0.3638  1.1011 -0.0386
  153SAPE  H19R17029   5.430   4.272   8.577  2.0275  0.3080 -0.3321
  153SAPE  H19S17030   5.569   4.287   8.692  0.5710  2.2969 -0.5325
  153SAPE  C22017031   5.440   4.442   8.701 -0.7791 -0.6742 -0.1498
  153SAPE  H20R17032   5.475   4.481   8.800  1.2541  1.2119 -1.5056
  153SAPE  H20S17033   5.333   4.471   8.703 -0.3386  1.0358  0.2460
  153SAPE  H20T17034   5.499   4.495   8.623  1.7476 -1.5672  1.0253
  153SAPE   C3317035   5.839   3.558  10.121  0.1145  0.2710 -0.0863
  153SAPE   H3X17036   5.892   3.493  10.194  1.1661 -1.1112 -1.9964
  153SAPE   H3Y17037   5.836   3.657  10.172  0.6003  0.9624 -1.3671
  153SAPE   C3417038   5.938   3.560  10.002 -0.1755 -0.5474  0.9935
  153SAPE   H4X17039   5.982   3.461   9.976  0.4238  0.0650 -0.4503
  153SAPE   H4Y17040   6.023   3.628  10.025 -0.2328 -0.1064 -0.0356
  153SAPE   C3517041   5.877   3.624   9.877  0.1423 -0.3759  0.1674
  153SAPE   H5X17042   5.791   3.689   9.904  0.9782  2.0821 -2.5601
  153SAPE   H5Y17043   5.833   3.540   9.820  1.6300 -0.3583 -1.0701
  153SAPE   C3617044   5.976   3.707   9.791 -0.1398 -0.2115 -0.1060
  153SAPE   H6X17045   6.059   3.644   9.751  0.2728  0.0165  0.3869
  153SAPE   H6Y17046   6.021   3.780   9.861 -2.1510  2.1968 -1.1677
  153SAPE   C3717047   5.903   3.773   9.666  0.1999 -0.2193 -0.2832
  153SAPE   H7X17048   5.817   3.835   9.699  0.5092  0.4790 -0.7642
  153SAPE   H7Y17049   5.854   3.696   9.603 -0.4692 -0.7489  0.8505
  153SAPE   C3817050   5.991   3.857   9.581 -0.0892 -0.0265 -0.4832
  153SAPE   H8X17051   6.074   3.790   9.551  0.5976  1.4230 -2.0065
  153SAPE   H8Y17052   6.035   3.930   9.652 -2.5333  0.7648  0.2961
  153SAPE   C3917053   5.922   3.930   9.468 -0.1820 -0.2375  0.4184
  153SAPE   H9X17054   5.835   3.983   9.514  0.5757 -0.9274  2.7599
  153SAPE   H9Y17055   5.865   3.864   9.399  0.3911 -0.7560  0.4426
  153SAPE  C31017056   6.008   4.009   9.371  0.3697 -0.6029 -0.3406
  153SAPE  H10X17057   6.077   4.068   9.436 -0.1048  1.0746 -1.2904
  153SAPE  H10Y17058   5.948   4.076   9.305 -1.3004  0.7265  2.3589
  153SAPE  C31117059   6.080   3.919   9.267 -0.5301 -0.4275  0.4261
  153SAPE  H11X17060   6.137   3.844   9.325 -0.0500 -1.8436 -1.7477
  153SAPE  H11Y17061   6.161   3.979   9.219 -1.4627  0.6664  0.1528
  153SAPE  C31217062   5.993   3.881   9.143 -0.3602  0.3464  0.0693
  153SAPE  H12X17063   5.938   3.966   9.095 -0.7910  0.5805  0.9484
  153SAPE  H12Y17064   5.914   3.807   9.167 -0.6939  0.7849  0.3572
  153SAPE  C31317065   6.080   3.836   9.021  0.2730  0.6991 -0.1571
  153SAPE  H13X17066   6.154   3.768   9.066 -1.4588 -0.0698  1.6771
  153SAPE  H13Y17067   6.126   3.924   8.971 -0.2289 -0.8960 -3.7576
  153SAPE  C31417068   6.003   3.760   8.909 -0.3148  0.0220  0.6510
  153SAPE  H14X17069   5.927   3.686   8.942  0.7982 -1.7280 -0.5673
  153SAPE  H14Y17070   6.078   3.704   8.850  3.7920  3.9041  1.5865
  153SAPE  C31517071   5.944   3.861   8.814 -0.1826 -0.2589  0.0710
  153SAPE  H15X17072   6.030   3.910   8.763 -0.6200 -1.2775 -1.7208
  153SAPE  H15Y17073   5.880   3.933   8.870 -1.2774 -1.2938  0.1811
  153SAPE  C31617074   5.854   3.796   8.710  0.0023 -0.2473 -0.9096
  153SAPE  H16X17075   5.800   3.880   8.662  2.0597  1.9273  0.4216
  153SAPE  H16Y17076   5.771   3.739   8.757  0.4176 -0.9829 -1.0448
  153SAPE  C31717077   5.929   3.710   8.610  0.2829  0.0912 -0.3946
  153SAPE  H17X17078   5.966   3.622   8.667 -1.9506 -0.3438  0.4755
  153SAPE  H17Y17079   6.003   3.780   8.566 -0.6679  0.8166 -0.8842
  153SAPE  C31817080   5.837   3.653   8.500  0.0997  0.4506  0.2886
  153SAPE  H18X17081   5.756   3.720   8.467 -1.3237 -1.5532 -0.5264
  153SAPE  H18Y17082   5.784   3.564   8.539  1.0524 -0.0849  0.4098
  153SAPE  H18Z17083   5.896   3.607   8.417 -1.7283 -1.0860 -0.2246
  154SAPE     N17084   6.693   3.247  11.252 -0.5948 -0.1124  0.3944
  154SAPE   HN117085   6.684   3.350  11.265  2.3094  0.2400  0.3091
  154SAPE   HN217086   6.763   3.215  11.322  1.2172  0.0448 -1.2524
  154SAPE   HN317087   6.711   3.232  11.151 -1.5994 -0.0739  0.2013
  154SAPE   C1217088   6.559   3.178  11.269  0.2476 -0.1792  0.4150
  154SAPE  H12A17089   6.544   3.189  11.379  0.9791 -0.4813  0.5537
  154SAPE  H12B17090   6.568   3.068  11.251 -1.0853 -0.0636 -1.1973
  154SAPE   C1117091   6.446   3.240  11.183  0.0834 -0.9168  0.1376
  154SAPE  H11A17092   6.436   3.344  11.222  5.0050 -0.2823  0.3980
  154SAPE  H11B17093   6.352   3.182  11.185 -0.6837  0.2196 -1.2335
  154SAPE     P17094   6.410   3.352  10.958 -0.2881 -0.2253 -0.3366
  154SAPE   O1317095   6.273   3.376  11.009  0.2866 -0.1101 -0.7589
  154SAPE   O1417096   6.510   3.457  10.942 -0.0613  0.0956  0.1388
  154SAPE   O1217097   6.480   3.244  11.045  0.0870  0.5538 -0.2220
  154SAPE   O1117098   6.400   3.285  10.820 -0.3538 -0.1190  0.1415
  154SAPE    C117099   6.407   3.143  10.812 -0.3598  0.8592 -0.3387
  154SAPE    HA17100   6.513   3.110  10.813 -0.2257  1.2434 -1.0151
  154SAPE    HB17101   6.361   3.089  10.898 -0.7676  0.6445 -0.6904
  154SAPE    C217102   6.331   3.091  10.681 -0.7646  0.9076 -0.6032
  154SAPE    HS17103   6.331   2.980  10.685 -2.9974  0.8489 -1.1891
  154SAPE   O2117104   6.409   3.125  10.566  0.1961  0.4515  0.2210
  154SAPE   C2117105   6.521   3.055  10.547 -0.3347 -0.4620 -0.5679
  154SAPE   O2217106   6.562   2.972  10.625 -0.2567 -0.1879  0.3548
  154SAPE   C2217107   6.601   3.099  10.422  0.6716 -0.5864 -0.1154
  154SAPE   H2R17108   6.535   3.082  10.335  0.8139  0.1126 -0.3722
  154SAPE   H2S17109   6.609   3.210  10.418  2.8439 -0.6512  0.7639
  154SAPE    C317110   6.183   3.126  10.670  0.0910  0.4787 -0.0363
  154SAPE    HX17111   6.167   3.236  10.677 -0.3749  0.6075 -2.4443
  154SAPE    HY17112   6.127   3.080  10.754 -0.8224  0.2123 -0.7767
  154SAPE   O3117113   6.119   3.082  10.545  0.3902  0.2507 -0.3698
  154SAPE   C3117114   6.010   3.151  10.518  0.8540  0.2809  0.1728
  154SAPE   O3217115   5.958   3.232  10.592 -0.2240 -0.2453  0.0009
  154SAPE   C3217116   5.968   3.119  10.376 -0.2244  0.6284 -0.4455
  154SAPE   H2X17117   5.950   3.009  10.367 -1.1066  0.6598  0.6827
  154SAPE   H2Y17118   6.051   3.145  10.307  0.5420  0.1996  0.2842
  154SAPE   C2317119   6.744   3.037  10.403  0.5189  0.6645 -0.1872
  154SAPE   H3R17120   6.747   2.933  10.440 -1.0145  0.4388 -0.6160
  154SAPE   H3S17121   6.809   3.094  10.473  0.2465  1.5389 -0.6346
  154SAPE   C2417122   6.810   3.051  10.272 -0.1388 -0.5381 -0.3286
  154SAPE   H4R17123   6.903   2.992  10.282 -0.5765 -0.9470  1.9485
  154SAPE   H4S17124   6.835   3.157  10.255 -1.5025 -0.0409  0.5894
  154SAPE   C2517125   6.728   2.990  10.159 -0.3842 -0.2172  0.4233
  154SAPE   H5R17126   6.671   2.900  10.186 -1.7993  0.5553  0.1135
  154SAPE   C2617127   6.740   3.043  10.034 -0.0914 -0.4604  0.0600
  154SAPE   H6R17128   6.688   2.988   9.954  0.7997 -0.2807 -0.6460
  154SAPE   C2717129   6.818   3.163   9.981  0.0655  0.6958 -0.0109
  154SAPE   H7R17130   6.857   3.143   9.880  1.7113 -0.2789  0.7737
  154SAPE   H7S17131   6.905   3.180  10.048  0.6200  1.0410 -0.8069
  154SAPE   C2817132   6.715   3.280   9.978  0.0873  1.5076  0.3010
  154SAPE   H8R17133   6.665   3.290  10.076 -0.9527 -0.9184  0.0670
  154SAPE   C2917134   6.686   3.362   9.876 -0.5922 -0.8029 -0.4062
  154SAPE   H9R17135   6.618   3.445   9.902 -0.4312 -1.7233  3.8107
  154SAPE  C21017136   6.756   3.362   9.739  0.1094  0.1410 -0.7396
  154SAPE  H10R17137   6.746   3.260   9.696  2.4157 -0.5032  0.0877
  154SAPE  H10S17138   6.863   3.391   9.747 -0.1149  1.3928 -1.8165
  154SAPE  C21117139   6.701   3.464   9.639  0.4098  1.0158  0.6203
  154SAPE  H11R17140   6.685   3.566   9.677  2.0883  2.0385 -1.2412
  154SAPE  C21217141   6.687   3.451   9.508 -0.0654  0.5561 -0.3672
  154SAPE  H12R17142   6.644   3.538   9.456 -1.8778 -0.2911 -0.3590
  154SAPE  C21317143   6.708   3.326   9.418  0.8161 -0.7872 -0.1496
  154SAPE  H13R17144   6.635   3.323   9.335 -2.1566 -0.0775  2.2602
  154SAPE  H13S17145   6.685   3.226   9.459 -0.6191  0.3400  1.9506
  154SAPE  C21417146   6.846   3.324   9.368  0.0947  0.6950  0.1445
  154SAPE  H14R17147   6.920   3.294   9.444  0.0255 -0.4336 -0.2042
  154SAPE  C21517148   6.892   3.362   9.244 -0.0503  0.2667 -0.1678
  154SAPE  H15R17149   7.001   3.359   9.232  0.3109  1.2459  2.3221
  154SAPE  C21617150   6.821   3.407   9.120 -0.2915 -0.3763  0.0047
  154SAPE  H16R17151   6.711   3.392   9.114 -0.1079 -1.4796 -1.0513
  154SAPE  H16S17152   6.860   3.344   9.038 -1.0585  1.0036 -1.4906
  154SAPE  C21717153   6.847   3.554   9.081  0.0324 -0.1893  0.3197
  154SAPE  H17R17154   6.956   3.577   9.080 -0.2249  1.2558  1.8571
  154SAPE  H17S17155   6.813   3.623   9.161  1.0353 -2.1180  2.5534
  154SAPE  C21817156   6.779   3.590   8.948 -0.2072 -0.0183 -0.2517
  154SAPE  H18R17157   6.794   3.700   8.940 -2.1555  0.1845 -1.9939
  154SAPE  H18S17158   6.672   3.561   8.960  0.4609 -2.6776 -0.1006
  154SAPE  C21917159   6.847   3.526   8.826 -0.1145  0.6733 -0.0321
  154SAPE  H19R17160   6.804   3.424   8.820  0.8667  0.3390 -4.3282
  154SAPE  H19S17161   6.956   3.521   8.846  0.1676 -0.4637 -1.6720
  154SAPE  C22017162   6.822   3.598   8.694 -0.5057 -0.3765 -0.7361
  154SAPE  H20R17163   6.716   3.630   8.689  0.0771  2.3198  1.2645
  154SAPE  H20S17164   6.841   3.518   8.620  1.0923  0.3034 -1.0935
  154SAPE  H20T17165   6.898   3.678   8.678  1.4675 -1.9997  0.0693
  154SAPE   C3317166   5.844   3.192  10.333  0.6789 -0.5178  0.0220
  154SAPE   H3X17167   5.853   3.303  10.334 -4.1051  0.0795 -0.6119
  154SAPE   H3Y17168   5.763   3.153  10.399 -0.2474 -0.4968 -1.0838
  154SAPE   C3417169   5.802   3.136  10.194 -0.0470 -0.3302  0.6143
  154SAPE   H4X17170   5.696   3.163  10.176  0.3565  0.2925 -0.9792
  154SAPE   H4Y17171   5.784   3.027  10.212 -3.7262  0.1090  0.3991
  154SAPE   C3517172   5.897   3.177  10.078  0.5726  0.3948  0.4084
  154SAPE   H5X17173   5.987   3.113  10.077 -1.6948 -3.0934  1.1189
  154SAPE   H5Y17174   5.921   3.285  10.090  0.1582  0.5494 -0.0974
  154SAPE   C3617175   5.828   3.177   9.945 -0.2928 -0.8282  0.0357
  154SAPE   H6X17176   5.729   3.226   9.954 -0.7139 -1.7367  0.4972
  154SAPE   H6Y17177   5.798   3.071   9.930 -0.9880 -0.9768  2.1271
  154SAPE   C3717178   5.892   3.224   9.821  0.2895 -0.1930  0.2907
  154SAPE   H7X17179   5.981   3.164   9.791  1.2887  0.7141  1.3253
  154SAPE   H7Y17180   5.914   3.332   9.832  2.3789 -0.6058  0.7309
  154SAPE   C3817181   5.806   3.216   9.700  0.3532  0.0022  0.3768
  154SAPE   H8X17182   5.712   3.275   9.707 -0.1316 -0.7550  0.4036
  154SAPE   H8Y17183   5.762   3.114   9.702 -0.4493  0.3439  2.0530
  154SAPE   C3917184   5.878   3.252   9.572 -0.3103  0.1277  0.2278
  154SAPE   H9X17185   5.959   3.178   9.555 -2.2692 -1.9296 -0.6480
  154SAPE   H9Y17186   5.938   3.346   9.568  1.7345 -1.0188  2.1993
  154SAPE  C31017187   5.788   3.240   9.446 -0.1989  1.1092  0.1542
  154SAPE  H10X17188   5.692   3.288   9.473 -1.2361 -1.6357  1.7948
  154SAPE  H10Y17189   5.764   3.132   9.437  1.2384  0.7574  0.2609
  154SAPE  C31117190   5.845   3.293   9.306  0.7440 -0.4986 -1.0714
  154SAPE  H11X17191   5.933   3.233   9.275  0.5765 -0.8571 -0.8625
  154SAPE  H11Y17192   5.871   3.398   9.331 -1.7236 -0.0881  0.0744
  154SAPE  C31217193   5.745   3.295   9.192 -0.1193  0.6584  0.1473
  154SAPE  H12X17194   5.658   3.360   9.215 -1.4674 -0.5246 -1.3811
  154SAPE  H12Y17195   5.692   3.197   9.188  0.4164  0.1556  3.0520
  154SAPE  C31317196   5.803   3.327   9.050 -0.1901  0.0201 -0.3219
  154SAPE  H13X17197   5.834   3.229   9.009  0.9762  1.2309 -2.5601
  154SAPE  H13Y17198   5.886   3.399   9.071 -0.9061  0.8634 -0.3223
  154SAPE  C31417199   5.699   3.410   8.963 -0.1099 -0.5449  0.4504
  154SAPE  H14X17200   5.700   3.515   9.000 -0.1582  0.3832 -2.0162
  154SAPE  H14Y17201   5.595   3.377   8.986 -0.2015  0.2740  1.3111
  154SAPE  C31517202   5.733   3.417   8.816 -0.2798 -0.3345  0.4855
  154SAPE  H15X17203   5.833   3.461   8.798 -0.9955 -0.0062 -3.8350
  154SAPE  H15Y17204   5.678   3.489   8.752  2.3117  1.1447 -0.1990
  154SAPE  C31617205   5.718   3.274   8.749 -0.4287  0.4860 -0.2296
  154SAPE  H16X17206   5.617   3.242   8.784  1.2437 -3.1366  1.8742
  154SAPE  H16Y17207   5.794   3.205   8.791 -1.1711  0.1710  0.6241
  154SAPE  C31717208   5.726   3.274   8.601  0.1923 -0.5553  0.2891
  154SAPE  H17X17209   5.823   3.320   8.573  0.3500  1.2146  3.3837
  154SAPE  H17Y17210   5.659   3.355   8.563 -0.9135 -1.3873  0.4234
  154SAPE  C31817211   5.697   3.144   8.535 -0.2304  0.7343  0.0224
  154SAPE  H18X17212   5.725   3.144   8.427  0.6886 -1.4113  0.2084
  154SAPE  H18Y17213   5.592   3.108   8.544 -0.4335  0.9093 -1.3258
  154SAPE  H18Z17214   5.771   3.079   8.586 -1.8558  0.8545  2.7410
  155SAPE     N17215   0.460   4.457  10.912 -0.0790 -0.8109  0.3836
  155SAPE   HN117216   0.522   4.512  10.849 -2.5277 -0.6269 -2.0473
  155SAPE   HN217217   0.365   4.487  10.884  0.7416  1.1613 -0.4871
  155SAPE   HN317218   0.484   4.502  11.003  0.2485 -0.4461  0.1216
  155SAPE   C1217219   0.483   4.316  10.912  0.6624 -0.0312  0.1966
  155SAPE  H12A17220   0.482   4.290  10.803 -1.8656  0.4698  0.0329
  155SAPE  H12B17221   0.396   4.262  10.954  0.1692  1.4008  1.0471
  155SAPE   C1117222   0.623   4.278  10.967 -0.9433 -0.1550 -0.2926
  155SAPE  H11A17223   0.634   4.176  10.926  0.0905 -0.2906  0.2758
  155SAPE  H11B17224   0.627   4.273  11.078  2.3598 -1.8642 -0.3626
  155SAPE     P17225   0.845   4.324  10.851  0.1254  0.1590  0.4707
  155SAPE   O1317226   0.948   4.427  10.843 -0.5348 -0.1719 -0.5177
  155SAPE   O1417227   0.889   4.198  10.920  0.2926 -0.1906  0.1835
  155SAPE   O1217228   0.711   4.375  10.909 -0.6260  0.5463 -0.4115
  155SAPE   O1117229   0.818   4.293  10.703  0.2887  0.1848 -0.2765
  155SAPE    C117230   0.716   4.362  10.627 -0.4982 -0.2259  0.1301
  155SAPE    HA17231   0.616   4.316  10.640 -0.0857 -2.0738 -2.4688
  155SAPE    HB17232   0.709   4.464  10.671  0.6811 -0.1114  0.0891
  155SAPE    C217233   0.743   4.361  10.472 -0.2565 -0.0181 -0.1967
  155SAPE    HS17234   0.662   4.417  10.422  2.1468  1.5273 -2.6530
  155SAPE   O2117235   0.762   4.235  10.418 -0.4211  0.5171  0.2246
  155SAPE   C2117236   0.706   4.124  10.461  0.0296  0.5666  0.2712
  155SAPE   O2217237   0.618   4.108  10.545 -0.0732  0.3584  0.4340
  155SAPE   C2217238   0.773   4.010  10.381  0.5996  0.0306 -0.5120
  155SAPE   H2R17239   0.778   4.038  10.274  4.2878  0.7399 -0.2866
  155SAPE   H2S17240   0.876   3.991  10.419 -0.1152  1.7657  2.6433
  155SAPE    C317241   0.870   4.441  10.448  0.5572  0.1233  0.3639
  155SAPE    HX17242   0.941   4.398  10.521 -1.2864 -2.7345  0.6233
  155SAPE    HY17243   0.858   4.548  10.476  1.7335  0.8329 -1.6384
  155SAPE   O3117244   0.917   4.434  10.308  0.0482 -0.0986 -0.0559
  155SAPE   C3117245   0.857   4.521  10.222 -0.0602  0.7081  0.7544
  155SAPE   O3217246   0.774   4.608  10.247 -0.2897 -0.0168  0.5072
  155SAPE   C3217247   0.917   4.481  10.088  0.8101  0.1290 -0.3795
  155SAPE   H2X17248   0.876   4.380  10.067 -0.5068  0.6010 -0.1999
  155SAPE   H2Y17249   1.026   4.501  10.097  0.6342  0.0983  4.2320
  155SAPE   C2317250   0.690   3.881  10.400 -0.1909  0.2198 -0.1828
  155SAPE   H3R17251   0.580   3.899  10.404 -0.2785 -0.0022 -1.2765
  155SAPE   H3S17252   0.710   3.840  10.502 -0.9050  1.7675  0.6068
  155SAPE   C2417253   0.708   3.775  10.297 -0.1956 -0.5306 -0.0609
  155SAPE   H4R17254   0.685   3.804  10.192  3.4106 -3.1285 -1.8054
  155SAPE   H4S17255   0.639   3.690  10.318 -1.0632  0.3234  0.5974
  155SAPE   C2517256   0.845   3.733  10.302 -0.3860 -0.0750  0.6208
  155SAPE   H5R17257   0.916   3.797  10.357  0.6538  0.1132 -0.8587
  155SAPE   C2617258   0.892   3.618  10.251  0.0351 -0.3292 -1.1220
  155SAPE   H6R17259   1.002   3.608  10.251  0.2027  0.8316  1.4232
  155SAPE   C2717260   0.819   3.515  10.169  0.0478 -0.2023 -0.2822
  155SAPE   H7R17261   0.730   3.556  10.117 -1.0035  0.7299  2.1044
  155SAPE   H7S17262   0.779   3.437  10.237  0.3024 -0.1112 -0.0259
  155SAPE   C2817263   0.903   3.440  10.062 -0.1475  0.1274  0.2245
  155SAPE   H8R17264   0.925   3.333  10.081  1.5813  0.5732  0.8762
  155SAPE   C2917265   0.927   3.501   9.944 -0.0087 -0.0074  0.0995
  155SAPE   H9R17266   0.980   3.458   9.857 -1.8983 -2.6309  0.1213
  155SAPE  C21017267   0.872   3.642   9.916  0.4454 -0.0145 -0.1241
  155SAPE  H10R17268   0.944   3.703   9.858 -0.8876  3.0878  1.2372
  155SAPE  H10S17269   0.868   3.707  10.006 -0.4781 -1.8300  1.2281
  155SAPE  C21117270   0.733   3.621   9.846 -0.3758 -0.8534 -0.9699
  155SAPE  H11R17271   0.651   3.585   9.911  0.6983 -1.7531 -0.0673
  155SAPE  C21217272   0.707   3.664   9.723  0.6715  0.5371  0.7084
  155SAPE  H12R17273   0.609   3.648   9.676  1.2017  0.8014 -0.5404
  155SAPE  C21317274   0.800   3.726   9.612  0.7066  0.3412 -0.4094
  155SAPE  H13R17275   0.905   3.751   9.638  1.1466 -0.7138 -1.1226
  155SAPE  H13S17276   0.747   3.819   9.579  1.6207  1.0662  0.1159
  155SAPE  C21417277   0.811   3.614   9.511  0.0796  0.0742 -0.2370
  155SAPE  H14R17278   0.870   3.526   9.544  0.8014 -1.0339 -4.0232
  155SAPE  C21517279   0.762   3.616   9.387 -0.6006 -0.0813  0.2003
  155SAPE  H15R17280   0.774   3.527   9.325  0.9861  0.6572 -0.6182
  155SAPE  C21617281   0.682   3.722   9.319 -0.1962 -0.6357 -0.4512
  155SAPE  H16R17282   0.706   3.822   9.362  1.8596 -1.5153  0.5692
  155SAPE  H16S17283   0.573   3.704   9.327 -0.5957  1.5886 -0.1369
  155SAPE  C21717284   0.707   3.733   9.169 -0.4143 -0.5952  0.2222
  155SAPE  H17R17285   0.687   3.633   9.124 -1.0566 -1.0506  1.4750
  155SAPE  H17S17286   0.808   3.780   9.162 -0.8504  0.6929  1.9919
  155SAPE  C21817287   0.612   3.827   9.086  0.3947 -0.9712  0.4399
  155SAPE  H18R17288   0.621   3.927   9.133 -3.5226 -0.1209 -0.2393
  155SAPE  H18S17289   0.505   3.800   9.096 -0.2557  0.6518 -1.4816
  155SAPE  C21917290   0.630   3.839   8.939 -0.5934 -0.3388  0.3536
  155SAPE  H19R17291   0.530   3.877   8.908 -0.6852  2.1203  3.2141
  155SAPE  H19S17292   0.636   3.734   8.901  0.3879 -0.8755  1.9010
  155SAPE  C22017293   0.750   3.931   8.903  0.0137 -0.3096  0.4871
  155SAPE  H20R17294   0.761   3.936   8.793  1.5129 -1.0478  0.5780
  155SAPE  H20S17295   0.842   3.889   8.949 -0.0417  0.3360  1.2189
  155SAPE  H20T17296   0.723   4.029   8.948 -0.7559 -1.3047  2.3302
  155SAPE   C3317297   0.870   4.569   9.972  1.0827 -0.1748  0.2587
  155SAPE   H3X17298   0.892   4.677   9.989 -0.5975  0.3054 -0.4349
  155SAPE   H3Y17299   0.761   4.559   9.985  1.2543 -1.2100  0.9635
  155SAPE   C3417300   0.918   4.526   9.836  0.4879 -0.1901  0.2914
  155SAPE   H4X17301   0.909   4.417   9.818  0.7981 -0.4217  1.4603
  155SAPE   H4Y17302   1.023   4.561   9.821  0.7321 -0.0012  2.2575
  155SAPE   C3517303   0.827   4.591   9.733 -0.0986  0.9152 -0.2294
  155SAPE   H5X17304   0.831   4.701   9.753  1.2733  1.0985 -1.3659
  155SAPE   H5Y17305   0.720   4.562   9.729 -0.2711  1.6404 -3.3976
  155SAPE   C3617306   0.883   4.570   9.587  0.6898 -0.3223 -0.2708
  155SAPE   H6X17307   0.900   4.461   9.580  0.0414 -0.5116  0.9031
  155SAPE   H6Y17308   0.979   4.627   9.588 -0.2918  1.7338 -3.8558
  155SAPE   C3717309   0.792   4.642   9.492  0.2029  0.2680  0.9313
  155SAPE   H7X17310   0.801   4.753   9.498  1.7785  0.1506  1.2807
  155SAPE   H7Y17311   0.687   4.615   9.516  0.0753 -0.4068 -0.3276
  155SAPE   C3817312   0.821   4.603   9.344 -0.6201  0.1591 -0.8478
  155SAPE   H8X17313   0.830   4.493   9.336 -0.6207 -0.0311  1.2721
  155SAPE   H8Y17314   0.920   4.645   9.313  0.0142 -0.5048  0.2216
  155SAPE   C3917315   0.716   4.651   9.247  0.1869 -0.8920  0.0491
  155SAPE   H9X17316   0.707   4.762   9.248  1.0601 -0.7967  1.8506
  155SAPE   H9Y17317   0.617   4.610   9.277 -0.7699 -0.2029 -2.0177
  155SAPE  C31017318   0.745   4.605   9.099 -0.1645  0.0591 -0.4349
  155SAPE  H10X17319   0.657   4.586   9.034 -0.5477  3.4615 -1.0524
  155SAPE  H10Y17320   0.788   4.503   9.113 -0.0229  0.2109  0.2713
  155SAPE  C31117321   0.846   4.698   9.030  0.3669  0.4704 -0.6042
  155SAPE  H11X17322   0.937   4.701   9.095 -0.0606  2.5165 -0.0515
  155SAPE  H11Y17323   0.801   4.799   9.027 -0.7345  0.0104 -0.1988
  155SAPE  C31217324   0.883   4.644   8.889 -0.2408 -0.2885 -0.7386
  155SAPE  H12X17325   0.899   4.534   8.888  1.5950 -0.0497 -1.7169
  155SAPE  H12Y17326   0.974   4.691   8.847  0.0085 -1.9504 -2.1661
  155SAPE  C31317327   0.766   4.662   8.791 -0.7357  0.2286  0.1453
  155SAPE  H13X17328   0.677   4.604   8.826 -0.5598  0.4155  0.9162
  155SAPE  H13Y17329   0.800   4.606   8.701 -0.6571  0.8067 -0.1891
  155SAPE  C31417330   0.730   4.805   8.749  0.3710  0.0848  0.4317
  155SAPE  H14X17331   0.736   4.874   8.836 -0.2833 -0.4509  0.9069
  155SAPE  H14Y17332   0.625   4.797   8.716  0.4923 -0.8102  0.2297
  155SAPE  C31517333   0.820   4.852   8.631  0.1808 -0.1665 -0.4310
  155SAPE  H15X17334   0.801   4.776   8.552 -0.6774  1.1561 -1.5666
  155SAPE  H15Y17335   0.925   4.847   8.667 -0.1672  1.9282  1.0643
  155SAPE  C31617336   0.794   5.003   8.598  0.5352  0.3598 -0.4008
  155SAPE  H16X17337   0.862   5.057   8.668  1.2071 -0.3952 -0.4477
  155SAPE  H16Y17338   0.689   5.033   8.617  0.6674  2.7242 -2.7617
  155SAPE  C31717339   0.819   5.044   8.450  1.4493  0.3755 -0.4524
  155SAPE  H17X17340   0.921   5.004   8.431  0.3922 -1.4049 -2.9454
  155SAPE  H17Y17341   0.812   5.155   8.454 -1.8124  0.2269  1.3837
  155SAPE  C31817342   0.710   4.992   8.352 -0.5279 -0.0001  1.0503
  155SAPE  H18X17343   0.606   5.005   8.387 -0.2930  2.0187  1.1289
  155SAPE  H18Y17344   0.737   4.889   8.321 -0.3130  0.4813 -0.4220
  155SAPE  H18Z17345   0.727   5.064   8.269 -1.0608 -1.6657 -0.5645
  156SAPE     N17346   6.731   2.596  10.894 -0.0458  0.0420  0.5183
  156SAPE   HN117347   6.827   2.566  10.923 -0.1010  0.8057  1.5368
  156SAPE   HN217348   6.727   2.699  10.909  2.6792  0.0332  2.1495
  156SAPE   HN317349   6.665   2.565  10.968  1.5685 -2.1390  1.1435
  156SAPE   C1217350   6.704   2.527  10.763 -0.4031  0.0635  1.4181
  156SAPE  H12A17351   6.701   2.418  10.782  0.7209 -0.8797 -2.9093
  156SAPE  H12B17352   6.792   2.549  10.699 -0.3227 -2.2751  0.6477
  156SAPE   C1117353   6.572   2.573  10.702  0.7656  0.1949  0.3325
  156SAPE  H11A17354   6.557   2.521  10.606  0.6193 -0.4489  0.6977
  156SAPE  H11B17355   6.580   2.684  10.696  2.0743  0.0394 -1.4264
  156SAPE     P17356   6.357   2.633  10.822 -0.0930  0.1549  0.1528
  156SAPE   O1317357   6.258   2.566  10.909 -0.4272  0.8395 -0.0823
  156SAPE   O1417358   6.415   2.756  10.875 -0.4021  0.1711 -0.4992
  156SAPE   O1217359   6.467   2.525  10.787  0.8187 -0.0741  0.4206
  156SAPE   O1117360   6.307   2.672  10.675  0.0252  0.6904 -0.1057
  156SAPE    C117361   6.180   2.738  10.666  0.2174 -0.1174  0.8246
  156SAPE    HA17362   6.095   2.684  10.714  1.1670 -1.9802  0.5008
  156SAPE    HB17363   6.177   2.842  10.704  2.1772 -0.5010  2.1631
  156SAPE    C217364   6.139   2.752  10.512  0.3226 -0.4089  0.5698
  156SAPE    HS17365   6.077   2.844  10.505 -0.4053 -0.4395  4.3932
  156SAPE   O2117366   6.081   2.632  10.460 -0.6118 -0.7409 -0.7109
  156SAPE   C2117367   5.952   2.628  10.498  0.5349  0.4537 -0.0553
  156SAPE   O2217368   5.891   2.719  10.552 -0.1359  0.1875  0.0588
  156SAPE   C2217369   5.898   2.480  10.471  0.3694  0.2660  0.3573
  156SAPE   H2R17370   5.990   2.418  10.466  0.6775  0.7117  0.4276
  156SAPE   H2S17371   5.849   2.465  10.570 -0.6579  0.2679 -0.1373
  156SAPE    C317372   6.256   2.791  10.414  0.3900  0.1569 -0.3601
  156SAPE    HX17373   6.331   2.710  10.405  2.7669  2.3571 -1.4523
  156SAPE    HY17374   6.302   2.875  10.470 -3.5631  2.5413 -0.3084
  156SAPE   O3117375   6.210   2.835  10.280 -0.5231  0.1578 -0.4775
  156SAPE   C3117376   6.307   2.883  10.204  0.3790 -0.2819  0.4270
  156SAPE   O3217377   6.422   2.886  10.233 -0.1372 -0.4563  0.3350
  156SAPE   C3217378   6.249   2.923  10.067  0.1169 -0.1094 -0.1002
  156SAPE   H2X17379   6.181   3.010  10.077 -1.1027 -0.9201 -1.0519
  156SAPE   H2Y17380   6.194   2.834  10.031  0.8968 -0.1630 -1.2194
  156SAPE   C2317381   5.799   2.460  10.356  0.0407  0.7315 -0.6088
  156SAPE   H3R17382   5.722   2.540  10.361 -0.4611  0.2091  0.2019
  156SAPE   H3S17383   5.750   2.360  10.362 -1.1127  1.2978 -0.4739
  156SAPE   C2417384   5.871   2.449  10.218 -0.8242  0.7562 -0.6005
  156SAPE   H4R17385   5.799   2.409  10.143 -3.2407 -1.8331  2.7749
  156SAPE   H4S17386   5.953   2.377  10.236  0.0209  1.9107  0.2833
  156SAPE   C2517387   5.924   2.583  10.180 -0.4861  0.8342 -0.5232
  156SAPE   H5R17388   6.029   2.590  10.213 -0.7789  3.3688  0.0809
  156SAPE   C2617389   5.859   2.674  10.103  0.2163 -0.0110  0.6377
  156SAPE   H6R17390   5.899   2.773  10.076  1.2590 -0.2010  1.4242
  156SAPE   C2717391   5.715   2.656  10.051 -0.3867  0.4549 -0.1414
  156SAPE   H7R17392   5.649   2.630  10.137  0.0085  0.6392  0.2228
  156SAPE   H7S17393   5.713   2.559   9.998  1.7138 -1.0222  2.2530
  156SAPE   C2817394   5.655   2.777   9.980 -0.2148 -0.1804  0.0699
  156SAPE   H8R17395   5.573   2.815  10.044  0.4678 -0.2000  0.9854
  156SAPE   C2917396   5.681   2.808   9.846 -0.3069 -0.0098 -0.0885
  156SAPE   H9R17397   5.642   2.902   9.805 -2.5917  0.1523  2.2182
  156SAPE  C21017398   5.777   2.733   9.757  0.6554  0.7612 -0.8199
  156SAPE  H10R17399   5.718   2.707   9.666 -1.8936  0.2011  0.8903
  156SAPE  H10S17400   5.794   2.637   9.810 -4.6203  1.6633  3.2949
  156SAPE  C21117401   5.894   2.815   9.726 -0.4588 -0.7237 -0.1713
  156SAPE  H11R17402   5.949   2.860   9.811 -0.9430  4.2633 -2.2084
  156SAPE  C21217403   5.954   2.844   9.607  0.5905  0.6089 -0.3253
  156SAPE  H12R17404   6.045   2.905   9.607  1.8453 -1.1674  0.6952
  156SAPE  C21317405   5.910   2.780   9.474 -0.0795  0.1464  0.6926
  156SAPE  H13R17406   5.885   2.672   9.487  0.9666 -0.6378 -2.6887
  156SAPE  H13S17407   5.989   2.792   9.396 -0.3274 -0.4914  0.3411
  156SAPE  C21417408   5.783   2.850   9.421  0.0095 -0.6181  0.3894
  156SAPE  H14R17409   5.722   2.895   9.500  1.2501  0.4267  0.7813
  156SAPE  C21517410   5.743   2.860   9.298  0.2367 -0.6046  0.2578
  156SAPE  H15R17411   5.658   2.923   9.269  1.0207  0.2396 -0.2468
  156SAPE  C21617412   5.824   2.811   9.181  0.0669 -0.8074  0.4681
  156SAPE  H16R17413   5.752   2.772   9.105  0.9077  1.3966 -1.5944
  156SAPE  H16S17414   5.884   2.723   9.210  0.2912 -1.6346 -2.2245
  156SAPE  C21717415   5.915   2.909   9.102  0.4098  0.0921 -0.1816
  156SAPE  H17R17416   5.979   2.971   9.168 -0.4890 -0.3533  1.1393
  156SAPE  H17S17417   5.844   2.983   9.058  0.5641  0.8636  0.8254
  156SAPE  C21817418   5.991   2.828   8.991 -0.2140 -0.7441 -0.5110
  156SAPE  H18R17419   5.923   2.757   8.939 -1.0021 -2.3316  2.4388
  156SAPE  H18S17420   6.078   2.787   9.046  0.2891  0.7629 -0.1324
  156SAPE  C21917421   6.052   2.912   8.878  0.1108 -0.0992  0.4833
  156SAPE  H19R17422   5.969   2.982   8.855 -1.9164 -2.8307 -1.0362
  156SAPE  H19S17423   6.084   2.866   8.782 -0.0369 -0.6305  0.6855
  156SAPE  C22017424   6.167   3.006   8.921  0.0612 -1.1841  0.3343
  156SAPE  H20R17425   6.183   3.075   8.835 -3.0399 -0.7470  0.0261
  156SAPE  H20S17426   6.260   2.952   8.950  3.3900  3.2378 -0.9595
  156SAPE  H20T17427   6.132   3.063   9.010  0.5336 -2.2992  1.2555
  156SAPE   C3317428   6.368   2.963   9.981 -0.0039  0.5308  0.8574
  156SAPE   H3X17429   6.434   2.874   9.977  3.2884  2.8375 -0.1387
  156SAPE   H3Y17430   6.430   3.043  10.026  0.6056  1.5020 -1.5718
  156SAPE   C3417431   6.317   3.017   9.845 -0.3430 -0.3049 -0.7571
  156SAPE   H4X17432   6.264   3.112   9.863  0.7838  0.2500 -0.2563
  156SAPE   H4Y17433   6.250   2.936   9.808 -1.9553  0.8484 -0.4333
  156SAPE   C3517434   6.429   3.048   9.741  0.2632 -0.1375  0.0435
  156SAPE   H5X17435   6.491   2.957   9.725  1.4667  0.8571 -1.0449
  156SAPE   H5Y17436   6.488   3.136   9.773  1.9582 -1.5307  0.9547
  156SAPE   C3617437   6.351   3.073   9.606  0.3553  0.7743  0.0455
  156SAPE   H6X17438   6.275   3.151   9.629  0.0327 -0.2494  2.9388
  156SAPE   H6Y17439   6.298   2.976   9.595  0.7845  0.4829  0.4673
  156SAPE   C3717440   6.434   3.101   9.484 -0.1675 -0.2159 -0.4791
  156SAPE   H7X17441   6.537   3.066   9.509 -0.1423  1.5731  2.4097
  156SAPE   H7Y17442   6.427   3.212   9.477  0.9969 -0.0250  0.8111
  156SAPE   C3817443   6.388   3.041   9.347  0.0649 -0.2549 -0.1023
  156SAPE   H8X17444   6.402   2.931   9.351 -0.2256 -0.3755 -1.8890
  156SAPE   H8Y17445   6.465   3.082   9.278  1.7227  0.2325  1.9167
  156SAPE   C3917446   6.251   3.085   9.294 -0.0021  0.9792 -0.3820
  156SAPE   H9X17447   6.170   3.069   9.368  2.2924 -0.8457  1.8797
  156SAPE   H9Y17448   6.231   3.019   9.207 -1.0029  0.1151  0.4809
  156SAPE  C31017449   6.233   3.224   9.235  0.2795 -0.4087  0.4963
  156SAPE  H10X17450   6.242   3.295   9.320  3.7031  2.5683 -2.0235
  156SAPE  H10Y17451   6.138   3.240   9.181  0.5461 -0.4888 -0.0044
  156SAPE  C31117452   6.348   3.257   9.137 -0.2129 -0.0270  0.4993
  156SAPE  H11X17453   6.364   3.167   9.074  2.0357  1.6678 -1.5369
  156SAPE  H11Y17454   6.446   3.277   9.187  0.0658 -3.6300  1.6876
  156SAPE  C31217455   6.307   3.377   9.049  0.0823  0.2656 -0.4291
  156SAPE  H12X17456   6.323   3.462   9.118 -0.4438 -0.7160  0.9579
  156SAPE  H12Y17457   6.199   3.363   9.030  0.1113 -3.7205  1.1728
  156SAPE  C31317458   6.383   3.391   8.920 -0.3170 -0.0552 -0.0179
  156SAPE  H13X17459   6.357   3.302   8.859  1.7701 -0.7813  0.0677
  156SAPE  H13Y17460   6.492   3.380   8.940  0.2174  0.2769 -2.4190
  156SAPE  C31417461   6.354   3.506   8.836  0.9789 -0.3721 -0.0038
  156SAPE  H14X17462   6.404   3.596   8.878  2.5542 -0.7052 -1.0633
  156SAPE  H14Y17463   6.245   3.523   8.831  1.2734  2.4247  1.2459
  156SAPE  C31517464   6.396   3.487   8.692 -0.2739  0.2423 -0.0904
  156SAPE  H15X17465   6.328   3.410   8.652 -2.0973  0.6030  2.0824
  156SAPE  H15Y17466   6.503   3.459   8.683 -0.5183 -0.6361 -0.2893
  156SAPE  C31617467   6.389   3.620   8.617 -0.0914  0.3276 -0.3240
  156SAPE  H16X17468   6.464   3.691   8.658 -1.2952  0.1749  2.3237
  156SAPE  H16Y17469   6.285   3.658   8.630 -0.6408 -0.9086 -0.9200
  156SAPE  C31717470   6.403   3.587   8.465 -1.1398 -0.5090 -0.5641
  156SAPE  H17X17471   6.480   3.509   8.450 -1.9406 -1.3837 -0.2827
  156SAPE  H17Y17472   6.439   3.674   8.407 -0.4294 -0.9109 -0.7352
  156SAPE  C31817473   6.269   3.530   8.399 -0.2554  0.3128  0.2094
  156SAPE  H18X17474   6.175   3.588   8.401  0.1897  1.0681 -0.5514
  156SAPE  H18Y17475   6.247   3.430   8.441  0.9234 -0.3765 -0.7278
  156SAPE  H18Z17476   6.289   3.516   8.291 -0.7064  0.4372  0.1109
  157SAPE     N17477   4.173   3.628  11.069  0.0355 -0.8408  0.1552
  157SAPE   HN117478   4.106   3.548  11.071 -0.3441 -0.6830 -2.3305
  157SAPE   HN217479   4.264   3.581  11.086 -0.4600 -1.7328  0.4046
  157SAPE   HN317480   4.149   3.696  11.144  1.8593 -0.2247  0.2283
  157SAPE   C1217481   4.173   3.678  10.925  0.1670 -0.3647 -0.2453
  157SAPE  H12A17482   4.212   3.589  10.871 -1.3087  0.2514 -2.4316
  157SAPE  H12B17483   4.253   3.754  10.911  0.0245 -0.0571  0.5352
  157SAPE   C1117484   4.036   3.710  10.876  0.1514  0.1317  0.4438
  157SAPE  H11A17485   3.976   3.619  10.897  0.8303 -0.2954  0.5498
  157SAPE  H11B17486   4.031   3.729  10.766 -3.0769  1.6688  0.7304
  157SAPE     P17487   4.009   3.965  10.913 -0.1881 -0.6000  0.4015
  157SAPE   O1317488   3.933   4.060  10.997 -0.9484  0.4664  0.0608
  157SAPE   O1417489   4.152   3.986  10.922  0.3402 -0.2684  0.0026
  157SAPE   O1217490   3.970   3.816  10.948  0.4906 -0.0619  0.4224
  157SAPE   O1117491   3.955   3.979  10.765 -0.1618  0.0836  0.7286
  157SAPE    C117492   3.823   4.023  10.735 -0.0811 -0.2079 -0.4094
  157SAPE    HA17493   3.742   3.966  10.783  1.3238  0.0958  2.5249
  157SAPE    HB17494   3.808   4.129  10.762  0.3991 -0.0205 -0.8479
  157SAPE    C217495   3.797   4.027  10.583 -0.4086  0.0789  0.2775
  157SAPE    HS17496   3.690   4.048  10.565 -1.0448 -0.8050  2.6620
  157SAPE   O2117497   3.831   3.897  10.535  0.1200  0.0013 -0.0648
  157SAPE   C2117498   3.726   3.814  10.544  0.4591  0.5401 -0.2929
  157SAPE   O2217499   3.623   3.836  10.609  0.0417 -0.2203 -0.0988
  157SAPE   C2217500   3.762   3.691  10.458  0.1557 -0.5393 -0.0096
  157SAPE   H2R17501   3.822   3.625  10.524  0.7372  2.6298  2.9890
  157SAPE   H2S17502   3.665   3.643  10.433  0.0716 -0.1481 -0.4494
  157SAPE    C317503   3.885   4.134  10.518  0.1551 -0.2955 -0.6170
  157SAPE    HX17504   3.992   4.137  10.550  0.4685 -0.2516 -1.6175
  157SAPE    HY17505   3.848   4.228  10.566 -0.7533 -1.2471  0.6069
  157SAPE   O3117506   3.879   4.155  10.374  0.1765 -0.0246  0.0643
  157SAPE   C3117507   3.973   4.077  10.300 -0.1442  0.1293 -0.7453
  157SAPE   O3217508   4.074   4.029  10.352  0.7311  0.3771  0.0348
  157SAPE   C3217509   3.938   4.070  10.154 -0.3602  0.4537  0.1044
  157SAPE   H2X17510   3.845   4.128  10.135  0.1378  0.9632 -0.8361
  157SAPE   H2Y17511   3.901   3.967  10.138 -1.2119  0.7447  0.1679
  157SAPE   C2317512   3.843   3.712  10.323 -0.2724  0.3102  0.0746
  157SAPE   H3R17513   3.947   3.747  10.343  1.4956 -1.5269 -4.3618
  157SAPE   H3S17514   3.797   3.783  10.251 -1.0078 -1.0563 -0.8513
  157SAPE   C2417515   3.861   3.579  10.251 -0.6494 -0.2839 -0.2136
  157SAPE   H4R17516   3.871   3.498  10.326  2.4200  0.5112  0.3985
  157SAPE   H4S17517   3.958   3.583  10.197 -1.9280  0.3749 -2.5895
  157SAPE   C2517518   3.734   3.555  10.175 -0.4755 -0.2501  0.3924
  157SAPE   H5R17519   3.647   3.516  10.231 -0.7807 -1.5488 -0.9194
  157SAPE   C2617520   3.724   3.561  10.043  0.5666  0.5178  0.8053
  157SAPE   H6R17521   3.626   3.539   9.998  1.2028  0.2379 -0.4833
  157SAPE   C2717522   3.830   3.598   9.939 -0.0514 -0.5279 -0.5082
  157SAPE   H7R17523   3.922   3.639   9.986  0.2798 -2.4706  0.6404
  157SAPE   H7S17524   3.789   3.668   9.863  0.5499 -2.4409 -2.7233
  157SAPE   C2817525   3.868   3.467   9.872 -0.5825 -0.3546  0.4022
  157SAPE   H8R17526   3.917   3.388   9.932 -0.2841 -1.3399 -1.0765
  157SAPE   C2917527   3.832   3.439   9.743 -0.7092 -0.7727  0.5553
  157SAPE   H9R17528   3.861   3.337   9.711 -2.6432 -1.4522  0.8410
  157SAPE  C21017529   3.749   3.529   9.648  0.0054 -0.1354  0.0374
  157SAPE  H10R17530   3.814   3.607   9.603 -2.8983  3.7777  1.9832
  157SAPE  H10S17531   3.665   3.583   9.696  0.1030  1.3783 -1.4189
  157SAPE  C21117532   3.682   3.454   9.535  0.3186 -0.8092 -0.0709
  157SAPE  H11R17533   3.651   3.356   9.573  0.8136 -0.0982  2.3362
  157SAPE  C21217534   3.675   3.479   9.405  0.0504 -0.4729 -0.2707
  157SAPE  H12R17535   3.617   3.412   9.341  1.2002  0.7734 -2.7804
  157SAPE  C21317536   3.723   3.606   9.338  0.7683  0.9899  0.2042
  157SAPE  H13R17537   3.830   3.599   9.308  0.8800  2.9006  0.0845
  157SAPE  H13S17538   3.707   3.688   9.411  0.0620  2.1615 -1.2181
  157SAPE  C21417539   3.649   3.636   9.212 -0.5217 -0.3290 -0.0426
  157SAPE  H14R17540   3.542   3.659   9.226 -0.5844  2.0669 -3.2649
  157SAPE  C21517541   3.696   3.675   9.091 -0.0427 -0.5710  0.6684
  157SAPE  H15R17542   3.626   3.704   9.011  1.4231  1.4325  0.0158
  157SAPE  C21617543   3.842   3.674   9.040 -0.2123 -0.2282  0.1200
  157SAPE  H16R17544   3.897   3.602   9.103 -0.0437 -1.8519 -1.7932
  157SAPE  H16S17545   3.881   3.778   9.052  0.3858 -0.5961  1.5915
  157SAPE  C21717546   3.882   3.633   8.896  0.0914 -1.0626  0.4237
  157SAPE  H17R17547   3.847   3.530   8.872  0.3224 -0.5295 -2.6219
  157SAPE  H17S17548   3.993   3.634   8.881  0.2467 -1.9077  1.3808
  157SAPE  C21817549   3.830   3.732   8.790  0.2377 -0.5977 -0.4488
  157SAPE  H18R17550   3.868   3.829   8.827 -0.5992 -0.1680 -0.7108
  157SAPE  H18S17551   3.720   3.737   8.785  0.3327  0.5975 -3.0661
  157SAPE  C21917552   3.886   3.700   8.649  0.5159  0.3211  0.2059
  157SAPE  H19R17553   3.992   3.672   8.660  0.4831  0.2018  0.2150
  157SAPE  H19S17554   3.878   3.791   8.586 -1.1690 -1.2286 -1.9588
  157SAPE  C22017555   3.811   3.580   8.582 -0.4469  0.0278  0.1672
  157SAPE  H20R17556   3.854   3.554   8.483  0.3711  1.5565  0.1020
  157SAPE  H20S17557   3.701   3.600   8.578 -0.4472  0.2712  1.1501
  157SAPE  H20T17558   3.829   3.494   8.651 -1.6039 -1.7186 -1.5679
  157SAPE   C3317559   4.053   4.120  10.059  0.7586 -0.1650  0.8971
  157SAPE   H3X17560   4.142   4.055  10.067  2.3512  1.7235 -0.5941
  157SAPE   H3Y17561   4.082   4.222  10.091 -0.1182  0.8935 -1.4083
  157SAPE   C3417562   4.011   4.109   9.910  0.2996  0.0133 -0.4206
  157SAPE   H4X17563   4.076   4.174   9.847 -0.4313  0.4739 -0.7198
  157SAPE   H4Y17564   3.908   4.139   9.883 -0.1469 -0.8214  0.3166
  157SAPE   C3517565   4.024   3.957   9.870  0.2421  0.0832 -0.1099
  157SAPE   H5X17566   3.950   3.897   9.926 -0.4406  0.5047 -0.5517
  157SAPE   H5Y17567   4.123   3.914   9.897  0.0700 -1.2832 -1.5028
  157SAPE   C3617568   4.025   3.934   9.717  0.0005  0.3162  0.4810
  157SAPE   H6X17569   4.063   3.832   9.698  1.0398  0.5929  0.9870
  157SAPE   H6Y17570   4.089   4.010   9.667 -0.2520  1.2008  1.4698
  157SAPE   C3717571   3.884   3.940   9.655  0.1259 -0.3507 -0.3401
  157SAPE   H7X17572   3.840   4.042   9.660  0.3743 -0.1934 -1.1462
  157SAPE   H7Y17573   3.815   3.878   9.715 -0.9509  0.2686 -0.8982
  157SAPE   C3817574   3.884   3.898   9.507  0.0708  0.0827 -0.3436
  157SAPE   H8X17575   3.783   3.922   9.468 -0.0553 -3.1560 -2.3830
  157SAPE   H8Y17576   3.901   3.789   9.514  2.4217  0.3969 -0.0955
  157SAPE   C3917577   3.991   3.972   9.428 -0.6921 -1.6997 -0.1349
  157SAPE   H9X17578   4.094   3.949   9.460  0.3961  0.1106 -2.0965
  157SAPE   H9Y17579   3.997   4.078   9.459  2.1882 -2.0324  0.7164
  157SAPE  C31017580   3.973   3.968   9.282  0.2867  0.4115 -0.1326
  157SAPE  H10X17581   3.867   3.982   9.253  0.0315  1.6131  1.2644
  157SAPE  H10Y17582   4.007   3.868   9.247 -0.0033 -0.8517  2.9172
  157SAPE  C31117583   4.057   4.069   9.202 -0.2869  1.2027 -0.0052
  157SAPE  H11X17584   4.163   4.035   9.199 -0.0191  1.9528  0.5267
  157SAPE  H11Y17585   4.059   4.163   9.261 -0.5816 -0.3125  2.5851
  157SAPE  C31217586   4.006   4.093   9.057 -0.4892  0.4339 -1.1422
  157SAPE  H12X17587   3.900   4.120   9.077 -0.5470  0.7615 -1.8432
  157SAPE  H12Y17588   4.006   3.999   8.997  0.1781 -0.1104 -0.3074
  157SAPE  C31317589   4.066   4.219   8.978 -0.2129  0.5785 -0.6502
  157SAPE  H13X17590   4.176   4.206   8.975 -0.3674 -1.1483 -0.0531
  157SAPE  H13Y17591   4.034   4.309   9.034  1.7210  1.5941 -1.0951
  157SAPE  C31417592   4.017   4.223   8.838 -0.1803 -0.5004 -0.2577
  157SAPE  H14X17593   4.062   4.142   8.778 -0.1624 -0.9676  0.3681
  157SAPE  H14Y17594   4.047   4.322   8.797 -0.6164 -0.7059 -1.0942
  157SAPE  C31517595   3.862   4.214   8.836  0.3353 -0.8832  0.4427
  157SAPE  H15X17596   3.818   4.276   8.917 -2.1067 -2.1490  0.1827
  157SAPE  H15Y17597   3.826   4.112   8.862  1.5901 -0.4472  4.8463
  157SAPE  C31617598   3.808   4.257   8.700  0.6694  0.5223 -0.2000
  157SAPE  H16X17599   3.857   4.348   8.659 -0.3281  0.9834 -0.4007
  157SAPE  H16Y17600   3.699   4.276   8.691  0.6711  1.1202  0.8770
  157SAPE  C31717601   3.845   4.153   8.587  0.0892  0.3353 -1.0021
  157SAPE  H17X17602   3.813   4.056   8.632 -1.2672  1.8371  1.4945
  157SAPE  H17Y17603   3.955   4.149   8.569  0.2927  0.6946  0.0966
  157SAPE  C31817604   3.784   4.179   8.448  0.1014  0.0277 -0.2056
  157SAPE  H18X17605   3.819   4.276   8.407  0.8312  0.4450  1.3329
  157SAPE  H18Y17606   3.674   4.178   8.459  0.0710 -1.0365 -0.4368
  157SAPE  H18Z17607   3.800   4.095   8.376 -1.6622  0.2004 -0.8507
  158SAPE     N17608   4.528   3.454  10.677  0.6777  0.3634  0.2488
  158SAPE   HN117609   4.454   3.524  10.657  0.3582  0.1224  0.5681
  158SAPE   HN217610   4.564   3.415  10.588 -0.0214  2.1457 -0.8716
  158SAPE   HN317611   4.486   3.379  10.735  2.4324 -0.7584  0.1496
  158SAPE   C1217612   4.635   3.525  10.749  0.2949 -0.0939  0.6617
  158SAPE  H12A17613   4.714   3.449  10.767 -0.2073 -0.5129  1.1453
  158SAPE  H12B17614   4.600   3.559  10.849  3.2768  2.1564  1.0798
  158SAPE   C1117615   4.686   3.644  10.673 -0.4612 -0.1448 -0.0469
  158SAPE  H11A17616   4.738   3.608  10.581 -0.1274 -1.5339  0.6624
  158SAPE  H11B17617   4.754   3.706  10.735  0.3801 -1.2267  0.1374
  158SAPE     P17618   4.604   3.879  10.611  0.0105 -0.5750 -0.1532
  158SAPE   O1317619   4.535   3.957  10.722  0.3989  0.3705  0.6865
  158SAPE   O1417620   4.748   3.898  10.591  0.1803 -0.2050  0.2818
  158SAPE   O1217621   4.572   3.727  10.635  0.5560  0.0491 -0.2850
  158SAPE   O1117622   4.533   3.911  10.478  0.4016  0.0345  0.1813
  158SAPE    C117623   4.550   3.829  10.359  0.3411  0.7346 -0.3871
  158SAPE    HA17624   4.653   3.791  10.344  0.6765  1.5918 -0.2679
  158SAPE    HB17625   4.494   3.733  10.365  0.6602  0.3432 -2.7130
  158SAPE    C217626   4.501   3.900  10.233  0.1247  0.2283 -0.1688
  158SAPE    HS17627   4.558   3.865  10.144  0.5907  0.1886  0.1390
  158SAPE   O2117628   4.513   4.040  10.248 -0.4842 -0.9153  0.0743
  158SAPE   C2117629   4.641   4.085  10.262  0.6178  0.3020 -0.4348
  158SAPE   O2217630   4.742   4.015  10.259 -0.1883  0.4341  0.2273
  158SAPE   C2217631   4.645   4.241  10.287 -0.3252  1.0293 -0.8031
  158SAPE   H2R17632   4.552   4.267  10.342  0.4874  0.2388  1.0329
  158SAPE   H2S17633   4.728   4.252  10.360  0.3151  0.9049 -1.5013
  158SAPE    C317634   4.344   3.878  10.220  0.3814  0.7233 -0.1658
  158SAPE    HX17635   4.302   3.950  10.147 -1.0653  0.7737  0.6754
  158SAPE    HY17636   4.303   3.903  10.320  1.7546 -0.2568  0.6736
  158SAPE   O3117637   4.308   3.741  10.189  0.0661  0.3065  0.1025
  158SAPE   C3117638   4.308   3.723  10.050 -0.1473 -0.1759 -0.2885
  158SAPE   O3217639   4.336   3.818   9.976  0.8833 -0.2833 -0.0149
  158SAPE   C3217640   4.280   3.577  10.011  0.0405  0.7879 -0.0721
  158SAPE   H2X17641   4.211   3.526  10.081  1.6577 -2.6634 -0.7745
  158SAPE   H2Y17642   4.371   3.515  10.023 -0.4149  0.2539  0.6929
  158SAPE   C2317643   4.659   4.319  10.163  0.1764 -0.3212  0.4011
  158SAPE   H3R17644   4.741   4.282  10.098 -0.3825 -1.2058  0.1928
  158SAPE   H3S17645   4.688   4.424  10.185  1.0809 -0.6795  0.9496
  158SAPE   C2417646   4.521   4.333  10.092  0.0452  0.4701  0.2171
  158SAPE   H4R17647   4.450   4.405  10.138 -0.9283 -0.7737  0.6964
  158SAPE   H4S17648   4.469   4.235  10.094 -1.4189  1.2017  2.6758
  158SAPE   C2517649   4.557   4.373   9.957  0.7878  0.2965  0.2273
  158SAPE   H5R17650   4.641   4.444   9.944  0.8107 -0.0499 -1.9120
  158SAPE   C2617651   4.477   4.336   9.854 -0.1435  0.2770 -0.4762
  158SAPE   H6R17652   4.496   4.371   9.752  4.4491 -0.1968  0.0298
  158SAPE   C2717653   4.354   4.245   9.857  0.1424  0.0273  0.3024
  158SAPE   H7R17654   4.265   4.311   9.842  1.9006  1.8689 -3.0626
  158SAPE   H7S17655   4.332   4.204   9.958  1.6852 -0.7564  0.3429
  158SAPE   C2817656   4.355   4.124   9.774  0.1104 -0.9118  0.1462
  158SAPE   H8R17657   4.331   4.029   9.823 -1.2773  0.1126  1.5690
  158SAPE   C2917658   4.359   4.126   9.636  0.7430 -0.4783 -0.4758
  158SAPE   H9R17659   4.347   4.030   9.584  1.7856 -0.1918 -1.2892
  158SAPE  C21017660   4.360   4.252   9.562  0.7000 -0.0214  0.2333
  158SAPE  H10R17661   4.461   4.297   9.553  0.5492 -0.0324 -2.3046
  158SAPE  H10S17662   4.306   4.327   9.623  2.2425  0.1332  1.4830
  158SAPE  C21117663   4.299   4.232   9.426 -0.7865 -0.7702  0.1088
  158SAPE  H11R17664   4.193   4.251   9.404 -0.7007  1.1067  1.1140
  158SAPE  C21217665   4.368   4.200   9.319 -0.4198  0.0719 -0.6183
  158SAPE  H12R17666   4.323   4.175   9.222  2.4204 -2.4977 -1.4284
  158SAPE  C21317667   4.516   4.165   9.325 -0.6582  0.2640  0.1945
  158SAPE  H13R17668   4.530   4.078   9.257  0.4309  1.4762 -1.2064
  158SAPE  H13S17669   4.560   4.133   9.422  0.2012  0.7680 -0.0188
  158SAPE  C21417670   4.601   4.280   9.275  0.4125 -0.3259  0.0392
  158SAPE  H14R17671   4.549   4.352   9.211  3.2700 -1.3560 -3.8366
  158SAPE  C21517672   4.725   4.307   9.310  0.1621 -0.0578  0.3781
  158SAPE  H15R17673   4.762   4.406   9.280 -1.4107  0.2524 -0.6600
  158SAPE  C21617674   4.812   4.225   9.407  0.4762 -0.5417  0.5964
  158SAPE  H16R17675   4.920   4.219   9.382  0.6063 -2.7440  1.4430
  158SAPE  H16S17676   4.788   4.116   9.412  0.8759 -0.6291  0.6701
  158SAPE  C21717677   4.807   4.274   9.559  0.1288 -0.7698  0.5852
  158SAPE  H17R17678   4.700   4.278   9.590  0.2886 -1.9349  1.3619
  158SAPE  H17S17679   4.852   4.376   9.559  0.9688 -1.1066 -1.1551
  158SAPE  C21817680   4.871   4.174   9.654 -0.4565  0.0201  0.2164
  158SAPE  H18R17681   4.980   4.191   9.644 -0.5716  0.5686 -0.1413
  158SAPE  H18S17682   4.854   4.066   9.637  1.2712 -0.8218  3.0755
  158SAPE  C21917683   4.835   4.199   9.798  0.2488 -0.3402  0.8950
  158SAPE  H19R17684   4.731   4.165   9.816 -0.7232  1.7074 -0.4155
  158SAPE  H19S17685   4.852   4.302   9.838  1.0960 -0.6041  1.2339
  158SAPE  C22017686   4.907   4.103   9.890 -0.7065  0.3341  0.1906
  158SAPE  H20R17687   4.885   4.125   9.997  1.8870  1.2053  0.6223
  158SAPE  H20S17688   5.014   4.123   9.870 -1.4056  1.3554 -3.2439
  158SAPE  H20T17689   4.887   3.997   9.864  0.4859 -0.4786  2.3109
  158SAPE   C3317690   4.221   3.558   9.865 -0.2364 -1.0321 -0.1235
  158SAPE   H3X17691   4.164   3.651   9.846 -1.8613 -1.4084  2.3931
  158SAPE   H3Y17692   4.155   3.469   9.872 -0.3153 -0.9790 -0.1992
  158SAPE   C3417693   4.332   3.541   9.756  0.2489 -0.3949 -0.2185
  158SAPE   H4X17694   4.396   3.457   9.790  1.9057  0.3578 -1.3421
  158SAPE   H4Y17695   4.398   3.629   9.770 -0.8978  0.3191  0.8925
  158SAPE   C3517696   4.283   3.527   9.609  0.1943  0.9863  0.0349
  158SAPE   H5X17697   4.232   3.429   9.599 -0.1024  1.3150 -2.1511
  158SAPE   H5Y17698   4.373   3.508   9.547  0.0242  0.1359  0.0317
  158SAPE   C3617699   4.187   3.631   9.556  0.4629  0.3380 -0.5608
  158SAPE   H6X17700   4.220   3.735   9.576  2.1704 -0.6636  2.5650
  158SAPE   H6Y17701   4.093   3.630   9.615  0.7030 -0.3425 -0.1733
  158SAPE   C3717702   4.165   3.619   9.402 -0.8698 -0.2041  0.0188
  158SAPE   H7X17703   4.078   3.686   9.384  0.4625  1.5587 -0.1652
  158SAPE   H7Y17704   4.127   3.518   9.378  0.7854 -1.0575  0.8410
  158SAPE   C3817705   4.279   3.669   9.310  0.1628 -0.1068  0.7699
  158SAPE   H8X17706   4.359   3.592   9.304 -2.2386 -2.6861 -1.3351
  158SAPE   H8Y17707   4.318   3.760   9.360  2.3431  0.4596 -1.7453
  158SAPE   C3917708   4.242   3.697   9.165  0.4078 -0.0055  0.1307
  158SAPE   H9X17709   4.158   3.768   9.151  0.1198 -0.2959  0.3785
  158SAPE   H9Y17710   4.212   3.600   9.119 -0.3093  0.7100 -0.9450
  158SAPE  C31017711   4.368   3.744   9.085 -0.9961  0.5757 -0.3091
  158SAPE  H10X17712   4.451   3.671   9.101 -0.4261  1.4448  0.8812
  158SAPE  H10Y17713   4.406   3.842   9.123 -3.2316  1.2348  0.3466
  158SAPE  C31117714   4.341   3.761   8.934  0.3518  0.2382  0.0767
  158SAPE  H11X17715   4.250   3.824   8.918 -0.2794 -0.0672  2.1706
  158SAPE  H11Y17716   4.314   3.657   8.907  0.6432  0.2257 -0.1706
  158SAPE  C31217717   4.462   3.794   8.847 -0.0423 -0.7833  0.5553
  158SAPE  H12X17718   4.427   3.802   8.742 -0.2823  1.6280  0.7424
  158SAPE  H12Y17719   4.538   3.714   8.854 -1.1006 -2.0855 -1.9538
  158SAPE  C31317720   4.537   3.930   8.879  0.2574 -0.3204 -0.3289
  158SAPE  H13X17721   4.608   3.963   8.800 -0.0918  0.6737 -0.2356
  158SAPE  H13Y17722   4.587   3.910   8.976  0.9887 -1.2273 -0.8718
  158SAPE  C31417723   4.445   4.056   8.894 -0.0753  0.6277 -0.4079
  158SAPE  H14X17724   4.399   4.054   8.995 -0.7688  3.1741 -0.6133
  158SAPE  H14Y17725   4.366   4.058   8.815 -0.2809 -2.0319 -0.3633
  158SAPE  C31517726   4.526   4.186   8.877  0.5076 -0.5382 -0.2325
  158SAPE  H15X17727   4.582   4.190   8.780  1.0680  1.4395  0.1213
  158SAPE  H15Y17728   4.606   4.184   8.954 -0.1486  1.0924  0.5302
  158SAPE  C31617729   4.449   4.313   8.902  0.2604  0.7563  0.0827
  158SAPE  H16X17730   4.407   4.315   9.005 -0.6447 -0.5366 -0.2376
  158SAPE  H16Y17731   4.356   4.321   8.842  1.7192  0.3272 -2.3659
  158SAPE  C31717732   4.526   4.444   8.873  0.0254 -0.1618 -0.4331
  158SAPE  H17X17733   4.598   4.453   8.957  0.4861 -2.6357 -0.4591
  158SAPE  H17Y17734   4.465   4.535   8.888  0.6165  0.1863 -0.1014
  158SAPE  C31817735   4.585   4.465   8.735  0.3324  0.0769  0.6017
  158SAPE  H18X17736   4.655   4.381   8.715 -0.2409 -0.2643  0.0021
  158SAPE  H18Y17737   4.634   4.563   8.715  0.7820 -0.4955 -1.2425
  158SAPE  H18Z17738   4.513   4.450   8.653 -0.4426  1.2687  1.0343
  159SAPE     N17739   5.521   6.516   6.551 -0.1231 -0.2198 -0.7323
  159SAPE   HN117740   5.585   6.547   6.475  1.4237 -0.4354  0.4409
  159SAPE   HN217741   5.548   6.423   6.590 -3.5447 -0.2344  2.0440
  159SAPE   HN317742   5.430   6.507   6.501 -0.1117  0.8513 -0.9519
  159SAPE   C1217743   5.508   6.616   6.659 -0.4207 -0.7051  0.0443
  159SAPE  H12A17744   5.608   6.631   6.705 -0.2102  0.1237 -0.6599
  159SAPE  H12B17745   5.428   6.570   6.721  0.4444 -1.3820  0.7017
  159SAPE   C1117746   5.459   6.747   6.603 -0.4972 -0.4548 -0.2922
  159SAPE  H11A17747   5.538   6.785   6.536  0.6030 -2.3315 -0.1150
  159SAPE  H11B17748   5.455   6.816   6.690 -0.7690 -3.1045  1.9199
  159SAPE     P17749   5.252   6.857   6.503 -0.1306 -0.1937  0.2404
  159SAPE   O1317750   5.343   6.970   6.472 -0.8064 -0.1092  0.2674
  159SAPE   O1417751   5.162   6.820   6.391  0.1734 -0.5140  0.1588
  159SAPE   O1217752   5.332   6.726   6.546 -0.2285  0.3831  0.0402
  159SAPE   O1117753   5.159   6.902   6.626 -0.3804  0.1960 -0.0579
  159SAPE    C117754   5.195   6.875   6.757  0.9010  0.2737  0.6061
  159SAPE    HA17755   5.266   6.793   6.780 -2.3498 -2.5153  1.6224
  159SAPE    HB17756   5.231   6.974   6.794 -1.8045  2.9694 -3.1573
  159SAPE    C217757   5.067   6.853   6.846  0.4819 -0.5123  0.5667
  159SAPE    HS17758   5.017   6.952   6.844  1.0729 -0.2100  0.2219
  159SAPE   O2117759   5.102   6.819   6.978  0.8773  0.6054 -0.1272
  159SAPE   C2117760   5.021   6.854   7.072 -0.3996  0.1653 -0.5271
  159SAPE   O2217761   4.920   6.917   7.061  0.6577  0.0842 -0.1836
  159SAPE   C2217762   5.073   6.797   7.202 -0.2714 -0.1806  0.1029
  159SAPE   H2R17763   5.055   6.687   7.200 -0.3328 -0.2146  1.5190
  159SAPE   H2S17764   5.182   6.814   7.212 -0.7433  2.5172  1.7111
  159SAPE    C317765   4.960   6.759   6.772  0.1595 -0.3403 -0.6346
  159SAPE    HX17766   5.003   6.659   6.748  3.5203  0.8228 -0.0683
  159SAPE    HY17767   4.928   6.805   6.677 -0.0870  0.8190 -0.0077
  159SAPE   O3117768   4.839   6.742   6.855 -0.1498 -0.0946 -0.0332
  159SAPE   C3117769   4.826   6.635   6.936  0.4796 -0.2171  0.0815
  159SAPE   O3217770   4.911   6.552   6.961 -0.5246  0.1306  0.0340
  159SAPE   C3217771   4.693   6.639   7.001 -0.7217  0.2687  1.0226
  159SAPE   H2X17772   4.627   6.555   6.971  0.1882  0.2165 -0.9973
  159SAPE   H2Y17773   4.634   6.730   6.977 -1.2448  0.1366  1.7580
  159SAPE   C2317774   4.992   6.865   7.320 -0.3758 -0.3014 -0.1429
  159SAPE   H3R17775   4.885   6.839   7.308 -0.4876 -0.2082  0.5890
  159SAPE   H3S17776   5.013   6.973   7.305 -1.5520 -0.0337  0.0961
  159SAPE   C2417777   5.036   6.833   7.464  0.6452  0.2116  0.4637
  159SAPE   H4R17778   5.024   6.912   7.541 -0.8418 -1.0229  1.5589
  159SAPE   H4S17779   5.147   6.836   7.462  0.7121  0.8254  2.5031
  159SAPE   C2517780   5.003   6.697   7.523  0.1129 -0.0661 -0.6203
  159SAPE   H5R17781   4.988   6.621   7.445  1.3293  1.5736 -2.5435
  159SAPE   C2617782   4.984   6.672   7.658 -0.2877 -0.1311 -0.2310
  159SAPE   H6R17783   4.977   6.565   7.681 -1.1296  0.1452  0.8893
  159SAPE   C2717784   4.987   6.773   7.768 -0.4829 -0.2443 -0.1465
  159SAPE   H7R17785   4.979   6.880   7.736 -0.1558 -0.3530 -0.6103
  159SAPE   H7S17786   5.079   6.762   7.830 -1.3109  0.0657  1.1764
  159SAPE   C2817787   4.862   6.761   7.847 -0.3066 -0.6368  0.2596
  159SAPE   H8R17788   4.771   6.743   7.789 -0.8639  0.0038  0.9192
  159SAPE   C2917789   4.844   6.757   7.980  0.2145 -0.1721  0.3594
  159SAPE   H9R17790   4.739   6.747   8.012 -0.2394 -1.0301 -1.3167
  159SAPE  C21017791   4.941   6.767   8.095 -0.2032 -0.7135 -0.6898
  159SAPE  H10R17792   5.041   6.801   8.061 -0.2688  0.9669  0.6378
  159SAPE  H10S17793   4.955   6.668   8.143  1.0752  0.1854  0.8685
  159SAPE  C21117794   4.881   6.871   8.195  0.5520 -1.1767 -0.3964
  159SAPE  H11R17795   4.864   6.969   8.149  3.4041  0.0717  0.9354
  159SAPE  C21217796   4.842   6.856   8.321  0.2444  0.3699  0.1546
  159SAPE  H12R17797   4.801   6.943   8.374 -0.8477  0.5871 -0.9904
  159SAPE  C21317798   4.856   6.725   8.385  0.5141 -0.5497  0.0928
  159SAPE  H13R17799   4.952   6.677   8.358  1.3859  1.7017 -1.0223
  159SAPE  H13S17800   4.780   6.656   8.342 -0.1126 -0.6619  1.3332
  159SAPE  C21417801   4.849   6.703   8.532  0.0032  0.3434 -0.5215
  159SAPE  H14R17802   4.793   6.610   8.555 -0.0516  0.1006 -1.5689
  159SAPE  C21517803   4.885   6.786   8.636 -0.5793 -0.2202 -0.2850
  159SAPE  H15R17804   4.865   6.755   8.739 -0.8226 -2.1659 -0.8735
  159SAPE  C21617805   4.959   6.919   8.622 -0.0701 -0.0017 -0.4313
  159SAPE  H16R17806   4.954   6.973   8.719 -0.4249  2.0789 -1.5460
  159SAPE  H16S17807   4.916   6.984   8.543 -2.0309  0.1211  0.6653
  159SAPE  C21717808   5.111   6.903   8.583 -0.4309  0.0305 -0.1771
  159SAPE  H17R17809   5.114   6.831   8.498  1.5439 -0.5026  0.2958
  159SAPE  H17S17810   5.163   6.848   8.665  0.3581  0.0719 -0.6463
  159SAPE  C21817811   5.196   7.019   8.533  0.2367 -0.1060  0.7915
  159SAPE  H18R17812   5.181   7.113   8.590 -1.2798  0.4434 -0.4445
  159SAPE  H18S17813   5.151   7.054   8.437 -1.4796  2.4380  2.4002
  159SAPE  C21917814   5.348   6.980   8.522 -0.3943 -0.8885  0.2592
  159SAPE  H19R17815   5.404   6.992   8.618  0.7045 -1.0573 -0.3443
  159SAPE  H19S17816   5.390   7.064   8.464  1.5965  0.1039  2.9170
  159SAPE  C22017817   5.367   6.847   8.440 -0.4393  0.1787 -0.1486
  159SAPE  H20R17818   5.342   6.864   8.333 -3.7857  1.8635  0.7246
  159SAPE  H20S17819   5.300   6.769   8.482  0.2168 -0.0768  0.4482
  159SAPE  H20T17820   5.466   6.800   8.453 -0.0007  0.7862 -1.1615
  159SAPE   C3317821   4.730   6.634   7.143 -0.5274  0.2590 -0.1354
  159SAPE   H3X17822   4.811   6.703   7.175  1.5976 -1.4858 -1.4849
  159SAPE   H3Y17823   4.764   6.533   7.176 -1.6468 -0.8318 -2.1281
  159SAPE   C3417824   4.614   6.652   7.237  0.4323  0.1197 -0.2227
  159SAPE   H4X17825   4.539   6.572   7.218 -0.2961  0.9232 -0.8500
  159SAPE   H4Y17826   4.565   6.751   7.225 -0.5213 -0.3857 -0.6000
  159SAPE   C3517827   4.640   6.641   7.391 -0.3936  0.2207  0.1535
  159SAPE   H5X17828   4.699   6.725   7.434  0.5412 -1.0145  1.4207
  159SAPE   H5Y17829   4.700   6.548   7.395 -1.8927 -0.7855 -0.0582
  159SAPE   C3617830   4.518   6.633   7.478 -0.1093 -0.4771  0.0630
  159SAPE   H6X17831   4.465   6.541   7.447 -0.3435 -0.5752  0.7298
  159SAPE   H6Y17832   4.459   6.727   7.463  0.8450  0.1333  0.0326
  159SAPE   C3717833   4.548   6.599   7.631  1.5414 -0.8493  0.6218
  159SAPE   H7X17834   4.564   6.687   7.696  0.3411  0.2586 -0.5363
  159SAPE   H7Y17835   4.637   6.532   7.642  0.9261 -1.3579  3.5203
  159SAPE   C3817836   4.422   6.537   7.684  0.1558  0.0228 -0.2862
  159SAPE   H8X17837   4.413   6.435   7.639  0.9611  0.3363 -1.1947
  159SAPE   H8Y17838   4.328   6.594   7.668 -0.3841 -0.2753  1.6243
  159SAPE   C3917839   4.421   6.515   7.838  0.6844 -0.0040 -0.5204
  159SAPE   H9X17840   4.511   6.464   7.879 -0.5208 -0.7916  1.2582
  159SAPE   H9Y17841   4.333   6.451   7.857 -0.6071  1.5305 -1.0325
  159SAPE  C31017842   4.421   6.640   7.924 -0.2007  0.0080 -0.7518
  159SAPE  H10X17843   4.359   6.722   7.881 -0.6757  0.3897  0.5960
  159SAPE  H10Y17844   4.522   6.685   7.919  1.4371 -3.3644 -0.4644
  159SAPE  C31117845   4.390   6.600   8.064 -0.6492 -1.0734 -0.2529
  159SAPE  H11X17846   4.474   6.537   8.101  0.0422  0.6464  1.2415
  159SAPE  H11Y17847   4.295   6.541   8.069  1.2013 -4.2527  0.1836
  159SAPE  C31217848   4.383   6.733   8.150 -0.9478  0.9921  0.1674
  159SAPE  H12X17849   4.313   6.797   8.093  0.0535 -0.8488 -3.4328
  159SAPE  H12Y17850   4.479   6.789   8.145 -1.9278  2.7655  0.4068
  159SAPE  C31317851   4.346   6.717   8.297 -0.0765  0.1795 -0.1746
  159SAPE  H13X17852   4.389   6.617   8.319 -0.9653 -0.4322 -1.0697
  159SAPE  H13Y17853   4.239   6.704   8.325 -0.0326 -0.2202 -0.1914
  159SAPE  C31417854   4.406   6.826   8.383 -0.1686  0.3749  0.2654
  159SAPE  H14X17855   4.359   6.926   8.387 -0.6845  0.1307  0.4353
  159SAPE  H14Y17856   4.507   6.841   8.340  0.1043  0.5930  0.9808
  159SAPE  C31517857   4.421   6.774   8.526 -0.8140  0.1058 -1.0704
  159SAPE  H15X17858   4.471   6.853   8.587  0.4381 -0.6535 -1.0654
  159SAPE  H15Y17859   4.487   6.687   8.544 -0.3249  0.7243  0.3091
  159SAPE  C31617860   4.293   6.741   8.601  0.8049  0.0810 -0.4763
  159SAPE  H16X17861   4.297   6.712   8.708 -3.5993  2.3441  0.5513
  159SAPE  H16Y17862   4.235   6.658   8.555 -0.9719  2.1981 -2.3149
  159SAPE  C31717863   4.193   6.858   8.599 -0.2308  0.3121 -0.4692
  159SAPE  H17X17864   4.156   6.870   8.495  0.3167  1.4992 -0.5382
  159SAPE  H17Y17865   4.251   6.949   8.622 -1.9613  1.2219  0.5296
  159SAPE  C31817866   4.075   6.842   8.687  0.4741 -0.8517 -0.6492
  159SAPE  H18X17867   4.033   6.739   8.692  0.7999 -1.0166 -1.2602
  159SAPE  H18Y17868   3.992   6.912   8.663  1.3547 -0.1622 -1.7894
  159SAPE  H18Z17869   4.108   6.863   8.791 -0.1979  0.1545 -0.6228
  160SAPE     N17870   4.537   2.186   6.235 -0.2235  0.8054 -0.5728
  160SAPE   HN117871   4.481   2.102   6.261  0.0857  0.2922 -1.4919
  160SAPE   HN217872   4.485   2.252   6.173 -1.0027  0.0716 -0.7228
  160SAPE   HN317873   4.619   2.151   6.183  2.2694  1.2007  2.7539
  160SAPE   C1217874   4.571   2.248   6.372  0.0991  0.7181  0.2534
  160SAPE  H12A17875   4.472   2.269   6.417  0.3961 -0.3487  1.4704
  160SAPE  H12B17876   4.617   2.345   6.346  0.6954  0.5875  0.7999
  160SAPE   C1117877   4.643   2.152   6.468  0.1143  0.0903  1.0965
  160SAPE  H11A17878   4.661   2.198   6.567 -1.1724  1.9706  0.5123
  160SAPE  H11B17879   4.743   2.127   6.425 -0.2645  0.2017  0.1273
  160SAPE     P17880   4.624   1.908   6.548  0.1342  0.2466  0.0371
  160SAPE   O1317881   4.555   1.791   6.488 -0.5838  0.1570  0.0190
  160SAPE   O1417882   4.773   1.917   6.537 -0.4320  0.4206 -0.3363
  160SAPE   O1217883   4.558   2.034   6.491 -0.0340 -0.0989  0.8282
  160SAPE   O1117884   4.582   1.910   6.699  0.0402 -0.0984  0.0553
  160SAPE    C117885   4.638   1.826   6.800  0.0256 -0.1072 -0.3460
  160SAPE    HA17886   4.744   1.801   6.776  0.9899  2.2439  1.1089
  160SAPE    HB17887   4.630   1.869   6.902  3.0381 -2.6432  1.1295
  160SAPE    C217888   4.571   1.686   6.800 -0.3556  0.1381  0.9317
  160SAPE    HS17889   4.588   1.647   6.698 -0.0253  0.3075  0.9229
  160SAPE   O2117890   4.433   1.700   6.823  0.5236  0.2968  0.7062
  160SAPE   C2117891   4.356   1.597   6.770  0.0678 -0.1947  0.3298
  160SAPE   O2217892   4.403   1.500   6.710 -0.1158 -0.4058  0.1249
  160SAPE   C2217893   4.205   1.611   6.791  0.3673 -0.2998  0.5513
  160SAPE   H2R17894   4.186   1.716   6.762  0.2522 -0.7345 -1.0434
  160SAPE   H2S17895   4.154   1.539   6.724  0.3587 -0.4215  0.6866
  160SAPE    C317896   4.637   1.593   6.907 -0.4572  0.7870 -0.5387
  160SAPE    HX17897   4.744   1.581   6.879 -0.2206  1.6667 -0.0389
  160SAPE    HY17898   4.590   1.492   6.902  0.1677  0.4632  0.0081
  160SAPE   O3117899   4.635   1.635   7.044 -0.4329 -0.6268 -0.1014
  160SAPE   C3117900   4.531   1.600   7.113  0.0291 -0.1829 -0.7148
  160SAPE   O3217901   4.449   1.509   7.091  0.6916 -0.2536 -0.1462
  160SAPE   C3217902   4.516   1.703   7.224  0.2893  0.3224  0.5210
  160SAPE   H2X17903   4.408   1.726   7.212  0.1382 -0.8133 -0.5582
  160SAPE   H2Y17904   4.559   1.802   7.202 -0.3974  0.4125 -0.4732
  160SAPE   C2317905   4.152   1.606   6.937 -0.4206  0.3246  0.5555
  160SAPE   H3R17906   4.193   1.514   6.983 -0.8234 -0.2455 -0.2062
  160SAPE   H3S17907   4.042   1.591   6.940 -0.1812 -2.2029 -0.7122
  160SAPE   C2417908   4.185   1.727   7.026 -0.0054  0.1403  0.0930
  160SAPE   H4R17909   4.295   1.737   7.012 -0.0761  0.6237 -0.1659
  160SAPE   H4S17910   4.173   1.694   7.131  0.1884  0.3156  0.1725
  160SAPE   C2517911   4.108   1.855   6.996  0.5419  0.0918 -0.1274
  160SAPE   H5R17912   4.130   1.909   6.903  1.0695 -0.6974 -0.4678
  160SAPE   C2617913   3.999   1.897   7.062 -0.2502 -0.6960 -0.3013
  160SAPE   H6R17914   3.952   1.993   7.035 -0.2168 -0.8243 -0.8252
  160SAPE   C2717915   3.928   1.831   7.184  0.0411 -0.4897 -0.0375
  160SAPE   H7R17916   3.975   1.730   7.183  2.9902  0.7975 -0.7406
  160SAPE   H7S17917   3.821   1.819   7.155 -0.1667  1.0210  0.0358
  160SAPE   C2817918   3.924   1.900   7.318 -0.5732 -0.1864  0.1959
  160SAPE   H8R17919   3.864   1.992   7.316  1.6570  1.3664 -2.1498
  160SAPE   C2917920   3.983   1.866   7.438  0.2766 -0.1508  0.2513
  160SAPE   H9R17921   3.989   1.932   7.526  2.5933 -0.5447  0.4643
  160SAPE  C21017922   4.069   1.747   7.465 -0.1177  0.7820  1.0229
  160SAPE  H10R17923   4.107   1.702   7.371 -0.1446  2.4783  0.1607
  160SAPE  H10S17924   4.009   1.663   7.505  0.3504  0.4078  0.9445
  160SAPE  C21117925   4.186   1.796   7.547 -0.3185  0.0858  0.2117
  160SAPE  H11R17926   4.268   1.846   7.493  0.0046  0.4578  1.0263
  160SAPE  C21217927   4.193   1.779   7.680 -0.8869  0.1465  0.1780
  160SAPE  H12R17928   4.291   1.807   7.721 -0.3146 -2.0467  0.4477
  160SAPE  C21317929   4.095   1.719   7.774  0.1303  0.0942 -0.4813
  160SAPE  H13R17930   4.013   1.664   7.723  1.8674 -0.8548 -2.3779
  160SAPE  H13S17931   4.058   1.810   7.825  0.4726 -0.0632  0.0538
  160SAPE  C21417932   4.139   1.620   7.877  0.0192 -0.2120  0.9145
  160SAPE  H14R17933   4.219   1.556   7.837  1.0002  2.3154 -1.5865
  160SAPE  C21517934   4.091   1.599   7.999  1.5089 -0.8011 -0.4468
  160SAPE  H15R17935   4.122   1.517   8.065 -0.3193  0.4805  2.1792
  160SAPE  C21617936   3.978   1.681   8.055 -0.0373 -0.5633  0.2099
  160SAPE  H16R17937   3.885   1.639   8.011 -0.7957  1.3350 -0.0942
  160SAPE  H16S17938   3.983   1.791   8.041 -1.3625 -0.4595  0.4522
  160SAPE  C21717939   3.960   1.660   8.211  0.8340 -0.2914  0.0911
  160SAPE  H17R17940   3.982   1.553   8.234 -2.0220 -0.9561  0.1024
  160SAPE  H17S17941   3.854   1.664   8.243  0.6921 -0.5826 -0.3339
  160SAPE  C21817942   4.052   1.757   8.294  0.3485  0.1779  0.4889
  160SAPE  H18R17943   3.992   1.850   8.303 -0.7961 -0.5011  0.1660
  160SAPE  H18S17944   4.148   1.789   8.250  0.7117  0.2341  1.3107
  160SAPE  C21917945   4.078   1.712   8.437 -0.4151  0.4337 -0.3441
  160SAPE  H19R17946   4.135   1.781   8.503 -0.6973 -0.2993  0.7064
  160SAPE  H19S17947   4.135   1.617   8.435  0.2334  0.7054  1.8806
  160SAPE  C22017948   3.960   1.684   8.521  0.7330  0.2916 -0.1623
  160SAPE  H20R17949   3.985   1.666   8.627  2.5859  3.4337  0.0414
  160SAPE  H20S17950   3.887   1.607   8.487 -0.6371  0.7787  1.5502
  160SAPE  H20T17951   3.904   1.777   8.544  0.1929 -0.7916  3.5087
  160SAPE   C3317952   4.528   1.643   7.365 -0.4367 -0.5508  0.2593
  160SAPE   H3X17953   4.477   1.545   7.376 -0.6060 -0.7590 -2.0257
  160SAPE   H3Y17954   4.490   1.706   7.448 -0.3731 -0.8847  0.5458
  160SAPE   C3417955   4.680   1.643   7.401 -0.3878 -0.6304  0.2906
  160SAPE   H4X17956   4.720   1.747   7.390  0.9643 -1.0882  0.6637
  160SAPE   H4Y17957   4.734   1.571   7.336 -0.2759 -1.3606  1.1785
  160SAPE   C3517958   4.708   1.606   7.545  0.4164  0.0747 -0.7260
  160SAPE   H5X17959   4.628   1.538   7.579  0.2712  0.7501  0.3087
  160SAPE   H5Y17960   4.694   1.695   7.610 -1.5728 -1.3248  0.8704
  160SAPE   C3617961   4.845   1.547   7.558 -0.3452  0.0533  0.4946
  160SAPE   H6X17962   4.924   1.621   7.530 -0.6473  0.4294  0.6277
  160SAPE   H6Y17963   4.849   1.457   7.493 -1.7514 -0.2863  0.8336
  160SAPE   C3717964   4.893   1.512   7.695  0.7544  0.4207  0.0566
  160SAPE   H7X17965   5.003   1.494   7.697  0.7725  0.0428 -2.1065
  160SAPE   H7Y17966   4.843   1.421   7.735 -0.7526  1.5238  0.7667
  160SAPE   C3817967   4.865   1.612   7.803  0.2408 -1.2544 -0.4107
  160SAPE   H8X17968   4.757   1.628   7.824 -0.0559  0.1209 -2.6932
  160SAPE   H8Y17969   4.908   1.713   7.786  0.4697 -1.2077  0.3693
  160SAPE   C3917970   4.913   1.576   7.938  0.4555  0.1886 -0.7413
  160SAPE   H9X17971   5.021   1.547   7.938  0.1260 -1.1507  0.5571
  160SAPE   H9Y17972   4.863   1.481   7.967  1.1808 -0.3797 -1.3111
  160SAPE  C31017973   4.888   1.684   8.047  0.7537 -0.7889  0.0512
  160SAPE  H10X17974   4.781   1.715   8.051  0.7162 -0.9683  0.5299
  160SAPE  H10Y17975   4.942   1.771   8.005 -3.0004  1.6448 -0.2846
  160SAPE  C31117976   4.940   1.664   8.191 -0.3502 -0.0285  1.5541
  160SAPE  H11X17977   4.947   1.763   8.241  3.2423  0.4917  0.3117
  160SAPE  H11Y17978   5.046   1.632   8.196 -0.3355 -0.0562  1.0362
  160SAPE  C31217979   4.862   1.559   8.263 -0.5168 -0.2442  0.1359
  160SAPE  H12X17980   4.868   1.470   8.197 -0.3968 -0.4827  0.4680
  160SAPE  H12Y17981   4.757   1.589   8.282  0.1406 -0.0606  4.5537
  160SAPE  C31317982   4.926   1.514   8.393 -0.3314  0.7740 -0.7508
  160SAPE  H13X17983   4.917   1.594   8.469  1.7168  0.7211 -0.3885
  160SAPE  H13Y17984   5.034   1.504   8.368 -0.6656 -2.4908 -1.3127
  160SAPE  C31417985   4.877   1.384   8.446  0.1966  0.4025 -0.3599
  160SAPE  H14X17986   4.898   1.297   8.381 -1.6721 -2.9282  3.0934
  160SAPE  H14Y17987   4.766   1.391   8.442  0.1456  0.2840  0.6042
  160SAPE  C31517988   4.943   1.354   8.584 -0.2026  0.2046  0.4807
  160SAPE  H15X17989   4.912   1.426   8.664  1.8799  0.0034  1.5340
  160SAPE  H15Y17990   5.054   1.361   8.582 -0.0596 -0.9817  2.0629
  160SAPE  C31617991   4.915   1.210   8.634 -0.1082 -0.2050  0.1126
  160SAPE  H16X17992   4.970   1.182   8.727  0.1395 -0.5118 -0.1252
  160SAPE  H16Y17993   4.935   1.137   8.554 -0.1635 -1.0357  0.8405
  160SAPE  C31717994   4.770   1.194   8.677  0.6970  1.2545  0.0699
  160SAPE  H17X17995   4.749   1.085   8.680  0.1698  1.2848 -1.6322
  160SAPE  H17Y17996   4.700   1.234   8.601  0.1069  0.6427  0.2812
  160SAPE  C31817997   4.754   1.246   8.822  0.1980 -0.1831  0.8776
  160SAPE  H18X17998   4.646   1.242   8.848 -0.1234  3.0064  0.4914
  160SAPE  H18Y17999   4.791   1.351   8.829  0.9785 -0.3032 -0.8429
  160SAPE  H18Z18000   4.815   1.181   8.889 -0.2320  0.2800  1.7424
  161SAPE     N18001   2.847   5.300   6.325  0.0664 -0.2844  0.1028
  161SAPE   HN118002   2.824   5.199   6.317  0.4111 -0.2717 -1.3392
  161SAPE   HN218003   2.768   5.357   6.287  0.4520 -0.2030 -0.6016
  161SAPE   HN318004   2.938   5.307   6.274  0.9875 -2.7119  1.2882
  161SAPE   C1218005   2.866   5.327   6.467 -0.3077 -0.5051  0.3822
  161SAPE  H12A18006   2.792   5.261   6.518  1.0447 -2.5939 -0.2554
  161SAPE  H12B18007   2.831   5.431   6.485 -2.0816 -0.8756 -0.6521
  161SAPE   C1118008   3.008   5.283   6.503  0.6096 -0.0619  0.6448
  161SAPE  H11A18009   3.006   5.172   6.511 -2.1159 -0.2623 -1.4962
  161SAPE  H11B18010   3.031   5.332   6.600  2.1066  2.3673 -0.8393
  161SAPE     P18011   3.240   5.358   6.421 -0.2560 -0.2625  0.0743
  161SAPE   O1318012   3.329   5.233   6.418  0.5419  0.4402 -1.1261
  161SAPE   O1418013   3.277   5.460   6.320 -0.9667  0.3405  0.6694
  161SAPE   O1218014   3.089   5.323   6.394 -0.2556 -0.0233 -0.2099
  161SAPE   O1118015   3.251   5.415   6.567  0.1607  0.6897  0.3554
  161SAPE    C118016   3.200   5.537   6.617 -0.4238  0.1297 -0.8058
  161SAPE    HA18017   3.162   5.592   6.528  0.3279  1.3557 -0.3967
  161SAPE    HB18018   3.119   5.519   6.691  1.5803 -1.2555  1.1883
  161SAPE    C218019   3.313   5.623   6.692  0.3024  0.0419 -0.3978
  161SAPE    HS18020   3.408   5.603   6.638 -0.5253  1.6170 -2.5939
  161SAPE   O2118021   3.319   5.585   6.830 -0.0590 -0.0065  0.1825
  161SAPE   C2118022   3.432   5.546   6.880 -0.3333 -0.2560  0.8878
  161SAPE   O2218023   3.540   5.519   6.825  0.2075  0.7728 -0.4042
  161SAPE   C2218024   3.424   5.548   7.027  0.0976 -0.1864  0.0718
  161SAPE   H2R18025   3.359   5.629   7.066  1.6575  0.1454  2.1945
  161SAPE   H2S18026   3.381   5.448   7.052 -1.5988  0.2503 -0.9764
  161SAPE    C318027   3.284   5.774   6.677 -0.7947  0.5150 -0.1697
  161SAPE    HX18028   3.183   5.814   6.704 -0.3591  1.6526 -0.1585
  161SAPE    HY18029   3.291   5.789   6.567  0.9498  2.2436  0.1219
  161SAPE   O3118030   3.381   5.857   6.747 -0.1922 -0.2902 -0.7302
  161SAPE   C3118031   3.352   5.878   6.876  0.0891 -0.5453 -0.6534
  161SAPE   O3218032   3.261   5.829   6.941 -0.3414  0.8114 -0.0131
  161SAPE   C3218033   3.451   5.967   6.943 -0.3657 -0.3356  0.8324
  161SAPE   H2X18034   3.423   6.010   7.041  1.1503  2.2323  0.2103
  161SAPE   H2Y18035   3.466   6.053   6.874  2.3933 -1.4592 -0.0868
  161SAPE   C2318036   3.557   5.544   7.102 -0.3155  0.8299 -0.9328
  161SAPE   H3R18037   3.606   5.643   7.092  2.8944 -0.3907  1.0988
  161SAPE   H3S18038   3.632   5.485   7.045 -0.0132  0.1719  0.1054
  161SAPE   C2418039   3.545   5.494   7.242  0.5148  0.5046 -0.4388
  161SAPE   H4R18040   3.639   5.480   7.299  0.3393 -0.0152 -0.2673
  161SAPE   H4S18041   3.495   5.395   7.246 -0.4637  1.0258  1.5891
  161SAPE   C2518042   3.466   5.589   7.330 -0.0964  0.0467  0.4559
  161SAPE   H5R18043   3.472   5.696   7.308 -1.1369 -0.0534 -0.4069
  161SAPE   C2618044   3.415   5.549   7.452 -0.1769  0.4312  0.2334
  161SAPE   H6R18045   3.371   5.628   7.515 -1.8209  0.5931 -1.0532
  161SAPE   C2718046   3.417   5.414   7.515  0.2237  0.9690  0.2880
  161SAPE   H7R18047   3.448   5.343   7.435  0.0332 -0.2329  1.2446
  161SAPE   H7S18048   3.310   5.400   7.544  0.3834  0.2885  0.5581
  161SAPE   C2818049   3.490   5.389   7.640 -0.8338 -0.2570 -0.2523
  161SAPE   H8R18050   3.498   5.478   7.704 -0.4126 -1.2424  1.0873
  161SAPE   C2918051   3.563   5.276   7.663 -0.5200 -0.0236 -0.2927
  161SAPE   H9R18052   3.607   5.258   7.762  2.0127 -2.2413 -1.6910
  161SAPE  C21018053   3.566   5.151   7.580 -0.3275 -0.1427  0.8910
  161SAPE  H10R18054   3.463   5.134   7.543 -0.0268  2.6062 -1.6273
  161SAPE  H10S18055   3.591   5.061   7.641  1.1336  0.0205  0.5861
  161SAPE  C21118056   3.656   5.151   7.461  0.3778 -0.6586  0.5101
  161SAPE  H11R18057   3.722   5.239   7.449 -0.1470 -0.5985 -2.7422
  161SAPE  C21218058   3.656   5.065   7.353 -0.1726 -0.3625 -0.0660
  161SAPE  H12R18059   3.729   5.073   7.271  0.9641 -1.1687  0.8331
  161SAPE  C21318060   3.575   4.940   7.346 -0.0685  0.6071 -0.0204
  161SAPE  H13R18061   3.565   4.912   7.239 -0.1929  0.7871 -0.0545
  161SAPE  H13S18062   3.470   4.957   7.378 -0.1663  0.5972 -0.3281
  161SAPE  C21418063   3.607   4.816   7.428 -0.0728  0.2698  0.0645
  161SAPE  H14R18064   3.707   4.772   7.411 -0.9078 -1.1272 -1.5817
  161SAPE  C21518065   3.545   4.773   7.536 -0.0623  0.0745 -0.2185
  161SAPE  H15R18066   3.598   4.696   7.594  1.7120  1.3367 -0.0445
  161SAPE  C21618067   3.416   4.831   7.601  0.2784  0.5425  1.0867
  161SAPE  H16R18068   3.322   4.804   7.548  0.0758 -0.5605  1.9785
  161SAPE  H16S18069   3.414   4.940   7.622 -0.8554  0.9864 -1.0707
  161SAPE  C21718070   3.402   4.755   7.739 -0.3825  0.5214  0.0746
  161SAPE  H17R18071   3.496   4.755   7.798 -0.1950  1.0842 -0.2131
  161SAPE  H17S18072   3.365   4.652   7.719  1.4280 -0.5677  1.9029
  161SAPE  C21818073   3.307   4.818   7.839 -0.0949 -0.6143 -1.6332
  161SAPE  H18R18074   3.203   4.799   7.805 -0.9492 -0.2734  0.6363
  161SAPE  H18S18075   3.328   4.926   7.855 -0.3534 -1.0424  2.7221
  161SAPE  C21918076   3.312   4.755   7.980  0.6980 -0.2152 -0.4956
  161SAPE  H19R18077   3.414   4.747   8.022  0.4367  2.6092  0.9199
  161SAPE  H19S18078   3.274   4.652   7.965 -0.1019  0.1171 -0.8486
  161SAPE  C22018079   3.226   4.828   8.080  0.3503  0.4977 -0.1734
  161SAPE  H20R18080   3.275   4.922   8.112 -0.6239  0.4635  1.5728
  161SAPE  H20S18081   3.199   4.781   8.177 -3.1200  4.0107  0.8239
  161SAPE  H20T18082   3.127   4.855   8.037  0.8334 -0.7239 -2.1962
  161SAPE   C3318083   3.581   5.896   6.959  0.0865  0.5226 -0.3738
  161SAPE   H3X18084   3.618   5.842   6.870 -0.6904 -2.2374  0.8576
  161SAPE   H3Y18085   3.553   5.827   7.042 -0.8899  1.6715  0.2903
  161SAPE   C3418086   3.703   5.984   6.991  0.4220 -0.1377  0.3895
  161SAPE   H4X18087   3.733   6.034   6.897  0.2038 -0.7718 -0.0294
  161SAPE   H4Y18088   3.776   5.905   7.017 -0.0470 -0.8233 -0.3114
  161SAPE   C3518089   3.685   6.098   7.093 -0.6417 -0.1356  0.6367
  161SAPE   H5X18090   3.619   6.174   7.046  0.9170 -0.0732 -1.6293
  161SAPE   H5Y18091   3.786   6.139   7.112 -0.1601 -2.3106  3.3934
  161SAPE   C3618092   3.642   6.044   7.229  0.1241  0.5994 -0.4954
  161SAPE   H6X18093   3.532   6.034   7.220  0.1191  1.6122 -1.8249
  161SAPE   H6Y18094   3.653   6.128   7.301 -0.4433 -0.8758  1.3755
  161SAPE   C3718095   3.712   5.923   7.286  0.1013 -0.3509  0.2803
  161SAPE   H7X18096   3.819   5.946   7.265  0.6108 -2.0409  0.9080
  161SAPE   H7Y18097   3.695   5.821   7.247 -1.8324  0.1335 -0.2287
  161SAPE   C3818098   3.675   5.914   7.432 -0.2934  0.9903 -0.0631
  161SAPE   H8X18099   3.565   5.921   7.442 -0.4566  1.8294 -1.9543
  161SAPE   H8Y18100   3.725   6.000   7.481 -1.2292  1.1876  0.5693
  161SAPE   C3918101   3.727   5.786   7.510  0.2732 -0.7441  0.0148
  161SAPE   H9X18102   3.832   5.766   7.482  0.3514  0.8051 -0.9383
  161SAPE   H9Y18103   3.666   5.700   7.475 -0.9464  0.1222 -0.0426
  161SAPE  C31018104   3.725   5.791   7.659 -0.1647  0.4549 -0.0458
  161SAPE  H10X18105   3.812   5.853   7.688  0.1846 -0.0702  0.0380
  161SAPE  H10Y18106   3.754   5.688   7.692  4.2275  0.8716 -1.9141
  161SAPE  C31118107   3.601   5.835   7.725  0.5465  0.3132 -0.8370
  161SAPE  H11X18108   3.528   5.753   7.707  0.2595  0.5555 -0.7742
  161SAPE  H11Y18109   3.547   5.924   7.687  0.3900  1.2654  1.4431
  161SAPE  C31218110   3.622   5.844   7.878  0.0445 -0.1101 -0.5391
  161SAPE  H12X18111   3.659   5.946   7.899 -0.5298  0.2497 -1.2418
  161SAPE  H12Y18112   3.699   5.781   7.927  1.0101  1.5500  0.1588
  161SAPE  C31318113   3.486   5.839   7.951  0.0954 -0.4118  0.4923
  161SAPE  H13X18114   3.420   5.901   7.886  1.3534  2.6614  1.9570
  161SAPE  H13Y18115   3.488   5.886   8.051 -0.6765  0.3184  0.1726
  161SAPE  C31418116   3.427   5.698   7.963  0.5042 -0.0812  0.4586
  161SAPE  H14X18117   3.520   5.638   7.978  1.3182  0.9767 -0.1219
  161SAPE  H14Y18118   3.370   5.667   7.873 -0.6806 -0.1301  1.2160
  161SAPE  C31518119   3.340   5.681   8.082  0.7224 -0.0430  0.3514
  161SAPE  H15X18120   3.394   5.702   8.176  1.3046 -0.8261  0.2094
  161SAPE  H15Y18121   3.305   5.575   8.084 -0.2852  0.1938 -1.6207
  161SAPE  C31618122   3.209   5.773   8.066 -0.9526  0.7346 -0.1579
  161SAPE  H16X18123   3.154   5.750   7.972 -0.4246 -0.4429 -0.2031
  161SAPE  H16Y18124   3.248   5.876   8.054  3.1445 -0.6146  0.2913
  161SAPE  C31718125   3.112   5.754   8.184  0.1256  0.6906 -0.3565
  161SAPE  H17X18126   3.163   5.773   8.281 -1.1353  0.2095  0.4273
  161SAPE  H17Y18127   3.069   5.651   8.190  0.6649  0.5006  0.3377
  161SAPE  C31818128   2.998   5.860   8.188 -0.1472 -0.3368  0.6443
  161SAPE  H18X18129   2.939   5.855   8.282  1.3944 -0.4283  1.6284
  161SAPE  H18Y18130   2.927   5.827   8.109  1.0465 -1.1425 -0.1261
  161SAPE  H18Z18131   3.022   5.966   8.164 -0.2035 -0.3565  0.4945
  162SAPE     N18132   4.914   1.822   6.331 -0.3588  0.0955  0.3133
  162SAPE   HN118133   5.013   1.792   6.339 -0.3062  0.4992  1.3931
  162SAPE   HN218134   4.880   1.862   6.420  1.0174  1.1799  0.3761
  162SAPE   HN318135   4.875   1.726   6.317 -1.6538  0.7432 -0.7280
  162SAPE   C1218136   4.890   1.912   6.217  0.1734  0.1872 -0.3135
  162SAPE  H12A18137   4.786   1.951   6.222  0.3134  1.0312 -2.5646
  162SAPE  H12B18138   4.903   1.857   6.122  0.6018  1.5777 -1.0905
  162SAPE   C1118139   4.996   2.021   6.217  0.3701  0.4070 -0.9750
  162SAPE  H11A18140   5.095   1.970   6.218  0.0429 -0.2210  0.4680
  162SAPE  H11B18141   4.995   2.079   6.312 -0.9563 -0.6700 -0.3088
  162SAPE     P18142   4.889   2.226   6.094  0.0367  0.1176 -0.3295
  162SAPE   O1318143   4.936   2.326   5.995 -0.0817  0.0197 -0.2701
  162SAPE   O1418144   4.757   2.163   6.071  0.1927 -0.1329 -0.1232
  162SAPE   O1218145   4.991   2.104   6.097  0.0208  0.0409  0.2148
  162SAPE   O1118146   4.889   2.298   6.236 -0.1505  0.0503  0.1519
  162SAPE    C118147   5.001   2.370   6.285 -0.0566 -0.0158 -0.2983
  162SAPE    HA18148   5.090   2.308   6.307  0.3601  0.4387 -0.6966
  162SAPE    HB18149   5.032   2.453   6.218 -0.5887  0.9614  0.6264
  162SAPE    C218150   4.959   2.441   6.414 -0.1679  0.1095 -0.2997
  162SAPE    HS18151   5.049   2.490   6.455 -0.6610  0.9619 -0.2163
  162SAPE   O2118152   4.903   2.339   6.506  0.1816  0.6988  0.2604
  162SAPE   C2118153   4.990   2.308   6.604 -0.3891 -0.3394  0.2643
  162SAPE   O2218154   5.112   2.307   6.601 -0.0963  0.1157 -0.0797
  162SAPE   C2218155   4.912   2.275   6.733 -0.0274  0.0646 -0.1423
  162SAPE   H2R18156   4.874   2.374   6.765  2.2966  0.9777 -0.0215
  162SAPE   H2S18157   4.832   2.203   6.705 -0.2365  0.9653 -2.0212
  162SAPE    C318158   4.852   2.544   6.392  0.6945  0.1092  0.1650
  162SAPE    HX18159   4.765   2.477   6.382  0.9479  0.0519 -2.3374
  162SAPE    HY18160   4.865   2.601   6.297 -0.1173 -0.1187 -0.0889
  162SAPE   O3118161   4.836   2.626   6.502  0.2095 -0.2185  0.3979
  162SAPE   C3118162   4.924   2.718   6.529  0.1107  0.4444 -0.3242
  162SAPE   O3218163   5.025   2.736   6.462 -0.4770 -0.5601 -0.1824
  162SAPE   C3218164   4.860   2.801   6.637  0.4170 -0.8815 -0.1888
  162SAPE   H2X18165   4.750   2.781   6.644  0.1315  0.6286 -0.0728
  162SAPE   H2Y18166   4.865   2.900   6.587  1.6583 -1.6135 -1.6139
  162SAPE   C2318167   4.983   2.204   6.854  0.6743  0.1656 -0.1277
  162SAPE   H3R18168   5.072   2.256   6.894  1.4010  0.1028 -1.5744
  162SAPE   H3S18169   5.029   2.115   6.806 -1.9523 -0.5490 -1.5494
  162SAPE   C2418170   4.894   2.152   6.972 -0.7017  0.3979 -0.4832
  162SAPE   H4R18171   4.831   2.068   6.936 -1.1914 -0.0740  1.3674
  162SAPE   H4S18172   4.826   2.233   7.007 -0.1748  0.7933 -0.3752
  162SAPE   C2518173   4.996   2.095   7.074  0.8345  0.7676  0.2247
  162SAPE   H5R18174   5.044   2.157   7.151 -1.3761  1.6892  0.9381
  162SAPE   C2618175   5.036   1.965   7.063 -0.5830 -0.5405  0.7523
  162SAPE   H6R18176   5.107   1.923   7.136  0.3197 -1.6204 -0.6904
  162SAPE   C2718177   5.004   1.851   6.978  0.2155 -0.2795  0.2992
  162SAPE   H7R18178   5.094   1.788   6.962 -0.2722 -0.6915 -0.9118
  162SAPE   H7S18179   4.963   1.875   6.878  0.1892 -0.3992  0.2815
  162SAPE   C2818180   4.915   1.768   7.065 -0.3224  0.0693  0.7435
  162SAPE   H8R18181   4.812   1.806   7.072 -1.0096 -1.4687 -0.3127
  162SAPE   C2918182   4.943   1.661   7.132 -0.0570 -0.2363  0.1715
  162SAPE   H9R18183   4.867   1.625   7.204 -1.1177  1.0471 -0.2653
  162SAPE  C21018184   5.079   1.597   7.135 -0.3689  0.1302  0.2419
  162SAPE  H10R18185   5.102   1.589   7.243 -1.0798  1.7478  0.5421
  162SAPE  H10S18186   5.154   1.675   7.108 -2.5690  1.6887 -1.8229
  162SAPE  C21118187   5.080   1.466   7.054 -0.4169  0.1401 -0.0088
  162SAPE  H11R18188   5.062   1.479   6.947 -2.0475 -2.9096 -0.2144
  162SAPE  C21218189   5.107   1.342   7.108 -0.0554  0.1949  0.0106
  162SAPE  H12R18190   5.102   1.261   7.033 -2.2656  0.7254 -0.5115
  162SAPE  C21318191   5.141   1.302   7.249  1.0168  0.6216 -0.3334
  162SAPE  H13R18192   5.219   1.370   7.288  0.0259  1.2032  0.6971
  162SAPE  H13S18193   5.182   1.199   7.236 -1.4201 -0.4933  0.2146
  162SAPE  C21418194   5.023   1.285   7.342  0.9739 -0.6090  1.0495
  162SAPE  H14R18195   4.926   1.297   7.291  2.2809 -0.0684 -1.4903
  162SAPE  C21518196   5.040   1.267   7.472  0.0828 -0.0480 -0.2455
  162SAPE  H15R18197   4.954   1.246   7.537  0.2008  0.5706  0.1123
  162SAPE  C21618198   5.169   1.272   7.553 -0.2556 -0.6981  0.7483
  162SAPE  H16R18199   5.166   1.341   7.640  1.4533  0.1526  0.1640
  162SAPE  H16S18200   5.265   1.291   7.501 -1.0008  0.2911 -0.3178
  162SAPE  C21718201   5.188   1.134   7.614 -0.0782  0.3334 -0.3999
  162SAPE  H17R18202   5.284   1.133   7.670 -0.1611  1.2679 -0.2226
  162SAPE  H17S18203   5.195   1.045   7.548 -0.2321 -0.5797  0.7769
  162SAPE  C21818204   5.082   1.110   7.720  0.0526 -0.1486 -0.5218
  162SAPE  H18R18205   4.983   1.109   7.669  0.1765 -0.7715 -0.7489
  162SAPE  H18S18206   5.080   1.200   7.786  1.4403  0.5594 -1.4078
  162SAPE  C21918207   5.107   0.980   7.798  0.3270  0.2012 -0.0511
  162SAPE  H19R18208   5.120   0.891   7.732 -2.0510 -0.1911 -0.0871
  162SAPE  H19S18209   5.020   0.960   7.864 -1.3188 -2.0922 -2.6695
  162SAPE  C22018210   5.223   0.997   7.898  0.0463  0.0780  0.5372
  162SAPE  H20R18211   5.315   1.026   7.843  0.6406 -1.7527  0.4850
  162SAPE  H20S18212   5.247   0.903   7.952 -1.8858 -1.7216 -1.5094
  162SAPE  H20T18213   5.200   1.074   7.975 -1.2609 -0.0719  0.3261
  162SAPE   C3318214   4.928   2.794   6.784  0.2765  0.0669  0.2405
  162SAPE   H3X18215   4.922   2.897   6.825 -1.9570  0.6503 -1.3548
  162SAPE   H3Y18216   5.035   2.770   6.766  0.1343  0.0700 -0.6736
  162SAPE   C3418217   4.868   2.691   6.880  0.3521  0.5936 -0.5162
  162SAPE   H4X18218   4.843   2.597   6.826 -1.1650  1.0247 -0.6236
  162SAPE   H4Y18219   4.770   2.730   6.917  1.7088  1.6969  2.1630
  162SAPE   C3518220   4.955   2.639   6.996  0.1324  0.7545  0.1231
  162SAPE   H5X18221   5.003   2.725   7.048  1.2568  0.7137 -0.8135
  162SAPE   H5Y18222   5.033   2.577   6.946 -0.5499 -1.1560  1.3372
  162SAPE   C3618223   4.871   2.552   7.093 -0.7711  0.5445 -0.6191
  162SAPE   H6X18224   4.832   2.474   7.025 -0.5664 -0.4702  0.3873
  162SAPE   H6Y18225   4.790   2.612   7.139 -2.6277 -0.1686 -2.7721
  162SAPE   C3718226   4.971   2.483   7.194  0.6375  0.3884 -0.0344
  162SAPE   H7X18227   5.042   2.561   7.227  1.2712  0.0686 -0.6264
  162SAPE   H7Y18228   5.029   2.397   7.152  1.5865  0.4762  1.0664
  162SAPE   C3818229   4.906   2.420   7.322 -0.0062  0.1492  1.1232
  162SAPE   H8X18230   4.842   2.341   7.277  0.5506  1.2260 -1.7332
  162SAPE   H8Y18231   4.841   2.499   7.365 -0.9922 -0.9173  1.6549
  162SAPE   C3918232   4.996   2.375   7.437 -0.2016  0.0514  0.0772
  162SAPE   H9X18233   5.039   2.461   7.493  1.4207 -1.5247  1.3831
  162SAPE   H9Y18234   5.076   2.305   7.406  1.6906  1.2191  1.9956
  162SAPE  C31018235   4.913   2.305   7.539  0.4824  0.1014  0.2044
  162SAPE  H10X18236   4.840   2.227   7.510  0.1062  0.1158  1.0638
  162SAPE  H10Y18237   4.853   2.388   7.583  0.8366 -0.1694  1.2359
  162SAPE  C31118238   4.982   2.248   7.661 -0.5019  0.4500  0.3966
  162SAPE  H11X18239   5.081   2.296   7.668 -0.3754  0.3737 -0.7185
  162SAPE  H11Y18240   4.995   2.138   7.648  2.9781  0.7802  0.2745
  162SAPE  C31218241   4.904   2.266   7.794  0.2754  0.2452  1.4977
  162SAPE  H12X18242   4.813   2.207   7.773  1.9261 -1.7378 -0.7365
  162SAPE  H12Y18243   4.868   2.371   7.799 -0.3858 -0.0318  3.5009
  162SAPE  C31318244   4.985   2.233   7.922  0.8351  0.5380 -0.5292
  162SAPE  H13X18245   5.046   2.319   7.957 -0.9385  1.1592  1.1746
  162SAPE  H13Y18246   5.051   2.144   7.907 -0.2256 -0.2296 -0.7934
  162SAPE  C31418247   4.899   2.205   8.047 -0.9297 -0.1455 -0.2385
  162SAPE  H14X18248   4.834   2.119   8.022  0.3814 -1.0923 -0.4775
  162SAPE  H14Y18249   4.829   2.292   8.045 -1.1156 -0.2850  0.0398
  162SAPE  C31518250   4.972   2.213   8.176  0.1693  0.1050 -0.3577
  162SAPE  H15X18251   5.024   2.308   8.200  0.1227 -0.8205  4.3674
  162SAPE  H15Y18252   5.043   2.128   8.178 -2.6720 -2.4638  2.0017
  162SAPE  C31618253   4.876   2.179   8.291 -0.9121 -0.1770 -0.4118
  162SAPE  H16X18254   4.788   2.245   8.272  0.0075  0.9966 -0.6895
  162SAPE  H16Y18255   4.930   2.203   8.384 -0.0219  1.6022 -1.3266
  162SAPE  C31718256   4.833   2.039   8.288 -0.4120 -0.0151 -0.4076
  162SAPE  H17X18257   4.925   1.983   8.316  0.3248  1.6516  0.6696
  162SAPE  H17Y18258   4.801   1.994   8.192  2.4807 -2.2430 -0.4453
  162SAPE  C31818259   4.718   2.018   8.380  0.1383  0.6813 -0.3279
  162SAPE  H18X18260   4.743   2.073   8.473 -0.3148  1.2403 -0.5349
  162SAPE  H18Y18261   4.704   1.910   8.405  0.0644  0.2836 -1.9746
  162SAPE  H18Z18262   4.624   2.063   8.344 -1.2235 -1.4538  0.3433
  163SAPE     N18263   3.609   1.033   6.655  0.1381  0.0145 -0.0799
  163SAPE   HN118264   3.618   1.125   6.609  1.2480 -0.7462 -1.4645
  163SAPE   HN218265   3.590   1.036   6.758  2.6219 -1.2104  0.4758
  163SAPE   HN318266   3.694   0.976   6.640  0.0094 -0.2759  0.2686
  163SAPE   C1218267   3.489   0.963   6.596 -0.2271  0.8832 -0.5561
  163SAPE  H12A18268   3.525   0.865   6.559  1.1102  0.4613  1.7442
  163SAPE  H12B18269   3.454   1.008   6.500 -0.2589 -1.0443 -1.4955
  163SAPE   C1118270   3.377   0.934   6.697 -0.8055 -0.3856  0.2384
  163SAPE  H11A18271   3.425   0.863   6.768 -0.9785 -0.6263  0.1143
  163SAPE  H11B18272   3.296   0.877   6.648 -0.4041  0.6325 -1.7357
  163SAPE     P18273   3.221   1.144   6.722  0.0705  0.4461  0.2742
  163SAPE   O1318274   3.275   1.257   6.642  0.1647 -0.4432 -0.3962
  163SAPE   O1418275   3.122   1.061   6.656 -0.0878 -0.2989  0.3763
  163SAPE   O1218276   3.346   1.056   6.765  0.1764 -0.0093  0.2987
  163SAPE   O1118277   3.171   1.194   6.855  0.0245  0.3791  0.4119
  163SAPE    C118278   3.163   1.102   6.966  0.3758  0.8025 -0.1534
  163SAPE    HA18279   3.083   1.026   6.948  2.9329 -1.9433 -0.6701
  163SAPE    HB18280   3.259   1.049   6.982  1.2868  2.2711 -0.6056
  163SAPE    C218281   3.139   1.188   7.096 -1.0125 -0.0081  0.1064
  163SAPE    HS18282   3.224   1.258   7.113 -2.3528  1.4046  1.3564
  163SAPE   O2118283   3.135   1.103   7.214  0.1140  0.1153  0.1845
  163SAPE   C2118284   3.135   1.166   7.333  0.2055 -0.3178  0.2306
  163SAPE   O2218285   3.133   1.288   7.341 -0.2837  0.2359  0.1341
  163SAPE   C2218286   3.134   1.067   7.452  0.2488 -0.5427 -0.5256
  163SAPE   H2R18287   3.212   0.994   7.424 -0.8843 -2.1830  0.4331
  163SAPE   H2S18288   3.167   1.129   7.539 -0.2315 -0.8237 -0.1378
  163SAPE    C318289   3.003   1.273   7.079 -0.1455 -0.3119  0.0234
  163SAPE    HX18290   3.020   1.319   6.979 -1.2682  2.0455  0.8531
  163SAPE    HY18291   3.009   1.358   7.150 -0.2497 -1.9013  2.0216
  163SAPE   O3118292   2.883   1.190   7.078 -0.4961 -0.3015 -0.6599
  163SAPE   C3118293   2.810   1.181   7.196 -0.9596 -0.1252  0.2847
  163SAPE   O3218294   2.839   1.228   7.305 -1.0164 -0.1051  0.6948
  163SAPE   C3218295   2.675   1.118   7.157 -0.5634 -0.3891 -0.2166
  163SAPE   H2X18296   2.683   1.008   7.138  0.6577 -0.3300 -0.1517
  163SAPE   H2Y18297   2.662   1.150   7.051 -0.2878 -0.9021 -0.4133
  163SAPE   C2318298   3.005   0.987   7.493  0.7240 -0.0140 -0.6659
  163SAPE   H3R18299   2.991   0.902   7.423 -1.0689 -1.2821  1.1264
  163SAPE   H3S18300   2.911   1.046   7.485 -0.8898 -2.5226 -1.4105
  163SAPE   C2418301   3.002   0.928   7.633  0.6990  0.4404 -0.7057
  163SAPE   H4R18302   3.038   1.003   7.707  1.4574 -1.7557  1.2681
  163SAPE   H4S18303   3.075   0.845   7.638 -1.3682 -1.4107  0.4881
  163SAPE   C2518304   2.862   0.879   7.653 -0.7397  0.8447 -0.7556
  163SAPE   H5R18305   2.826   0.812   7.574 -0.9654 -0.5495  0.4936
  163SAPE   C2618306   2.796   0.890   7.764 -0.2176  0.2799  0.0824
  163SAPE   H6R18307   2.703   0.831   7.761  1.4418 -2.4642 -1.0908
  163SAPE   C2718308   2.836   0.962   7.888  0.9637 -0.1513  0.0592
  163SAPE   H7R18309   2.744   1.018   7.915  0.3679  0.0879 -2.2863
  163SAPE   H7S18310   2.911   1.041   7.865 -1.2075  2.1207  0.4124
  163SAPE   C2818311   2.872   0.884   8.007  0.3781  0.3958  0.3468
  163SAPE   H8R18312   2.844   0.778   8.016  0.9954  0.3636  2.5310
  163SAPE   C2918313   2.954   0.917   8.105  0.1818  0.4900  0.4290
  163SAPE   H9R18314   2.968   0.849   8.191 -2.9139  0.8130  1.2975
  163SAPE  C21018315   3.017   1.049   8.117  0.5619  0.3771 -0.0601
  163SAPE  H10R18316   2.955   1.107   8.189  0.2354 -0.7944  0.6329
  163SAPE  H10S18317   3.018   1.111   8.026 -1.3394  0.3247 -0.1560
  163SAPE  C21118318   3.150   1.045   8.182  0.0630 -0.6690 -0.3372
  163SAPE  H11R18319   3.138   1.083   8.284  0.2081  0.8019 -0.8443
  163SAPE  C21218320   3.262   1.015   8.126 -0.0914  0.2255  0.2979
  163SAPE  H12R18321   3.358   1.012   8.179  0.4138  0.5221 -0.5707
  163SAPE  C21318322   3.276   0.970   7.982 -0.2498 -0.4645  0.0649
  163SAPE  H13R18323   3.179   0.920   7.961 -1.2582  1.5028 -0.1756
  163SAPE  H13S18324   3.346   0.883   7.976  0.6598  0.3016 -0.7132
  163SAPE  C21418325   3.310   1.081   7.893 -0.5949 -0.4305 -0.0104
  163SAPE  H14R18326   3.299   1.184   7.929 -0.9981 -0.0691 -1.1214
  163SAPE  C21518327   3.372   1.069   7.769 -0.4600  0.1140  0.2413
  163SAPE  H15R18328   3.388   1.161   7.711  0.8210  0.5780  1.2743
  163SAPE  C21618329   3.407   0.944   7.698  0.9055 -0.8528  0.4802
  163SAPE  H16R18330   3.357   0.948   7.599  2.1640  1.4117 -0.1351
  163SAPE  H16S18331   3.360   0.857   7.748 -1.9301 -0.4991 -1.3294
  163SAPE  C21718332   3.552   0.909   7.657  0.3959 -0.0958 -0.0490
  163SAPE  H17R18333   3.541   0.800   7.634 -3.0214  0.1374 -0.0710
  163SAPE  H17S18334   3.621   0.922   7.743  1.1293  0.7010 -0.7322
  163SAPE  C21818335   3.619   0.990   7.543 -0.2371 -0.0284 -0.2891
  163SAPE  H18R18336   3.727   0.965   7.533  0.3202  1.9523  0.3278
  163SAPE  H18S18337   3.629   1.089   7.594 -0.3107 -1.3460  2.4251
  163SAPE  C21918338   3.556   0.989   7.408 -0.0786 -0.5710 -0.9304
  163SAPE  H19R18339   3.624   1.028   7.329  0.0948 -1.1086 -1.0512
  163SAPE  H19S18340   3.468   1.056   7.409  0.5508  0.2965  1.0994
  163SAPE  C22018341   3.510   0.852   7.371  0.0400  0.3380  0.3564
  163SAPE  H20R18342   3.577   0.773   7.411 -2.5043 -1.4574  1.2483
  163SAPE  H20S18343   3.508   0.825   7.263  1.0123 -0.6454  0.5673
  163SAPE  H20T18344   3.412   0.829   7.417 -1.0294  3.4011 -0.1380
  163SAPE   C3318345   2.555   1.158   7.241 -0.7419  0.2620  0.2671
  163SAPE   H3X18346   2.461   1.119   7.197 -0.0680  0.8621 -1.8420
  163SAPE   H3Y18347   2.556   1.266   7.267 -4.7319  0.7459 -0.9614
  163SAPE   C3418348   2.568   1.085   7.376  0.0433 -0.3086 -0.3777
  163SAPE   H4X18349   2.674   1.086   7.410 -0.0675  1.2809 -0.0211
  163SAPE   H4Y18350   2.548   0.978   7.353 -0.5106 -0.5763  1.2101
  163SAPE   C3518351   2.468   1.138   7.480  0.6030  0.1902 -0.3502
  163SAPE   H5X18352   2.364   1.105   7.457  0.1690  1.3991 -0.1728
  163SAPE   H5Y18353   2.461   1.248   7.489  1.1392  0.0707  2.5956
  163SAPE   C3618354   2.496   1.101   7.624  0.2058  0.4641 -0.0523
  163SAPE   H6X18355   2.601   1.123   7.653 -0.1248  0.5103  1.1669
  163SAPE   H6Y18356   2.487   0.990   7.632  0.4368  0.4538  0.0912
  163SAPE   C3718357   2.398   1.170   7.722 -0.2762  0.3598  0.5554
  163SAPE   H7X18358   2.293   1.137   7.714 -0.0455 -0.0051 -1.7809
  163SAPE   H7Y18359   2.412   1.279   7.704  1.4070  0.1157  0.1350
  163SAPE   C3818360   2.445   1.134   7.861  0.1050 -0.4817 -1.0521
  163SAPE   H8X18361   2.550   1.170   7.865 -0.8707  2.8094 -1.5352
  163SAPE   H8Y18362   2.433   1.025   7.879  2.1445 -1.0791 -2.9350
  163SAPE   C3918363   2.363   1.212   7.966  0.9743  0.7133  0.3164
  163SAPE   H9X18364   2.262   1.169   7.985  1.2866  0.0286  0.4441
  163SAPE   H9Y18365   2.358   1.321   7.944 -0.5581  0.6358  0.1678
  163SAPE  C31018366   2.424   1.207   8.110 -0.4677 -0.3628  0.0908
  163SAPE  H10X18367   2.517   1.268   8.108 -0.1353 -0.8647 -1.9464
  163SAPE  H10Y18368   2.464   1.107   8.137 -0.1482 -0.1949  0.2453
  163SAPE  C31118369   2.316   1.245   8.218  0.6887  0.5719 -0.4006
  163SAPE  H11X18370   2.229   1.176   8.218 -0.7280  2.1574 -3.3556
  163SAPE  H11Y18371   2.270   1.339   8.179  2.8475  1.7878 -0.2099
  163SAPE  C31218372   2.376   1.281   8.353 -0.9672  0.4337 -0.1505
  163SAPE  H12X18373   2.431   1.375   8.335 -0.0480 -0.0324  0.1502
  163SAPE  H12Y18374   2.445   1.202   8.390  0.6242  1.3059 -1.1460
  163SAPE  C31318375   2.278   1.311   8.460  0.0908 -0.1116 -1.2950
  163SAPE  H13X18376   2.207   1.392   8.432 -2.6109 -0.6788  2.9464
  163SAPE  H13Y18377   2.343   1.348   8.543  0.2161 -0.4534 -1.2382
  163SAPE  C31418378   2.196   1.197   8.530 -0.5503 -0.3978  0.2105
  163SAPE  H14X18379   2.258   1.105   8.542  1.0304  0.5962 -0.0640
  163SAPE  H14Y18380   2.115   1.172   8.459 -1.6954 -0.9037  1.6405
  163SAPE  C31518381   2.127   1.234   8.664 -1.2454  0.4099  0.2197
  163SAPE  H15X18382   2.204   1.241   8.744 -2.4314 -1.3935  1.5906
  163SAPE  H15Y18383   2.057   1.152   8.687 -0.1177 -0.4738  0.5926
  163SAPE  C31618384   2.054   1.364   8.634  0.0189  0.7638  0.0750
  163SAPE  H16X18385   2.004   1.352   8.536  1.9852 -1.3487 -0.7542
  163SAPE  H16Y18386   2.123   1.450   8.625 -0.1670  1.2293  2.4647
  163SAPE  C31718387   1.954   1.383   8.756 -1.0493 -1.2614  0.6765
  163SAPE  H17X18388   1.992   1.341   8.851  2.0788 -1.5710 -0.5622
  163SAPE  H17Y18389   1.864   1.330   8.719  0.1166 -2.7898 -0.1208
  163SAPE  C31818390   1.927   1.534   8.779  0.4128  0.0917  0.0207
  163SAPE  H18X18391   2.012   1.595   8.818  0.0987 -0.6517  1.9909
  163SAPE  H18Y18392   1.849   1.541   8.859  1.0000  1.5868  0.4923
  163SAPE  H18Z18393   1.885   1.587   8.692 -2.2584 -1.7439  0.0694
  164SAPE     N18394   4.744   4.829   6.490  0.2180 -0.3584 -0.1631
  164SAPE   HN118395   4.784   4.812   6.395  1.4181 -0.1742  0.2976
  164SAPE   HN218396   4.655   4.879   6.468  0.2000 -1.1089 -2.0369
  164SAPE   HN318397   4.812   4.884   6.545 -2.1159  1.2987  1.2125
  164SAPE   C1218398   4.721   4.698   6.549  0.4092 -0.1890 -0.3390
  164SAPE  H12A18399   4.631   4.700   6.613 -1.7345 -1.3185 -3.1158
  164SAPE  H12B18400   4.812   4.663   6.602  1.6349 -0.1047 -2.2896
  164SAPE   C1118401   4.694   4.591   6.443  0.2196 -0.5669 -0.4525
  164SAPE  H11A18402   4.589   4.606   6.410 -0.2560 -3.0729 -0.2170
  164SAPE  H11B18403   4.698   4.495   6.498  0.5005 -0.7831 -0.8365
  164SAPE     P18404   4.872   4.476   6.290  0.4714  0.2028  0.4694
  164SAPE   O1318405   4.793   4.347   6.300 -0.8789 -0.1129 -0.1194
  164SAPE   O1418406   4.922   4.508   6.153 -0.4243  0.6229 -0.1796
  164SAPE   O1218407   4.781   4.598   6.324 -0.1572  0.6012  0.5308
  164SAPE   O1118408   4.984   4.473   6.401 -0.2588 -0.1641  0.0265
  164SAPE    C118409   5.055   4.599   6.409 -0.1047  1.0361  0.7754
  164SAPE    HA18410   5.110   4.613   6.313  0.9370 -2.0505  0.8183
  164SAPE    HB18411   4.993   4.691   6.416 -0.1315  1.7390 -4.5559
  164SAPE    C218412   5.155   4.597   6.523  0.5755  1.3622  0.0685
  164SAPE    HS18413   5.197   4.495   6.509  1.9157  1.8398  0.5463
  164SAPE   O2118414   5.090   4.597   6.650 -0.4246  0.4053  0.1199
  164SAPE   C2118415   5.131   4.513   6.740 -0.1543 -0.0726 -0.3695
  164SAPE   O2218416   5.216   4.426   6.727 -0.0298 -0.5673 -1.0831
  164SAPE   C2218417   5.037   4.517   6.859  0.5310  0.3502 -0.7517
  164SAPE   H2R18418   5.060   4.614   6.908  0.4715  1.1625 -2.2714
  164SAPE   H2S18419   4.931   4.517   6.824 -0.0745  0.0585  1.0021
  164SAPE    C318420   5.267   4.703   6.521 -0.0869  0.3443  0.4423
  164SAPE    HX18421   5.231   4.807   6.540  0.4573  1.2848 -3.0619
  164SAPE    HY18422   5.314   4.712   6.421 -1.2371 -1.0201 -0.2521
  164SAPE   O3118423   5.364   4.676   6.620  0.1516  0.8104 -0.1178
  164SAPE   C3118424   5.465   4.596   6.586 -0.2579  0.0312  0.5962
  164SAPE   O3218425   5.462   4.527   6.482 -0.2505 -0.4466  0.3155
  164SAPE   C3218426   5.575   4.618   6.686  0.6999  0.0360 -0.3409
  164SAPE   H2X18427   5.628   4.715   6.671 -1.9788  1.5564 -0.5199
  164SAPE   H2Y18428   5.644   4.532   6.671 -0.4075 -0.9863  0.2641
  164SAPE   C2318429   5.056   4.392   6.953 -0.2224  0.2513 -1.2204
  164SAPE   H3R18430   5.161   4.388   6.989 -1.3009 -1.4556  2.1427
  164SAPE   H3S18431   5.034   4.302   6.892 -1.6440  0.9793 -1.8233
  164SAPE   C2418432   4.964   4.391   7.074  0.1036 -0.4568  0.2934
  164SAPE   H4R18433   4.959   4.290   7.120 -1.6228 -0.6794 -0.3021
  164SAPE   H4S18434   4.859   4.411   7.042 -0.8625 -3.7804  0.9148
  164SAPE   C2518435   4.998   4.493   7.182 -0.1264  0.1903  0.4333
  164SAPE   H5R18436   4.941   4.586   7.179  0.8698  0.8597  1.2575
  164SAPE   C2618437   5.079   4.465   7.289 -1.0968 -0.1559  0.1315
  164SAPE   H6R18438   5.087   4.539   7.371 -0.6219  0.3895 -0.4027
  164SAPE   C2718439   5.158   4.337   7.315  0.2969  0.3623 -0.2762
  164SAPE   H7R18440   5.257   4.356   7.363  0.4939 -2.2094  0.4711
  164SAPE   H7S18441   5.175   4.278   7.222 -1.7715  0.4001 -0.7205
  164SAPE   C2818442   5.095   4.220   7.398 -0.2043 -0.5942  0.1231
  164SAPE   H8R18443   5.063   4.132   7.339 -1.8417 -0.2698  0.4847
  164SAPE   C2918444   5.057   4.217   7.529 -1.1629  0.1742  0.4185
  164SAPE   H9R18445   5.024   4.121   7.573 -0.8182  0.2373  0.8226
  164SAPE  C21018446   5.073   4.329   7.631 -0.4955 -0.1502  0.1395
  164SAPE  H10R18447   5.014   4.418   7.601  0.8142  1.3240  1.7111
  164SAPE  H10S18448   5.178   4.362   7.642 -0.2967 -0.7163  0.0011
  164SAPE  C21118449   5.012   4.288   7.766  0.8447  0.0012  0.5732
  164SAPE  H11R18450   4.909   4.322   7.784  0.3394 -0.7361 -0.8029
  164SAPE  C21218451   5.073   4.214   7.858 -0.6778 -0.6932 -0.5769
  164SAPE  H12R18452   5.021   4.188   7.951  0.5392 -0.8511  0.0729
  164SAPE  C21318453   5.209   4.149   7.868  0.0156 -0.1580  0.0438
  164SAPE  H13R18454   5.264   4.181   7.959 -0.1728  2.2710 -0.6306
  164SAPE  H13S18455   5.270   4.180   7.780  0.2244  0.9484  0.5560
  164SAPE  C21418456   5.204   3.998   7.874  0.2245 -0.0654 -0.2311
  164SAPE  H14R18457   5.174   3.946   7.781 -1.7189  0.8613 -0.1797
  164SAPE  C21518458   5.237   3.914   7.977  0.0869 -0.0042  0.5020
  164SAPE  H15R18459   5.204   3.812   7.954  1.5919 -0.3771 -0.1566
  164SAPE  C21618460   5.286   3.941   8.113 -0.4559 -0.1193 -0.1035
  164SAPE  H16R18461   5.220   3.892   8.188  1.2578 -1.9733  0.2782
  164SAPE  H16S18462   5.280   4.049   8.139  0.0336 -0.2203  0.4591
  164SAPE  C21718463   5.427   3.898   8.141 -0.1048  0.0496  0.2233
  164SAPE  H17R18464   5.508   3.935   8.075 -0.1295  1.6211  1.0116
  164SAPE  H17S18465   5.431   3.788   8.133  3.8930  0.0880 -0.1307
  164SAPE  C21818466   5.482   3.929   8.285  0.7175  0.0047 -0.8136
  164SAPE  H18R18467   5.474   4.038   8.305  0.0466 -0.1653 -0.1388
  164SAPE  H18S18468   5.585   3.887   8.294  0.4779 -0.5752 -0.7483
  164SAPE  C21918469   5.393   3.854   8.386 -0.1479 -0.2825 -0.3306
  164SAPE  H19R18470   5.360   3.759   8.339  2.6574 -1.3422 -0.3094
  164SAPE  H19S18471   5.291   3.900   8.392 -0.6831 -1.5070  0.2496
  164SAPE  C22018472   5.431   3.835   8.531  0.3207  0.3943 -0.9764
  164SAPE  H20R18473   5.346   3.809   8.598  0.2951  0.4295 -0.9950
  164SAPE  H20S18474   5.481   3.930   8.561  0.3852 -0.2993  1.2864
  164SAPE  H20T18475   5.506   3.754   8.533  1.8025  1.7312  0.2513
  164SAPE   C3318476   5.533   4.607   6.839 -0.1626  0.2069  0.4602
  164SAPE   H3X18477   5.441   4.667   6.857  0.2573  0.7271  0.9345
  164SAPE   H3Y18478   5.613   4.665   6.891  0.9902 -0.0073 -0.9799
  164SAPE   C3418479   5.518   4.467   6.900 -0.4354 -0.0655 -0.2994
  164SAPE   H4X18480   5.612   4.411   6.886 -0.7612 -0.5195 -0.7177
  164SAPE   H4Y18481   5.445   4.405   6.842  1.9241 -0.7418 -2.7631
  164SAPE   C3518482   5.475   4.472   7.048  0.2874  0.4232 -0.2295
  164SAPE   H5X18483   5.441   4.369   7.073  1.9267 -0.0906 -0.0129
  164SAPE   H5Y18484   5.387   4.538   7.064  0.5099  0.7526 -0.3628
  164SAPE   C3618485   5.587   4.519   7.142  0.1424  0.2824  0.7071
  164SAPE   H6X18486   5.628   4.613   7.100 -0.4320  0.9436  1.6164
  164SAPE   H6Y18487   5.665   4.440   7.144 -1.4380 -1.3668  0.1008
  164SAPE   C3718488   5.521   4.550   7.276 -0.6881 -0.6261 -0.0630
  164SAPE   H7X18489   5.415   4.582   7.268  0.1180  1.9485 -2.0982
  164SAPE   H7Y18490   5.569   4.644   7.310 -2.3848 -0.0339  0.8026
  164SAPE   C3818491   5.550   4.450   7.385 -0.1649  0.2370 -0.4423
  164SAPE   H8X18492   5.660   4.432   7.387  0.1161  1.6761  2.7901
  164SAPE   H8Y18493   5.497   4.355   7.363  1.1434 -0.3080 -1.4072
  164SAPE   C3918494   5.505   4.514   7.515 -0.5086  0.9905  0.1677
  164SAPE   H9X18495   5.396   4.533   7.512 -0.2092  2.8377 -0.8063
  164SAPE   H9Y18496   5.556   4.611   7.532  2.4274 -0.6064  1.2015
  164SAPE  C31018497   5.524   4.426   7.645 -0.2043  0.0420 -0.2405
  164SAPE  H10X18498   5.631   4.399   7.657  0.2646  1.2500 -1.4436
  164SAPE  H10Y18499   5.464   4.333   7.640 -2.0041  1.1291  0.3210
  164SAPE  C31118500   5.487   4.493   7.779 -0.3312 -0.3505 -0.5058
  164SAPE  H11X18501   5.381   4.527   7.786  0.5560  2.4457  1.4777
  164SAPE  H11Y18502   5.535   4.594   7.777 -4.7447  1.9738 -0.9884
  164SAPE  C31218503   5.529   4.405   7.897 -0.2163  0.5533  0.0888
  164SAPE  H12X18504   5.632   4.372   7.873 -0.4766 -1.1137  1.0975
  164SAPE  H12Y18505   5.481   4.305   7.887  0.8926 -0.0378  0.4624
  164SAPE  C31318506   5.502   4.465   8.040 -0.4161 -0.2251  0.2198
  164SAPE  H13X18507   5.392   4.484   8.038 -0.4239 -0.2978 -0.3609
  164SAPE  H13Y18508   5.551   4.563   8.057 -2.0165  0.5769  0.3702
  164SAPE  C31418509   5.548   4.382   8.150 -0.0659 -0.4309 -0.0700
  164SAPE  H14X18510   5.513   4.277   8.142 -0.5129 -0.5639  2.7177
  164SAPE  H14Y18511   5.500   4.419   8.242 -0.0254  0.1537 -0.2798
  164SAPE  C31518512   5.695   4.393   8.168 -0.2355 -0.1459 -0.0641
  164SAPE  H15X18513   5.718   4.492   8.212  0.2037  0.0459 -0.7129
  164SAPE  H15Y18514   5.744   4.397   8.069  0.3703  2.2950  0.2848
  164SAPE  C31618515   5.758   4.298   8.266 -0.3265  0.6477  0.7065
  164SAPE  H16X18516   5.865   4.326   8.281 -0.3021  1.6354 -1.1093
  164SAPE  H16Y18517   5.753   4.197   8.221 -1.9539  0.9263  0.2215
  164SAPE  C31718518   5.698   4.280   8.405 -0.6763  0.4478 -0.9954
  164SAPE  H17X18519   5.591   4.256   8.384 -0.2353 -1.9096 -0.8125
  164SAPE  H17Y18520   5.706   4.378   8.456 -1.3831 -0.8707  1.8775
  164SAPE  C31818521   5.757   4.179   8.508 -0.1321  0.5977  0.6932
  164SAPE  H18X18522   5.750   4.071   8.483  3.1652 -0.0121  1.9417
  164SAPE  H18Y18523   5.712   4.191   8.609  0.0129 -0.1237  0.8495
  164SAPE  H18Z18524   5.863   4.211   8.509 -0.1593  1.4468 -3.4904
  165SAPE     N18525   5.654   0.664   6.129  0.4696 -0.1213 -0.5926
  165SAPE   HN118526   5.591   0.655   6.212 -2.0783  1.2036 -2.2399
  165SAPE   HN218527   5.719   0.744   6.145  0.6734 -0.4519  0.2963
  165SAPE   HN318528   5.597   0.684   6.045 -1.6965  1.8891  1.1933
  165SAPE   C1218529   5.730   0.530   6.123 -0.4624  0.7785  0.2844
  165SAPE  H12A18530   5.797   0.541   6.035 -0.5464  0.7421  0.2152
  165SAPE  H12B18531   5.659   0.445   6.111  1.9979 -1.4121  0.0810
  165SAPE   C1118532   5.813   0.491   6.249 -0.4927 -0.4791 -1.1941
  165SAPE  H11A18533   5.880   0.405   6.226  0.7961  0.0196  0.5001
  165SAPE  H11B18534   5.739   0.455   6.323  0.9998  1.4181  1.3707
  165SAPE     P18535   6.003   0.591   6.401  0.3483 -0.2768  0.2629
  165SAPE   O1318536   6.118   0.536   6.327  0.1253  0.2347 -0.3712
  165SAPE   O1418537   6.019   0.715   6.484 -0.0229 -0.2011 -0.0110
  165SAPE   O1218538   5.883   0.601   6.298 -0.3858  0.8320  0.3813
  165SAPE   O1118539   5.955   0.489   6.502 -0.1964  0.1786  0.0097
  165SAPE    C118540   5.838   0.503   6.582  0.4400  0.2787  0.1620
  165SAPE    HA18541   5.755   0.566   6.543  0.5203 -0.2794 -0.9725
  165SAPE    HB18542   5.788   0.403   6.588  1.9408 -0.4853  0.3839
  165SAPE    C218543   5.867   0.569   6.712  0.0117  0.2092 -0.7667
  165SAPE    HS18544   5.924   0.659   6.682  1.6616 -0.4230  0.3351
  165SAPE   O2118545   5.943   0.472   6.798 -0.2925 -0.2099 -0.3220
  165SAPE   C2118546   6.057   0.515   6.845  0.5408  0.0002  0.7411
  165SAPE   O2218547   6.100   0.630   6.851 -0.1549 -0.4258  0.4796
  165SAPE   C2218548   6.137   0.392   6.890 -0.1270  0.2370  0.7526
  165SAPE   H2R18549   6.111   0.314   6.815 -0.4136 -0.2102  1.3129
  165SAPE   H2S18550   6.245   0.408   6.870 -0.6450  0.5857 -2.2828
  165SAPE    C318551   5.730   0.600   6.783 -0.1533 -0.0682  0.3837
  165SAPE    HX18552   5.662   0.513   6.769  0.0197 -0.1712  0.1736
  165SAPE    HY18553   5.679   0.690   6.742  2.8954  1.9120  0.5602
  165SAPE   O3118554   5.750   0.605   6.924  0.1082 -0.3313 -0.7736
  165SAPE   C3118555   5.789   0.727   6.975 -0.0334  0.5553 -0.5336
  165SAPE   O3218556   5.799   0.829   6.912  0.4382  0.0623  0.0849
  165SAPE   C3218557   5.799   0.715   7.122  0.6944  0.2138 -0.5389
  165SAPE   H2X18558   5.829   0.614   7.157 -0.4826 -0.8753 -2.5258
  165SAPE   H2Y18559   5.694   0.728   7.157  0.0998 -2.1061 -1.3213
  165SAPE   C2318560   6.113   0.358   7.034  0.1549  0.2746  0.1243
  165SAPE   H3R18561   6.180   0.275   7.066  0.1043  0.3330  0.3825
  165SAPE   H3S18562   6.013   0.310   7.047 -0.0205  0.1983 -1.3494
  165SAPE   C2418563   6.132   0.462   7.135 -0.6752 -0.7295 -0.0498
  165SAPE   H4R18564   6.054   0.541   7.135 -1.1500 -1.1800  0.8536
  165SAPE   H4S18565   6.230   0.510   7.110 -0.5586 -1.4268 -0.9729
  165SAPE   C2518566   6.137   0.417   7.279 -0.4206  0.3143 -0.4932
  165SAPE   H5R18567   6.043   0.373   7.314 -0.7658  0.1281 -1.6219
  165SAPE   C2618568   6.255   0.393   7.355  0.6840 -0.6214  0.0532
  165SAPE   H6R18569   6.241   0.369   7.461  0.1347  0.1064  0.1516
  165SAPE   C2718570   6.406   0.413   7.321  0.0305  0.4572  0.6954
  165SAPE   H7R18571   6.458   0.404   7.418  1.8958 -1.5727 -0.4130
  165SAPE   H7S18572   6.426   0.513   7.276  0.7979  0.0330  0.0704
  165SAPE   C2818573   6.465   0.303   7.232  1.0516  0.4563  0.9329
  165SAPE   H8R18574   6.490   0.318   7.126 -2.9012  0.3850 -0.1982
  165SAPE   C2918575   6.487   0.179   7.273 -0.3473  0.4306  0.5230
  165SAPE   H9R18576   6.502   0.103   7.194 -1.6129 -1.2062  1.7752
  165SAPE  C21018577   6.464   0.124   7.416 -0.0273  0.2442  0.2194
  165SAPE  H10R18578   6.460   0.013   7.411  0.6048  0.0140  3.0131
  165SAPE  H10S18579   6.363   0.150   7.455 -0.2104 -0.8037  0.4822
  165SAPE  C21118580   6.567   0.171   7.517 -0.2267  0.3871  0.2202
  165SAPE  H11R18581   6.650   0.229   7.475  1.3012 -0.1881  2.3021
  165SAPE  C21218582   6.568   0.148   7.647  0.5963 -0.1901 -0.7942
  165SAPE  H12R18583   6.648   0.197   7.706 -0.3889  1.2198 -0.5612
  165SAPE  C21318584   6.461   0.075   7.726 -0.3528 -0.0787  0.5516
  165SAPE  H13R18585   6.513   0.030   7.814  0.8638 -1.6608 -0.9177
  165SAPE  H13S18586   6.431  -0.011   7.662 -1.9744 -0.4358  1.7080
  165SAPE  C21418587   6.340   0.164   7.742 -0.7076  0.1795  0.2234
  165SAPE  H14R18588   6.311   0.212   7.648 -3.2937  0.5935  1.1683
  165SAPE  C21518589   6.268   0.172   7.852 -0.2460  0.4687  0.9654
  165SAPE  H15R18590   6.179   0.236   7.849 -0.2545  0.4297  0.2316
  165SAPE  C21618591   6.289   0.091   7.975  0.0224 -0.1417 -0.0356
  165SAPE  H16R18592   6.393   0.056   7.991  0.3854  0.6505 -0.5987
  165SAPE  H16S18593   6.225   0.001   7.963  0.8011 -0.7355  0.1745
  165SAPE  C21718594   6.250   0.170   8.100  0.0021 -0.2004 -0.0321
  165SAPE  H17R18595   6.149   0.210   8.077 -0.1219 -2.2789 -3.8287
  165SAPE  H17S18596   6.316   0.260   8.106 -0.1575  0.0188 -1.2433
  165SAPE  C21818597   6.251   0.083   8.226 -0.4253 -0.4903 -0.1555
  165SAPE  H18R18598   6.353   0.059   8.262 -0.9188 -1.2098  0.8213
  165SAPE  H18S18599   6.202  -0.014   8.207 -1.3687 -0.7597  2.9700
  165SAPE  C21918600   6.168   0.141   8.345  0.3753 -0.3788 -0.5392
  165SAPE  H19R18601   6.069   0.174   8.309  0.5955 -0.5908 -1.3815
  165SAPE  H19S18602   6.219   0.229   8.389  2.0780 -0.6088 -1.9265
  165SAPE  C22018603   6.145   0.033   8.449 -0.7052 -0.2558 -0.1391
  165SAPE  H20R18604   6.243  -0.004   8.487  0.5338  1.0432 -1.9143
  165SAPE  H20S18605   6.091  -0.058   8.413 -1.2210  0.2081 -0.5572
  165SAPE  H20T18606   6.101   0.066   8.546  0.6102 -2.8664  1.4483
  165SAPE   C3318607   5.879   0.822   7.191 -0.6322 -0.0642 -0.2532
  165SAPE   H3X18608   5.851   0.924   7.156  2.5781  0.2918 -2.3033
  165SAPE   H3Y18609   5.989   0.808   7.181 -0.6481 -0.4128  0.0388
  165SAPE   C3418610   5.868   0.819   7.340 -0.1922  0.6607 -0.6948
  165SAPE   H4X18611   5.763   0.809   7.376  0.2349  0.1397  0.4521
  165SAPE   H4Y18612   5.895   0.913   7.391  1.6916 -0.0524 -0.3070
  165SAPE   C3518613   5.942   0.699   7.405 -0.0113 -0.7068  0.2294
  165SAPE   H5X18614   6.049   0.705   7.377  0.0771  3.0422  0.7884
  165SAPE   H5Y18615   5.901   0.603   7.367 -0.6414 -0.0550 -0.7976
  165SAPE   C3618616   5.940   0.685   7.562 -0.7298  0.6511  0.2463
  165SAPE   H6X18617   5.835   0.662   7.592  0.0623 -3.0112  0.6836
  165SAPE   H6Y18618   5.977   0.778   7.610 -0.2533 -0.6228  2.4864
  165SAPE   C3718619   6.013   0.550   7.599  0.9503  0.4674 -1.0796
  165SAPE   H7X18620   6.115   0.562   7.558 -0.1254  0.0887 -4.0915
  165SAPE   H7Y18621   5.967   0.467   7.541 -3.3445  2.1703 -0.5254
  165SAPE   C3818622   5.993   0.511   7.745  0.8564  0.5332  0.2139
  165SAPE   H8X18623   6.008   0.401   7.749 -0.3469  0.3562  0.1228
  165SAPE   H8Y18624   5.890   0.540   7.775  0.6079  1.3298 -1.2972
  165SAPE   C3918625   6.097   0.580   7.836 -0.0424 -0.8016 -0.6039
  165SAPE   H9X18626   6.106   0.683   7.795  0.8721 -0.9492 -0.7746
  165SAPE   H9Y18627   6.195   0.529   7.826  1.0392  1.4236 -2.1879
  165SAPE  C31018628   6.051   0.583   7.981 -0.7663  0.2467  0.5248
  165SAPE  H10X18629   6.099   0.497   8.032  1.4003  1.1160  0.0983
  165SAPE  H10Y18630   5.941   0.576   7.974 -0.9181  2.1988  0.4586
  165SAPE  C31118631   6.091   0.717   8.051  0.8689  0.0103 -0.2527
  165SAPE  H11X18632   6.033   0.803   8.010 -1.5004 -1.3643  0.0326
  165SAPE  H11Y18633   6.199   0.741   8.045  1.0806 -0.1119  2.1015
  165SAPE  C31218634   6.057   0.700   8.201  0.2602  0.5460 -0.1174
  165SAPE  H12X18635   6.111   0.619   8.254  1.7615  0.5616 -1.5438
  165SAPE  H12Y18636   5.950   0.674   8.215  0.7874 -0.7096  1.8666
  165SAPE  C31318637   6.088   0.831   8.280  0.0538  0.2096 -0.6690
  165SAPE  H13X18638   6.011   0.904   8.246 -1.9815 -1.7824 -0.6288
  165SAPE  H13Y18639   6.184   0.878   8.251 -0.5636  2.1178  0.2552
  165SAPE  C31418640   6.085   0.820   8.429 -0.4779 -0.0745 -0.3120
  165SAPE  H14X18641   6.147   0.734   8.462  0.7744  0.5758 -0.8897
  165SAPE  H14Y18642   5.982   0.797   8.463  0.4493 -1.5966  1.7325
  165SAPE  C31518643   6.130   0.947   8.501 -0.2653  0.3302  0.0561
  165SAPE  H15X18644   6.059   1.030   8.482 -0.0992  0.6007  0.5869
  165SAPE  H15Y18645   6.227   0.973   8.456 -0.6590 -1.1729 -1.7839
  165SAPE  C31618646   6.142   0.933   8.662 -1.0650 -0.7516  0.1306
  165SAPE  H16X18647   6.212   1.008   8.704 -0.4397 -0.2300 -1.7796
  165SAPE  H16Y18648   6.190   0.833   8.668 -2.0395 -1.1869  1.1842
  165SAPE  C31718649   6.011   0.920   8.742  0.3558  0.0248  0.0050
  165SAPE  H17X18650   5.927   0.921   8.669  1.2913  0.6647 -1.1036
  165SAPE  H17Y18651   5.997   1.006   8.811 -0.2926 -1.0577  1.2734
  165SAPE  C31818652   5.998   0.804   8.836  0.2138 -0.0568 -0.0481
  165SAPE  H18X18653   6.089   0.801   8.900 -0.7897 -0.9370  1.3822
  165SAPE  H18Y18654   6.002   0.713   8.772 -1.6532 -0.4912  0.3949
  165SAPE  H18Z18655   5.906   0.805   8.897 -1.1453  1.6633 -1.9828
  166SAPE     N18656   6.360   5.448   6.413 -0.2084 -0.7602 -0.2177
  166SAPE   HN118657   6.408   5.380   6.476 -0.1670 -0.2673  0.2908
  166SAPE   HN218658   6.415   5.531   6.383 -1.7784 -0.3549 -2.2156
  166SAPE   HN318659   6.274   5.482   6.460  0.6667 -0.6213  1.3554
  166SAPE   C1218660   6.310   5.376   6.293  0.2951  0.4584 -0.1067
  166SAPE  H12A18661   6.398   5.364   6.226 -0.6824 -3.4748 -0.9192
  166SAPE  H12B18662   6.234   5.440   6.244  0.2103 -0.4688 -1.2082
  166SAPE   C1118663   6.262   5.238   6.326  0.2645  0.5523  0.3805
  166SAPE  H11A18664   6.167   5.246   6.383  0.5300  0.3030  0.8659
  166SAPE  H11B18665   6.331   5.177   6.389 -0.8599  0.7982  1.9135
  166SAPE     P18666   6.112   5.188   6.123  0.2665 -0.8564  0.2055
  166SAPE   O1318667   6.157   5.242   5.986 -0.0426 -0.0386 -0.1368
  166SAPE   O1418668   6.038   5.065   6.129 -0.3033  0.8791  0.0405
  166SAPE   O1218669   6.244   5.167   6.205  0.1471 -0.0984  0.5742
  166SAPE   O1118670   6.027   5.300   6.190  0.1985 -0.1007  0.0642
  166SAPE    C118671   5.885   5.290   6.212  0.2463  0.5304  0.6218
  166SAPE    HA18672   5.856   5.393   6.183  0.4837  0.5072  0.3040
  166SAPE    HB18673   5.829   5.216   6.151 -1.1362  1.7023  0.4094
  166SAPE    C218674   5.855   5.270   6.358  0.2184  0.1240 -0.4856
  166SAPE    HS18675   5.907   5.349   6.418 -1.1609  0.7708 -0.0994
  166SAPE   O2118676   5.892   5.137   6.383 -0.6556  0.1294  0.3433
  166SAPE   C2118677   5.969   5.119   6.488 -0.0063  0.6495 -0.6654
  166SAPE   O2218678   5.987   5.199   6.578 -0.3710  0.5380  0.0611
  166SAPE   C2218679   6.021   4.973   6.475  0.0918 -0.3931 -0.4242
  166SAPE   H2R18680   5.937   4.902   6.456 -0.1791  0.2100 -1.5993
  166SAPE   H2S18681   6.073   4.970   6.377 -0.3466  1.3727 -0.7415
  166SAPE    C318682   5.696   5.295   6.387 -0.2238  0.9399 -0.0754
  166SAPE    HX18683   5.651   5.204   6.341 -1.5580  0.4271  2.0796
  166SAPE    HY18684   5.660   5.386   6.335 -1.1522  0.8408  0.3713
  166SAPE   O3118685   5.660   5.282   6.530 -0.1894  0.0233  0.2545
  166SAPE   C3118686   5.690   5.387   6.601 -0.0289 -0.4261 -0.6335
  166SAPE   O3218687   5.752   5.485   6.564 -0.7275 -0.1263 -0.2684
  166SAPE   C3218688   5.627   5.375   6.749  0.0415  0.4560  0.0972
  166SAPE   H2X18689   5.538   5.309   6.743  0.3451 -0.1968  2.0328
  166SAPE   H2Y18690   5.583   5.476   6.761 -1.3797 -0.2288  0.8716
  166SAPE   C2318691   6.109   4.931   6.594 -0.3991 -0.0733 -0.0825
  166SAPE   H3R18692   6.170   5.017   6.627 -1.1762  0.5950 -0.3579
  166SAPE   H3S18693   6.180   4.848   6.573  0.5107 -0.6571  4.3036
  166SAPE   C2418694   6.021   4.878   6.714  0.2019 -0.0850  0.0467
  166SAPE   H4R18695   5.946   4.801   6.684 -1.1816  1.1774  0.1757
  166SAPE   H4S18696   5.957   4.962   6.746  0.4096  0.8053 -1.7621
  166SAPE   C2518697   6.109   4.821   6.819 -0.3948  1.3278  0.0822
  166SAPE   H5R18698   6.214   4.851   6.818 -0.3744  1.3141  0.8434
  166SAPE   C2618699   6.058   4.746   6.919  0.1170 -0.1791 -0.6882
  166SAPE   H6R18700   6.129   4.695   6.986  0.2584 -0.2604 -0.8987
  166SAPE   C2718701   5.910   4.720   6.950  0.2509  0.1688 -0.3503
  166SAPE   H7R18702   5.897   4.619   6.994 -1.8713 -0.2638 -1.8155
  166SAPE   H7S18703   5.848   4.713   6.858 -1.5124 -0.8263  0.8445
  166SAPE   C2818704   5.863   4.826   7.049 -0.3616 -0.7220 -0.1884
  166SAPE   H8R18705   5.822   4.910   6.992  1.7168 -0.7116 -1.8085
  166SAPE   C2918706   5.871   4.823   7.183  0.2834 -0.0294 -0.3042
  166SAPE   H9R18707   5.845   4.910   7.245 -3.0240 -1.3787  0.4255
  166SAPE  C21018708   5.927   4.701   7.251  0.2706 -0.2196 -0.1273
  166SAPE  H10R18709   6.036   4.713   7.268  0.5125 -1.6556 -0.5252
  166SAPE  H10S18710   5.916   4.606   7.195 -0.7694 -1.6389  2.3291
  166SAPE  C21118711   5.860   4.670   7.385  0.3033 -0.0104  0.0141
  166SAPE  H11R18712   5.759   4.627   7.379  0.0171  0.4755  1.0095
  166SAPE  C21218713   5.911   4.701   7.509  0.4616 -0.3379  0.5743
  166SAPE  H12R18714   5.854   4.669   7.597 -0.8974  0.0802 -0.1251
  166SAPE  C21318715   6.030   4.774   7.548 -0.2066 -0.7549 -0.3323
  166SAPE  H13R18716   6.109   4.757   7.472  1.0591  2.0096  0.2331
  166SAPE  H13S18717   6.073   4.725   7.638  0.6019 -0.0297 -0.3120
  166SAPE  C21418718   6.024   4.928   7.571  0.1102  0.3557  0.2618
  166SAPE  H14R18719   5.956   4.982   7.504 -1.5398  1.2036  2.5027
  166SAPE  C21518720   6.093   4.995   7.663 -0.0328  0.6437 -1.0066
  166SAPE  H15R18721   6.088   5.104   7.676 -1.2092  0.6720 -1.5531
  166SAPE  C21618722   6.190   4.931   7.769  0.0919 -0.1460  0.7615
  166SAPE  H16R18723   6.283   4.987   7.746  0.4853 -1.8568 -2.2865
  166SAPE  H16S18724   6.211   4.826   7.740  1.9622  0.4142 -0.0249
  166SAPE  C21718725   6.137   4.947   7.911  0.6594  0.3296 -0.3613
  166SAPE  H17R18726   6.120   5.056   7.922  4.2385  0.9424  0.5949
  166SAPE  H17S18727   6.224   4.923   7.977  0.0558 -2.1408 -0.3516
  166SAPE  C21818728   6.012   4.860   7.947  0.3806  0.1323 -0.0297
  166SAPE  H18R18729   5.931   4.864   7.871 -0.2137 -2.1605  0.4076
  166SAPE  H18S18730   5.960   4.907   8.033 -2.4199 -3.5126  0.4920
  166SAPE  C21918731   6.035   4.711   7.989 -0.4555 -0.2882 -0.2886
  166SAPE  H19R18732   6.125   4.722   8.052 -0.7416 -0.1729  0.1087
  166SAPE  H19S18733   6.078   4.648   7.909  2.1070  0.7691  0.1629
  166SAPE  C22018734   5.936   4.666   8.092  0.1573  0.1190  0.0459
  166SAPE  H20R18735   5.925   4.740   8.174  0.1612 -0.2104  0.3445
  166SAPE  H20S18736   5.967   4.565   8.126 -1.7388 -0.5536 -0.0957
  166SAPE  H20T18737   5.838   4.646   8.042  1.3352 -2.1385 -1.5059
  166SAPE   C3318738   5.734   5.351   6.859  0.2102  0.1432 -0.5363
  166SAPE   H3X18739   5.810   5.431   6.856  1.2626 -0.7349  1.2170
  166SAPE   H3Y18740   5.794   5.258   6.849 -0.2247 -0.1690 -0.3184
  166SAPE   C3418741   5.676   5.343   7.003 -1.1433  0.0798  0.0612
  166SAPE   H4X18742   5.603   5.259   7.002 -0.6191 -0.3793 -1.0313
  166SAPE   H4Y18743   5.611   5.430   7.028 -1.1485 -0.1227  0.7734
  166SAPE   C3518744   5.781   5.335   7.114 -0.0538 -0.0569 -0.7391
  166SAPE   H5X18745   5.860   5.413   7.104  0.2195  0.4369  3.3676
  166SAPE   H5Y18746   5.819   5.231   7.106 -1.7562 -0.8839  1.0914
  166SAPE   C3618747   5.719   5.358   7.250 -0.3979 -0.1314 -0.6205
  166SAPE   H6X18748   5.617   5.314   7.256  0.3733 -1.8892  0.2359
  166SAPE   H6Y18749   5.720   5.463   7.284 -0.9075 -0.0179 -0.9349
  166SAPE   C3718750   5.782   5.272   7.356  0.6388 -0.0753 -0.0671
  166SAPE   H7X18751   5.889   5.294   7.378 -0.2084  2.0420  2.4993
  166SAPE   H7Y18752   5.769   5.164   7.334 -0.3263 -0.0607  0.3956
  166SAPE   C3818753   5.701   5.295   7.491 -0.2192 -0.4636  0.0277
  166SAPE   H8X18754   5.621   5.217   7.495 -1.2670  0.6194  0.7474
  166SAPE   H8Y18755   5.648   5.392   7.495  0.2474 -0.1797 -0.4888
  166SAPE   C3918756   5.784   5.278   7.626 -0.3413  0.0424  0.1095
  166SAPE   H9X18757   5.867   5.352   7.616  0.2279 -0.4501  0.9823
  166SAPE   H9Y18758   5.834   5.178   7.634  0.6967  0.5554  0.2423
  166SAPE  C31018759   5.692   5.302   7.740 -0.3937 -0.3923  0.8582
  166SAPE  H10X18760   5.613   5.228   7.714 -0.1989 -0.7946  1.3995
  166SAPE  H10Y18761   5.646   5.403   7.725  0.8850 -0.0126 -0.8571
  166SAPE  C31118762   5.744   5.305   7.886 -0.1236 -0.4665  0.0243
  166SAPE  H11X18763   5.837   5.366   7.877  0.2441 -0.8411  1.1094
  166SAPE  H11Y18764   5.765   5.201   7.917 -0.3645 -1.4222 -2.7205
  166SAPE  C31218765   5.639   5.348   7.988 -0.8657  0.0115 -0.3302
  166SAPE  H12X18766   5.537   5.365   7.946  0.2108  3.0258 -2.0725
  166SAPE  H12Y18767   5.658   5.443   8.042 -2.0349 -0.2090  0.5122
  166SAPE  C31318768   5.630   5.251   8.112 -0.4863  0.5183  0.6987
  166SAPE  H13X18769   5.724   5.242   8.171  0.5047 -0.3818 -0.9427
  166SAPE  H13Y18770   5.628   5.149   8.067  1.2486 -0.9900  3.7336
  166SAPE  C31418771   5.517   5.265   8.216  0.4364 -0.0402 -0.6467
  166SAPE  H14X18772   5.457   5.171   8.220  2.1029 -1.2672 -2.3201
  166SAPE  H14Y18773   5.445   5.347   8.197 -0.5630 -0.3827  1.3607
  166SAPE  C31518774   5.571   5.296   8.353  0.0745 -0.1587 -0.3855
  166SAPE  H15X18775   5.482   5.322   8.414 -2.2754 -1.4819 -3.0107
  166SAPE  H15Y18776   5.640   5.383   8.348  1.9312 -1.3716  2.0275
  166SAPE  C31618777   5.639   5.183   8.434  0.4113  0.2357  0.8126
  166SAPE  H16X18778   5.718   5.133   8.374  0.7097  0.4292  1.0347
  166SAPE  H16Y18779   5.570   5.103   8.466 -2.7632  0.9629 -3.3701
  166SAPE  C31718780   5.708   5.246   8.560 -0.5018  0.0879 -0.2120
  166SAPE  H17X18781   5.628   5.289   8.624  2.1294  1.5193  2.3260
  166SAPE  H17Y18782   5.771   5.329   8.523  2.3434 -1.4731  0.8464
  166SAPE  C31818783   5.786   5.142   8.642 -0.6081  0.0938  0.6931
  166SAPE  H18X18784   5.824   5.204   8.726  0.3565  0.4084  0.0477
  166SAPE  H18Y18785   5.873   5.110   8.581 -0.5404  2.5550 -0.6471
  166SAPE  H18Z18786   5.716   5.068   8.685 -1.6781  1.2970  1.0705
  167SAPE     N18787   0.353   3.478   6.270 -0.5241  0.2483 -0.6394
  167SAPE   HN118788   0.380   3.378   6.281  0.0186  0.2619 -1.7000
  167SAPE   HN218789   0.280   3.472   6.197 -0.0710  0.4350 -1.1159
  167SAPE   HN318790   0.438   3.526   6.235 -0.3449  0.8275  0.5315
  167SAPE   C1218791   0.303   3.538   6.397 -0.1714 -0.2250  0.2964
  167SAPE  H12A18792   0.347   3.640   6.407 -1.5921  0.6280 -1.5696
  167SAPE  H12B18793   0.337   3.479   6.486 -0.1535 -1.2531 -0.3752
  167SAPE   C1118794   0.153   3.544   6.392  0.0526  0.2271 -0.2215
  167SAPE  H11A18795   0.127   3.599   6.485 -0.6072 -0.1855 -0.1523
  167SAPE  H11B18796   0.114   3.440   6.398  0.5117 -0.0220 -1.3646
  167SAPE     P18797  -0.039   3.573   6.217 -0.1728 -0.8310  0.1921
  167SAPE   O1318798  -0.081   3.671   6.113  0.4527  0.0042  0.2924
  167SAPE   O1418799  -0.064   3.435   6.181  0.0373  0.2141  0.0897
  167SAPE   O1218800   0.106   3.605   6.273  0.1730 -0.4605  0.1354
  167SAPE   O1118801  -0.128   3.591   6.343  0.8622 -0.1186 -0.2772
  167SAPE    C118802  -0.184   3.720   6.372 -0.1638 -0.1710  0.0666
  167SAPE    HA18803  -0.143   3.803   6.313 -2.5342  0.5065 -0.7432
  167SAPE    HB18804  -0.291   3.715   6.342 -0.9064  0.1212  2.3908
  167SAPE    C218805  -0.160   3.765   6.518 -0.7628  0.3519 -0.2091
  167SAPE    HS18806  -0.051   3.761   6.537 -0.4953  2.6698 -0.9325
  167SAPE   O2118807  -0.234   3.679   6.598 -0.7428 -0.4886 -0.0341
  167SAPE   C2118808  -0.182   3.576   6.658 -0.1051  0.4721 -0.0590
  167SAPE   O2218809  -0.065   3.538   6.652 -0.1385  0.2924  0.1953
  167SAPE   C2218810  -0.293   3.500   6.744  0.5897  0.5227 -0.6863
  167SAPE   H2R18811  -0.353   3.578   6.796 -0.8816 -1.3781  0.6650
  167SAPE   H2S18812  -0.365   3.441   6.683  1.3294  0.4377 -1.4915
  167SAPE    C318813  -0.189   3.913   6.559 -0.5958 -0.1949 -0.9911
  167SAPE    HX18814  -0.299   3.923   6.550 -0.5276  1.8053 -0.1506
  167SAPE    HY18815  -0.148   3.989   6.490  0.6369 -2.0427 -2.4036
  167SAPE   O3118816  -0.147   3.936   6.700  0.1257  0.0529 -0.4175
  167SAPE   C3118817  -0.022   3.948   6.713 -0.5051  0.6522 -0.2924
  167SAPE   O3218818   0.063   3.957   6.624 -0.1864  0.0882  0.2367
  167SAPE   C3218819   0.007   3.965   6.864 -1.2229 -1.1113  0.2969
  167SAPE   H2X18820  -0.062   4.050   6.886  1.7876  1.2681  1.1436
  167SAPE   H2Y18821   0.116   3.984   6.866 -1.6746  2.3950 -1.6080
  167SAPE   C2318822  -0.232   3.392   6.841 -0.1847 -0.1992  0.8045
  167SAPE   H3R18823  -0.145   3.436   6.895 -1.2428  1.7980  0.9653
  167SAPE   H3S18824  -0.186   3.309   6.782  1.9878  3.1207 -2.6241
  167SAPE   C2418825  -0.321   3.334   6.955  0.1893  0.3093 -0.1391
  167SAPE   H4R18826  -0.281   3.251   7.017 -1.4242 -0.6900 -0.3795
  167SAPE   H4S18827  -0.412   3.305   6.899 -1.8408  0.3673  2.8957
  167SAPE   C2518828  -0.356   3.446   7.053  0.0752 -0.4254 -0.2694
  167SAPE   H5R18829  -0.427   3.524   7.022 -0.0341 -0.9038 -1.2809
  167SAPE   C2618830  -0.312   3.456   7.179  0.9441 -0.3742  0.7473
  167SAPE   H6R18831  -0.337   3.544   7.239 -0.4399 -0.5005  0.3894
  167SAPE   C2718832  -0.229   3.362   7.256 -0.5534 -0.1014 -0.0994
  167SAPE   H7R18833  -0.162   3.307   7.187  2.0386  0.4351  1.8276
  167SAPE   H7S18834  -0.287   3.291   7.317  0.7680 -1.0361  0.1187
  167SAPE   C2818835  -0.134   3.437   7.346  0.1350 -0.0878 -0.8068
  167SAPE   H8R18836  -0.069   3.505   7.289  1.0306 -0.0521  0.2233
  167SAPE   C2918837  -0.135   3.427   7.484 -0.0898  0.6447 -0.2317
  167SAPE   H9R18838  -0.066   3.489   7.544  0.0174  1.7770 -1.4612
  167SAPE  C21018839  -0.217   3.333   7.574  0.5230 -0.0128 -0.1859
  167SAPE  H10R18840  -0.151   3.290   7.652  0.6229  0.2978 -0.0975
  167SAPE  H10S18841  -0.258   3.242   7.525  0.6627 -1.8727  2.9124
  167SAPE  C21118842  -0.335   3.400   7.638  0.1926 -0.2606 -0.1686
  167SAPE  H11R18843  -0.414   3.433   7.569  0.6587  0.9801 -0.1481
  167SAPE  C21218844  -0.345   3.424   7.766 -0.1610  0.1461  0.2855
  167SAPE  H12R18845  -0.437   3.478   7.796 -2.3901 -1.2145 -3.4556
  167SAPE  C21318846  -0.243   3.391   7.870 -0.1837  0.5324 -0.1362
  167SAPE  H13R18847  -0.143   3.426   7.837 -0.0675 -0.3679 -0.7588
  167SAPE  H13S18848  -0.222   3.283   7.883 -1.9667  0.4091  2.6397
  167SAPE  C21418849  -0.279   3.446   8.008  0.2695 -0.1094 -0.0282
  167SAPE  H14R18850  -0.320   3.359   8.061  0.5068 -0.3082 -0.1644
  167SAPE  C21518851  -0.267   3.569   8.065 -0.3568 -0.3912  0.1237
  167SAPE  H15R18852  -0.307   3.591   8.165 -0.9916  1.1190 -0.4411
  167SAPE  C21618853  -0.212   3.693   8.003  0.1242  0.6675 -0.1320
  167SAPE  H16R18854  -0.285   3.776   7.996 -0.9709 -0.3770 -2.5768
  167SAPE  H16S18855  -0.181   3.680   7.897  1.8270 -1.5461  0.5691
  167SAPE  C21718856  -0.086   3.740   8.076 -0.5971 -0.7887 -1.0365
  167SAPE  H17R18857  -0.064   3.840   8.031 -0.7336  0.1444  0.8685
  167SAPE  H17S18858  -0.001   3.672   8.057 -2.0461 -2.3367 -2.3687
  167SAPE  C21818859  -0.103   3.768   8.230 -0.1509 -0.8797  0.6627
  167SAPE  H18R18860  -0.126   3.675   8.286 -1.6054 -0.6342  0.5032
  167SAPE  H18S18861  -0.182   3.845   8.243 -0.5755 -1.2159  0.0786
  167SAPE  C21918862   0.027   3.816   8.299 -0.2045 -0.1732 -0.3902
  167SAPE  H19R18863   0.049   3.917   8.257  1.4000  1.6061  4.0609
  167SAPE  H19S18864   0.114   3.752   8.272  0.2687  0.5700 -0.6807
  167SAPE  C22018865   0.016   3.815   8.452 -0.0047 -0.4630 -0.2151
  167SAPE  H20R18866  -0.062   3.739   8.475  0.8230 -1.0434  0.7565
  167SAPE  H20S18867  -0.038   3.907   8.484  0.8619 -0.7127  2.1794
  167SAPE  H20T18868   0.113   3.807   8.506  0.6074 -2.2859 -1.4726
  167SAPE   C3318869  -0.037   3.843   6.952 -0.2877  0.0799  0.0803
  167SAPE   H3X18870   0.024   3.755   6.923 -1.4928 -0.1866 -1.8721
  167SAPE   H3Y18871  -0.141   3.821   6.920  0.3477  0.2596 -2.2683
  167SAPE   C3418872  -0.015   3.875   7.097  0.4307  0.4450  0.3644
  167SAPE   H4X18873  -0.083   3.960   7.120 -2.7327 -1.7132 -0.3859
  167SAPE   H4Y18874   0.087   3.918   7.098  0.4606  0.3729  1.0294
  167SAPE   C3518875  -0.033   3.759   7.189 -0.0909  0.2567  0.2245
  167SAPE   H5X18876   0.002   3.663   7.145  0.1332  0.1709  0.5842
  167SAPE   H5Y18877  -0.142   3.755   7.211 -0.5589  0.4801 -1.8809
  167SAPE   C3618878   0.050   3.768   7.317 -0.0130  0.4921  0.9901
  167SAPE   H6X18879   0.157   3.751   7.292 -0.2671  0.4587 -0.1175
  167SAPE   H6Y18880   0.017   3.693   7.392  0.9698  0.0355  0.9917
  167SAPE   C3718881   0.039   3.893   7.404 -0.4688  0.4263 -0.1125
  167SAPE   H7X18882  -0.068   3.914   7.422 -0.7406  0.4105 -1.6069
  167SAPE   H7Y18883   0.071   3.976   7.338 -0.9356  0.2918 -0.5079
  167SAPE   C3818884   0.126   3.891   7.527 -0.0859  0.2035  0.0893
  167SAPE   H8X18885   0.089   3.977   7.587 -3.0659 -0.2155 -0.9515
  167SAPE   H8Y18886   0.235   3.893   7.510 -0.2546 -0.2139 -1.1185
  167SAPE   C3918887   0.095   3.765   7.612  0.4778 -0.5001 -0.1038
  167SAPE   H9X18888   0.164   3.682   7.585 -0.2532 -0.8133 -1.0627
  167SAPE   H9Y18889  -0.006   3.728   7.583  0.7966  0.2261 -2.3202
  167SAPE  C31018890   0.105   3.780   7.763 -0.0721  0.6990 -0.2113
  167SAPE  H10X18891   0.062   3.691   7.813  0.9392  1.3042  1.8579
  167SAPE  H10Y18892   0.057   3.874   7.800  0.2993  0.6357  0.4453
  167SAPE  C31118893   0.256   3.789   7.796 -0.2775  0.1695 -0.0245
  167SAPE  H11X18894   0.304   3.861   7.728 -1.9631  0.2340 -1.2019
  167SAPE  H11Y18895   0.307   3.690   7.790  1.7593  0.8644  3.1705
  167SAPE  C31218896   0.282   3.827   7.943 -0.2194 -0.4615  0.6970
  167SAPE  H12X18897   0.219   3.763   8.008 -0.7259 -0.6656  0.0102
  167SAPE  H12Y18898   0.242   3.930   7.953  1.0170  0.1206  0.0365
  167SAPE  C31318899   0.432   3.831   7.981 -0.1785 -0.1959  0.3923
  167SAPE  H13X18900   0.475   3.907   7.913 -3.4330  0.2592 -1.3687
  167SAPE  H13Y18901   0.484   3.736   7.956  3.4370  1.1321  2.1364
  167SAPE  C31418902   0.456   3.874   8.129 -0.1184 -1.0342  0.4705
  167SAPE  H14X18903   0.402   3.970   8.144  1.4274 -0.2131  0.9465
  167SAPE  H14Y18904   0.559   3.909   8.150 -0.7890 -0.1543  2.5413
  167SAPE  C31518905   0.432   3.761   8.230 -0.1670 -0.0647  0.2239
  167SAPE  H15X18906   0.455   3.665   8.179  0.2444 -0.3645  0.9594
  167SAPE  H15Y18907   0.324   3.761   8.254 -0.2126  0.6879  0.0448
  167SAPE  C31618908   0.516   3.770   8.359 -0.0415 -0.0273 -0.0434
  167SAPE  H16X18909   0.508   3.876   8.392  0.4246  0.2109 -0.6849
  167SAPE  H16Y18910   0.622   3.744   8.341  0.4805 -0.3808  3.0734
  167SAPE  C31718911   0.460   3.683   8.480  0.2342 -0.7643 -0.8275
  167SAPE  H17X18912   0.446   3.577   8.451  1.1512 -0.8686 -0.9138
  167SAPE  H17Y18913   0.368   3.737   8.511  0.9870  0.1028 -0.0264
  167SAPE  C31818914   0.553   3.690   8.604  0.0148 -0.3550 -0.4621
  167SAPE  H18X18915   0.507   3.641   8.693 -0.5826 -0.7542 -0.9856
  167SAPE  H18Y18916   0.578   3.793   8.636 -1.6766 -0.2859  0.7997
  167SAPE  H18Z18917   0.654   3.647   8.590  0.0230 -0.5363  0.1186
  168SAPE     N18918   0.240   4.718   6.259 -1.0467  0.4944 -0.3104
  168SAPE   HN118919   0.184   4.775   6.193  1.7081  0.8064 -2.5901
  168SAPE   HN218920   0.333   4.702   6.216 -0.5990  1.5392  0.2225
  168SAPE   HN318921   0.209   4.623   6.287  1.5707  0.2385  2.1458
  168SAPE   C1218922   0.265   4.793   6.388 -0.4132  0.0571 -0.5515
  168SAPE  H12A18923   0.212   4.739   6.469 -1.7975 -0.0681 -1.5173
  168SAPE  H12B18924   0.233   4.899   6.394 -0.4286 -0.0165  1.3282
  168SAPE   C1118925   0.416   4.784   6.417 -0.0338  0.7678  0.4632
  168SAPE  H11A18926   0.453   4.845   6.501  3.1454  0.7205 -0.7719
  168SAPE  H11B18927   0.469   4.845   6.341  0.6247 -0.9680 -0.5498
  168SAPE     P18928   0.591   4.599   6.501 -0.4557  0.0156 -0.0364
  168SAPE   O1318929   0.576   4.451   6.497  0.1511 -0.3045 -0.3518
  168SAPE   O1418930   0.709   4.657   6.434 -0.1629  0.8653 -0.5889
  168SAPE   O1218931   0.466   4.652   6.426  0.2916 -0.1038  0.0389
  168SAPE   O1118932   0.571   4.649   6.652  0.4047  0.2924 -0.7101
  168SAPE    C118933   0.642   4.761   6.706 -0.2409 -0.2309 -0.2987
  168SAPE    HA18934   0.747   4.754   6.669 -0.3133  0.1660 -0.5865
  168SAPE    HB18935   0.598   4.860   6.680 -0.8284  0.0387  1.5674
  168SAPE    C218936   0.647   4.768   6.863  0.1450 -1.0374 -0.4865
  168SAPE    HS18937   0.698   4.863   6.891 -1.6081 -0.0918 -0.3776
  168SAPE   O2118938   0.717   4.652   6.915  0.5606  0.2494 -0.0383
  168SAPE   C2118939   0.849   4.647   6.884 -0.2493  0.6329 -0.6118
  168SAPE   O2218940   0.910   4.733   6.823 -0.1851  0.5822  0.0657
  168SAPE   C2218941   0.903   4.510   6.926 -0.5733 -0.1311  0.0841
  168SAPE   H2R18942   0.841   4.486   7.016 -0.6414 -0.5940 -0.0840
  168SAPE   H2S18943   0.892   4.437   6.843  3.2114 -0.2683 -0.4599
  168SAPE    C318944   0.503   4.770   6.918  0.6495  0.0685 -0.1229
  168SAPE    HX18945   0.461   4.671   6.891  2.9965 -0.3103 -2.7105
  168SAPE    HY18946   0.457   4.850   6.857  1.2202  0.5563  0.0734
  168SAPE   O3118947   0.501   4.794   7.065 -0.2416  0.0360 -0.3331
  168SAPE   C3118948   0.378   4.812   7.106  0.1034 -0.1240 -0.5552
  168SAPE   O3218949   0.273   4.811   7.039 -0.5807 -0.6767  0.1236
  168SAPE   C3218950   0.371   4.867   7.248  0.0236 -0.6909 -0.4332
  168SAPE   H2X18951   0.452   4.942   7.264  0.0226 -0.4178 -1.5981
  168SAPE   H2Y18952   0.395   4.790   7.324  1.1421  0.9324  0.9346
  168SAPE   C2318953   1.049   4.496   6.977  0.4895 -0.4651  0.4977
  168SAPE   H3R18954   1.120   4.541   6.904  0.5120 -2.2902 -0.6556
  168SAPE   H3S18955   1.081   4.390   6.969 -1.0578 -0.8115 -2.3020
  168SAPE   C2418956   1.064   4.544   7.125  0.6538 -0.2680 -0.4124
  168SAPE   H4R18957   1.157   4.498   7.164  0.1993 -1.6664 -0.9230
  168SAPE   H4S18958   0.984   4.500   7.188  1.0599  0.0077  0.3166
  168SAPE   C2518959   1.069   4.700   7.128 -0.4258  0.9920  0.3718
  168SAPE   H5R18960   1.156   4.741   7.076  0.2649  0.7951  1.3462
  168SAPE   C2618961   0.969   4.780   7.171  0.1799 -0.2364 -0.2631
  168SAPE   H6R18962   0.978   4.884   7.136  0.3255 -1.0480 -2.8102
  168SAPE   C2718963   0.838   4.742   7.233 -0.0539  0.5713  0.2116
  168SAPE   H7R18964   0.833   4.639   7.276  0.1344  1.3209  2.1235
  168SAPE   H7S18965   0.758   4.738   7.156 -1.8200  1.6219  1.8905
  168SAPE   C2818966   0.785   4.853   7.327 -0.6472  0.7828 -0.0933
  168SAPE   H8R18967   0.729   4.942   7.295 -0.0407  1.5392  0.9226
  168SAPE   C2918968   0.806   4.838   7.463 -0.7324 -0.4011  0.0698
  168SAPE   H9R18969   0.775   4.917   7.533 -0.0457 -0.6913  0.7086
  168SAPE  C21018970   0.887   4.730   7.532 -0.5000  0.0025  0.5774
  168SAPE  H10R18971   0.950   4.668   7.464  0.4573 -1.0436  2.3423
  168SAPE  H10S18972   0.822   4.649   7.572 -1.3742 -0.3141 -1.3534
  168SAPE  C21118973   0.982   4.782   7.637 -0.0669 -1.3953  0.0270
  168SAPE  H11R18974   1.066   4.846   7.606  0.3925 -2.9817 -2.2961
  168SAPE  C21218975   0.966   4.765   7.774 -0.2408  0.3637 -0.0329
  168SAPE  H12R18976   1.045   4.807   7.838 -1.2861 -2.4143  3.3266
  168SAPE  C21318977   0.860   4.686   7.839 -0.2742 -0.1190  0.1428
  168SAPE  H13R18978   0.824   4.597   7.784  0.5212 -0.7255  0.5797
  168SAPE  H13S18979   0.774   4.753   7.862 -0.7597 -0.3857 -0.8796
  168SAPE  C21418980   0.922   4.616   7.961 -0.3104 -0.3340  0.2810
  168SAPE  H14R18981   1.030   4.596   7.953  0.1803  1.7813  0.9932
  168SAPE  C21518982   0.855   4.571   8.066  0.5595  0.2231  0.3010
  168SAPE  H15R18983   0.917   4.513   8.135 -0.9079  1.0859  2.4599
  168SAPE  C21618984   0.704   4.574   8.098 -0.0022 -0.0986  0.5441
  168SAPE  H16R18985   0.635   4.607   8.018 -1.8420  0.0649  2.1336
  168SAPE  H16S18986   0.674   4.651   8.172  0.5007  0.6105  0.0237
  168SAPE  C21718987   0.678   4.433   8.147  0.3987  0.0518 -0.4357
  168SAPE  H17R18988   0.754   4.414   8.226  2.7152  2.7609 -1.8456
  168SAPE  H17S18989   0.702   4.366   8.061  1.0529 -0.7567  0.3571
  168SAPE  C21818990   0.546   4.396   8.210  0.5618 -0.3987  0.2017
  168SAPE  H18R18991   0.473   4.429   8.133  0.0741  1.7491  1.4758
  168SAPE  H18S18992   0.509   4.461   8.293 -3.1535  0.0699 -1.6044
  168SAPE  C21918993   0.526   4.249   8.258 -0.0501  0.0721 -0.4512
  168SAPE  H19R18994   0.545   4.198   8.161 -3.3461 -3.1451  0.3662
  168SAPE  H19S18995   0.424   4.226   8.298  0.2478  1.2720  1.1024
  168SAPE  C22018996   0.630   4.211   8.359 -0.1120 -0.1953  0.2212
  168SAPE  H20R18997   0.730   4.216   8.311  0.2658 -2.6324  0.6257
  168SAPE  H20S18998   0.613   4.106   8.392 -0.0588  0.1209  1.3145
  168SAPE  H20T18999   0.618   4.265   8.456  0.4374  0.0814  0.1377
  168SAPE   C3319000   0.234   4.930   7.288  0.1650 -0.3233 -0.3839
  168SAPE   H3X19001   0.158   4.850   7.301 -0.9717  0.5419 -1.4123
  168SAPE   H3Y19002   0.205   4.991   7.199  1.9866  1.5443  0.2143
  168SAPE   C3419003   0.239   5.033   7.399  0.6413  0.1365  0.3110
  168SAPE   H4X19004   0.312   5.115   7.383 -0.7216  1.0901 -1.3585
  168SAPE   H4Y19005   0.272   4.987   7.495  1.5234  1.2077  0.5391
  168SAPE   C3519006   0.102   5.100   7.426  0.0315  0.1518  0.4186
  168SAPE   H5X19007   0.022   5.023   7.431  0.7795 -0.6106  0.9551
  168SAPE   H5Y19008   0.090   5.166   7.338 -0.0630  0.4896  0.6823
  168SAPE   C3619009   0.098   5.177   7.552  0.4289 -0.1460 -0.4181
  168SAPE   H6X19010   0.002   5.232   7.546  0.1410 -0.7964 -2.3430
  168SAPE   H6Y19011   0.184   5.246   7.564 -0.8371  1.2939  0.6929
  168SAPE   C3719012   0.096   5.090   7.681  0.3032 -0.8477 -0.4574
  168SAPE   H7X19013   0.202   5.056   7.673 -0.0086 -1.5983 -1.5103
  168SAPE   H7Y19014   0.034   4.999   7.671 -0.1307 -0.4075 -1.9836
  168SAPE   C3819015   0.071   5.172   7.807 -0.0230  0.2563 -0.3060
  168SAPE   H8X19016  -0.037   5.197   7.807 -0.2383 -0.6358 -0.9130
  168SAPE   H8Y19017   0.126   5.268   7.815  2.9476 -1.2600 -0.9146
  168SAPE   C3919018   0.127   5.090   7.927  0.0656  0.5356 -0.3761
  168SAPE   H9X19019   0.222   5.045   7.892 -1.6873 -1.7554 -2.6490
  168SAPE   H9Y19020   0.053   5.007   7.937  0.9016 -0.2426 -0.4845
  168SAPE  C31019021   0.127   5.181   8.053  0.0005  0.2628  0.4396
  168SAPE  H10X19022   0.218   5.240   8.029  0.7014 -1.5485 -1.7195
  168SAPE  H10Y19023   0.160   5.131   8.146  0.1788  1.1667  0.8660
  168SAPE  C31119024  -0.000   5.258   8.073  0.6354  0.5633 -0.5838
  168SAPE  H11X19025  -0.071   5.173   8.075  0.5021  0.6784 -0.1306
  168SAPE  H11Y19026  -0.036   5.330   7.996  2.2176  1.6477 -0.3619
  168SAPE  C31219027  -0.003   5.328   8.211  0.0222  0.3752  0.9454
  168SAPE  H12X19028   0.062   5.418   8.211  2.1358 -1.0606  0.7920
  168SAPE  H12Y19029   0.036   5.264   8.294 -1.2709 -1.6124  0.0809
  168SAPE  C31319030  -0.136   5.383   8.262  0.2947 -0.0826 -0.1293
  168SAPE  H13X19031  -0.160   5.488   8.236 -1.2439  0.5370  3.2115
  168SAPE  H13Y19032  -0.126   5.390   8.373  3.0859  1.3443 -0.3749
  168SAPE  C31419033  -0.252   5.291   8.225 -0.1228 -0.1203 -0.0820
  168SAPE  H14X19034  -0.225   5.184   8.242 -0.8003 -0.2432  0.2149
  168SAPE  H14Y19035  -0.273   5.307   8.117 -4.4961  0.1504  0.6360
  168SAPE  C31519036  -0.387   5.323   8.299  0.2346  0.6443  0.2367
  168SAPE  H15X19037  -0.408   5.428   8.269  0.5025  0.3770 -0.9771
  168SAPE  H15Y19038  -0.376   5.323   8.409 -0.4117  0.7230  0.3067
  168SAPE  C31619039  -0.502   5.228   8.250 -0.0397  0.5510 -0.2507
  168SAPE  H16X19040  -0.472   5.126   8.282 -0.7563 -0.2323 -1.9560
  168SAPE  H16Y19041  -0.511   5.225   8.139 -1.2552 -0.0815 -0.1541
  168SAPE  C31719042  -0.633   5.268   8.315  0.0658  0.5422 -0.5567
  168SAPE  H17X19043  -0.671   5.359   8.265 -0.4368  0.7822  0.2513
  168SAPE  H17Y19044  -0.625   5.288   8.424 -0.3447 -0.3533 -0.3472
  168SAPE  C31819045  -0.733   5.151   8.301 -0.1489  0.2187  0.1324
  168SAPE  H18X19046  -0.715   5.117   8.197  1.9719  0.4040  0.3832
  168SAPE  H18Y19047  -0.836   5.188   8.319 -0.0293 -0.0818  1.5523
  168SAPE  H18Z19048  -0.707   5.062   8.363  0.4641 -0.5748 -1.2035
  169SAPE     N19049   6.747   6.668   6.008  0.3703 -0.6668 -0.1663
  169SAPE   HN119050   6.756   6.685   5.906  0.0309 -2.5464 -0.5377
  169SAPE   HN219051   6.676   6.595   6.028  1.1488 -1.9259 -1.8278
  169SAPE   HN319052   6.699   6.756   6.037 -1.7046 -1.8919  0.3600
  169SAPE   C1219053   6.876   6.630   6.068  0.9235 -0.2594  0.5351
  169SAPE  H12A19054   6.951   6.699   6.025  0.2786 -0.6543 -1.2885
  169SAPE  H12B19055   6.908   6.527   6.043 -0.2789 -0.3059 -0.9155
  169SAPE   C1119056   6.865   6.655   6.215  0.3383 -0.2416 -0.1538
  169SAPE  H11A19057   6.843   6.760   6.240  4.5413  0.5322  1.0713
  169SAPE  H11B19058   6.960   6.631   6.268  1.3373  2.3687 -0.6038
  169SAPE     P19059   6.775   6.459   6.366 -0.0136 -0.3658  0.1045
  169SAPE   O1319060   6.643   6.398   6.389  0.6231 -0.1492  0.5095
  169SAPE   O1419061   6.884   6.370   6.324 -0.3668 -0.1231 -0.2303
  169SAPE   O1219062   6.757   6.569   6.263 -0.4330  0.2769  0.5876
  169SAPE   O1119063   6.819   6.534   6.497  0.4798  0.2167  0.1162
  169SAPE    C119064   6.714   6.600   6.574  0.2018 -0.0265 -0.4535
  169SAPE    HA19065   6.647   6.659   6.508 -1.7051 -0.3618  1.0648
  169SAPE    HB19066   6.652   6.523   6.626  0.1156  0.5471  0.3075
  169SAPE    C219067   6.773   6.686   6.688  0.3372 -0.6111  0.2162
  169SAPE    HS19068   6.824   6.761   6.624 -0.7534 -0.5861 -0.6530
  169SAPE   O2119069   6.859   6.603   6.773  0.2051 -0.3558  0.1691
  169SAPE   C2119070   6.962   6.661   6.813 -0.3994  0.2285  0.5191
  169SAPE   O2219071   7.019   6.761   6.765  0.0290  0.4841  0.0218
  169SAPE   C2219072   7.037   6.602   6.934  0.1982 -0.6068  0.2473
  169SAPE   H2R19073   7.069   6.502   6.899  0.3051 -0.7191  0.6629
  169SAPE   H2S19074   7.124   6.667   6.955 -1.8622  2.7576 -0.7722
  169SAPE    C319075   6.660   6.766   6.766 -0.7350  0.1542 -0.5218
  169SAPE    HX19076   6.662   6.716   6.865  0.5426  1.2689  0.0632
  169SAPE    HY19077   6.563   6.751   6.716 -0.7139  0.9255 -0.8025
  169SAPE   O3119078   6.698   6.904   6.773 -0.3011  0.1618 -0.2055
  169SAPE   C3119079   6.634   6.970   6.868 -0.3933 -0.4895  0.3423
  169SAPE   O3219080   6.533   6.929   6.918  0.1439 -0.2743  0.1445
  169SAPE   C3219081   6.701   7.106   6.898 -0.0719 -0.0237 -0.2082
  169SAPE   H2X19082   6.613   7.171   6.916 -0.6628 -0.8738  0.0623
  169SAPE   H2Y19083   6.745   7.138   6.801 -0.7841  0.1739 -0.4756
  169SAPE   C2319084   6.934   6.584   7.051  0.0617  0.4183  0.4710
  169SAPE   H3R19085   6.992   6.521   7.123 -0.0895 -0.0276  0.2083
  169SAPE   H3S19086   6.846   6.534   7.006 -0.9602  2.4653  0.1070
  169SAPE   C2419087   6.887   6.714   7.128  1.1186 -0.2289  0.6075
  169SAPE   H4R19088   6.830   6.785   7.064 -0.6865  1.3906  3.7402
  169SAPE   H4S19089   6.974   6.773   7.167 -0.1413 -0.9673  5.0880
  169SAPE   C2519090   6.790   6.680   7.236  0.5674  0.6866  0.0577
  169SAPE   H5R19091   6.689   6.657   7.200  0.5809 -0.2575  0.5873
  169SAPE   C2619092   6.813   6.687   7.368 -0.0427  0.0159 -0.4869
  169SAPE   H6R19093   6.734   6.679   7.443  0.0342  0.5373 -0.3466
  169SAPE   C2719094   6.949   6.700   7.423  0.0613  0.0851 -0.0419
  169SAPE   H7R19095   6.958   6.809   7.447 -2.1322  0.2231  0.3719
  169SAPE   H7S19096   7.036   6.671   7.361  0.3548 -0.8264  0.7657
  169SAPE   C2819097   6.975   6.616   7.546 -0.2816 -1.1809  0.8896
  169SAPE   H8R19098   6.975   6.510   7.516  0.9636 -0.3147 -2.7557
  169SAPE   C2919099   6.966   6.645   7.674 -0.7568 -0.5661 -0.1955
  169SAPE   H9R19100   6.976   6.561   7.744 -1.3165 -0.0526  0.5072
  169SAPE  C21019101   6.945   6.777   7.739 -0.1976  0.1395 -0.7737
  169SAPE  H10R19102   6.837   6.803   7.745 -0.7883 -2.3977  1.5187
  169SAPE  H10S19103   6.994   6.860   7.683  0.3575  0.8998  0.7701
  169SAPE  C21119104   7.004   6.781   7.877 -0.6409 -0.7112  0.3075
  169SAPE  H11R19105   7.072   6.697   7.901  4.2705  3.1265  1.6334
  169SAPE  C21219106   6.970   6.874   7.971 -0.2715 -0.2327 -0.5027
  169SAPE  H12R19107   7.026   6.864   8.065 -2.0560 -1.7835  0.4815
  169SAPE  C21319108   6.879   6.995   7.958 -0.0913  0.1555 -0.4027
  169SAPE  H13R19109   6.890   7.045   7.859  2.2619  2.4399  0.8969
  169SAPE  H13S19110   6.908   7.063   8.040 -0.9433 -0.5642  0.5144
  169SAPE  C21419111   6.740   6.938   7.992 -0.0798 -1.0981 -0.2794
  169SAPE  H14R19112   6.674   6.922   7.905  0.4930  1.0518 -1.1944
  169SAPE  C21519113   6.681   6.929   8.110  0.1502 -0.1127 -0.3794
  169SAPE  H15R19114   6.578   6.894   8.121 -0.0757  1.0515  1.6447
  169SAPE  C21619115   6.755   6.954   8.236  0.1099 -0.1006 -0.6512
  169SAPE  H16R19116   6.861   6.984   8.220  0.2021  0.7124  1.2377
  169SAPE  H16S19117   6.756   6.873   8.312  3.0030  0.0176 -0.4529
  169SAPE  C21719118   6.693   7.077   8.300 -0.1556 -0.6350  0.5760
  169SAPE  H17R19119   6.679   7.168   8.238  0.6460 -0.6665  0.3330
  169SAPE  H17S19120   6.754   7.116   8.385 -1.3294  0.6998  0.8501
  169SAPE  C21819121   6.553   7.047   8.352  0.6596  0.0707 -0.0369
  169SAPE  H18R19122   6.550   6.945   8.398  0.5322  0.0647 -0.0555
  169SAPE  H18S19123   6.486   7.021   8.267 -1.4849 -1.8893  2.0771
  169SAPE  C21919124   6.502   7.149   8.451  0.2771 -0.6712 -0.0252
  169SAPE  H19R19125   6.586   7.192   8.508  0.5625 -2.0831  0.6535
  169SAPE  H19S19126   6.429   7.109   8.525  0.1586  0.9133  0.7413
  169SAPE  C22019127   6.421   7.258   8.380  0.4246 -0.0959 -0.5215
  169SAPE  H20R19128   6.374   7.341   8.437 -0.5791  0.3907 -1.9990
  169SAPE  H20S19129   6.326   7.213   8.346  2.0131 -2.7636 -1.7785
  169SAPE  H20T19130   6.471   7.296   8.288 -0.4633 -0.1996 -1.0527
  169SAPE   C3319131   6.796   7.111   7.018  0.4933  0.6939 -0.6490
  169SAPE   H3X19132   6.750   7.050   7.098  2.5334  0.5852  0.5102
  169SAPE   H3Y19133   6.800   7.213   7.062 -1.5927 -0.4436  2.4964
  169SAPE   C3419134   6.938   7.055   7.000 -0.2138  0.6886  0.7103
  169SAPE   H4X19135   7.003   7.116   6.933  0.4059 -2.2671 -1.6092
  169SAPE   H4Y19136   6.938   6.953   6.955  0.4377  0.9441  0.1226
  169SAPE   C3519137   7.022   7.050   7.125  0.6968 -0.7018  0.1411
  169SAPE   H5X19138   6.996   6.981   7.209  1.6600 -1.0158  0.2028
  169SAPE   H5Y19139   7.019   7.152   7.169  1.8012 -1.1474  1.3036
  169SAPE   C3619140   7.166   7.014   7.107 -0.6395 -0.2072 -0.0741
  169SAPE   H6X19141   7.207   7.076   7.025  2.0480 -0.9988  0.5507
  169SAPE   H6Y19142   7.179   6.912   7.064  3.5636  1.1708 -2.7016
  169SAPE   C3719143   7.255   7.035   7.236 -0.2919  0.0793  0.0574
  169SAPE   H7X19144   7.254   7.139   7.273  0.6826  0.2766 -0.4428
  169SAPE   H7Y19145   7.363   7.019   7.216 -0.4966 -2.3605  0.5299
  169SAPE   C3819146   7.228   6.945   7.361  0.0870  0.4054  0.2838
  169SAPE   H8X19147   7.232   6.836   7.342 -2.2067  0.1413  0.9664
  169SAPE   H8Y19148   7.128   6.973   7.400 -0.4153  1.3297 -1.5538
  169SAPE   C3919149   7.328   6.977   7.480 -0.4694  0.8221  0.1776
  169SAPE   H9X19150   7.328   7.087   7.498  0.1089  0.6519  1.3345
  169SAPE   H9Y19151   7.429   6.944   7.448  0.0641  1.3385  1.2702
  169SAPE  C31019152   7.281   6.901   7.608  0.7213 -0.4917  0.9580
  169SAPE  H10X19153   7.280   6.793   7.586  0.6498 -0.7188  2.0263
  169SAPE  H10Y19154   7.182   6.944   7.635  0.5414 -0.4667  0.2618
  169SAPE  C31119155   7.369   6.924   7.731  0.8753 -0.9027 -0.4040
  169SAPE  H11X19156   7.301   6.912   7.818  2.0787  1.0201  0.8776
  169SAPE  H11Y19157   7.414   7.025   7.737 -0.1979 -0.3195 -1.5553
  169SAPE  C31219158   7.476   6.814   7.726 -0.1178  0.1367 -0.5552
  169SAPE  H12X19159   7.523   6.823   7.626 -1.1418 -1.3158 -1.1989
  169SAPE  H12Y19160   7.419   6.720   7.718 -1.3584  0.7347  0.7806
  169SAPE  C31319161   7.578   6.819   7.835 -0.1744  0.6415 -0.2906
  169SAPE  H13X19162   7.628   6.918   7.831 -1.8012  1.4480 -2.2955
  169SAPE  H13Y19163   7.645   6.732   7.818 -2.3850 -1.0349 -0.7861
  169SAPE  C31419164   7.518   6.792   7.980  0.0069 -0.1583  0.3017
  169SAPE  H14X19165   7.447   6.707   7.989 -1.7134  1.3219  1.2459
  169SAPE  H14Y19166   7.468   6.887   8.008  0.6995  0.9616 -1.9834
  169SAPE  C31519167   7.625   6.781   8.085 -0.0719 -0.8884  0.1053
  169SAPE  H15X19168   7.689   6.869   8.059 -1.7965  0.4656  0.2703
  169SAPE  H15Y19169   7.679   6.684   8.078 -1.8499 -1.9203  0.0751
  169SAPE  C31619170   7.555   6.818   8.222 -0.2019  1.0072  0.7939
  169SAPE  H16X19171   7.482   6.739   8.249 -0.1171  0.7930  0.4075
  169SAPE  H16Y19172   7.505   6.917   8.219 -1.3472  0.4231 -0.2295
  169SAPE  C31719173   7.656   6.819   8.337 -0.6442  0.7853  0.6877
  169SAPE  H17X19174   7.605   6.833   8.434  2.7169 -1.3355  2.9688
  169SAPE  H17Y19175   7.727   6.904   8.334 -0.1827  0.3900 -0.7843
  169SAPE  C31819176   7.741   6.686   8.356 -0.5418 -0.3843  0.3714
  169SAPE  H18X19177   7.664   6.608   8.336  0.7026 -1.5872  0.1026
  169SAPE  H18Y19178   7.786   6.672   8.456 -2.1201 -2.3022  0.8885
  169SAPE  H18Z19179   7.822   6.683   8.280 -1.1056 -1.0620 -0.2245
  170SAPE     N19180   0.400   4.320   6.351  0.8041 -0.1787 -0.2566
  170SAPE   HN119181   0.456   4.243   6.310 -0.5749 -0.9408 -0.7687
  170SAPE   HN219182   0.336   4.358   6.279 -1.4392 -1.6521  0.8142
  170SAPE   HN319183   0.462   4.390   6.398 -0.0433  1.7181 -1.8306
  170SAPE   C1219184   0.296   4.267   6.452  0.3507 -0.1812  0.2778
  170SAPE  H12A19185   0.250   4.356   6.500 -1.2157 -1.3725  1.0628
  170SAPE  H12B19186   0.360   4.215   6.527  0.2006 -0.6830  0.0550
  170SAPE   C1119187   0.197   4.173   6.379 -0.3457  0.6884 -0.7107
  170SAPE  H11A19188   0.115   4.139   6.446  0.5375 -1.4989 -0.6618
  170SAPE  H11B19189   0.251   4.078   6.358 -0.3736  0.3799  0.5505
  170SAPE     P19190   0.042   4.356   6.270  0.5509 -0.0064  0.4623
  170SAPE   O1319191   0.123   4.476   6.264 -0.9068  0.4331 -0.5648
  170SAPE   O1419192  -0.053   4.337   6.156 -0.1539  0.1616  0.1937
  170SAPE   O1219193   0.142   4.234   6.263  0.0901  0.2276 -0.2578
  170SAPE   O1119194  -0.045   4.346   6.406  0.4385  0.3484  0.0979
  170SAPE    C119195  -0.051   4.457   6.499  0.3361 -0.0698  0.6146
  170SAPE    HA19196   0.039   4.522   6.499  0.2057  0.1813 -1.6438
  170SAPE    HB19197  -0.141   4.513   6.468 -1.0090 -2.5857 -0.3167
  170SAPE    C219198  -0.076   4.411   6.645 -0.3219  0.4279  0.4718
  170SAPE    HS19199  -0.121   4.491   6.708  1.2254  1.8664 -0.1815
  170SAPE   O2119200   0.051   4.361   6.696  0.2926  0.2568 -0.2255
  170SAPE   C2119201   0.130   4.455   6.750  0.3424  0.2938  1.2377
  170SAPE   O2219202   0.094   4.571   6.766  0.2997  0.1209 -0.1736
  170SAPE   C2219203   0.266   4.391   6.806  0.1848 -0.0452 -0.4883
  170SAPE   H2R19204   0.269   4.293   6.754  1.8592 -1.5796  2.2938
  170SAPE   H2S19205   0.356   4.452   6.786  0.3288  0.9499  2.6193
  170SAPE    C319206  -0.174   4.290   6.648  1.1299 -0.0073  0.2785
  170SAPE    HX19207  -0.143   4.209   6.578  0.5949 -0.7519  0.8882
  170SAPE    HY19208  -0.270   4.327   6.606  1.1326 -0.8413 -0.4872
  170SAPE   O3119209  -0.196   4.234   6.781 -0.1066 -0.0990 -0.1956
  170SAPE   C3119210  -0.278   4.301   6.860  0.2490  0.1525  0.9531
  170SAPE   O3219211  -0.327   4.408   6.836  0.7129 -0.4819  0.7785
  170SAPE   C3219212  -0.306   4.224   6.989 -0.2734 -0.5998  0.8608
  170SAPE   H2X19213  -0.250   4.128   6.982 -0.0421 -0.3985 -0.2227
  170SAPE   H2Y19214  -0.417   4.217   6.989 -0.2922 -1.0281 -1.3224
  170SAPE   C2319215   0.251   4.359   6.956  0.7177  0.4106 -0.3595
  170SAPE   H3R19216   0.310   4.270   6.988  0.6165  0.1894 -0.7805
  170SAPE   H3S19217   0.147   4.325   6.975  0.4560  1.5393  0.3236
  170SAPE   C2419218   0.280   4.467   7.061 -0.6889 -0.2766  0.5005
  170SAPE   H4R19219   0.228   4.447   7.157 -0.5532  0.3216  0.7068
  170SAPE   H4S19220   0.235   4.566   7.037 -2.0303 -1.1456 -0.6907
  170SAPE   C2519221   0.428   4.476   7.080 -1.1527  0.3732  0.2001
  170SAPE   H5R19222   0.491   4.482   6.990 -0.1781  3.3353  0.9502
  170SAPE   C2619223   0.499   4.463   7.198 -0.0825 -0.5909 -0.1538
  170SAPE   H6R19224   0.605   4.485   7.183 -0.4769  1.2314 -0.4757
  170SAPE   C2719225   0.452   4.452   7.339  0.4192 -0.1027 -0.1525
  170SAPE   H7R19226   0.355   4.504   7.340 -0.5713 -1.8694  0.9743
  170SAPE   H7S19227   0.513   4.511   7.411 -1.9788  1.6507  0.5529
  170SAPE   C2819228   0.433   4.307   7.396  0.6304 -0.5543  0.1119
  170SAPE   H8R19229   0.522   4.243   7.393  0.5552 -0.6428 -0.2885
  170SAPE   C2919230   0.321   4.251   7.451  0.1533 -0.1142  0.2636
  170SAPE   H9R19231   0.316   4.143   7.471 -1.0032 -0.3696 -1.1849
  170SAPE  C21019232   0.190   4.330   7.479 -0.1037  0.3263 -0.2863
  170SAPE  H10R19233   0.141   4.358   7.383  2.8289  1.1913 -1.6741
  170SAPE  H10S19234   0.211   4.425   7.532  0.6920 -0.2497  0.4612
  170SAPE  C21119235   0.075   4.257   7.548 -0.9264  0.4569  0.4520
  170SAPE  H11R19236   0.014   4.200   7.476 -1.2258  0.1344  0.9501
  170SAPE  C21219237   0.047   4.244   7.680 -0.3784  0.7241  0.7802
  170SAPE  H12R19238  -0.040   4.183   7.711  0.8420 -1.4565  0.0894
  170SAPE  C21319239   0.133   4.301   7.791  0.0791 -0.0175  0.1299
  170SAPE  H13R19240   0.217   4.367   7.763  0.4328 -0.2593  0.6157
  170SAPE  H13S19241   0.185   4.216   7.840 -0.5506  0.7645  2.2468
  170SAPE  C21419242   0.047   4.388   7.883 -0.3745  0.8745 -0.7768
  170SAPE  H14R19243  -0.009   4.462   7.825 -0.6015  1.4681  0.1675
  170SAPE  C21519244   0.030   4.373   8.018 -0.4084 -0.7801  0.1100
  170SAPE  H15R19245  -0.039   4.442   8.070 -2.3643 -1.3307 -1.5958
  170SAPE  C21619246   0.093   4.269   8.109  0.2542  0.8090  0.6044
  170SAPE  H16R19247   0.193   4.249   8.065 -0.3941  0.9404 -0.9939
  170SAPE  H16S19248   0.040   4.172   8.098  0.3547  0.7827  0.3456
  170SAPE  C21719249   0.114   4.310   8.260 -0.5953 -0.1893  0.3240
  170SAPE  H17R19250   0.133   4.418   8.277 -2.1953 -0.0566  1.5146
  170SAPE  H17S19251   0.204   4.257   8.297  0.4793  2.0897  1.1306
  170SAPE  C21819252  -0.002   4.275   8.362 -0.2821 -0.1785  0.9807
  170SAPE  H18R19253  -0.034   4.169   8.351  2.7213 -0.9877 -1.5021
  170SAPE  H18S19254  -0.090   4.326   8.319  1.8807  2.2942 -0.8596
  170SAPE  C21919255   0.029   4.310   8.511  0.0601  0.1597 -0.3569
  170SAPE  H19R19256  -0.066   4.329   8.566  0.0266  2.4299 -1.1162
  170SAPE  H19S19257   0.102   4.394   8.511 -1.8100  1.8453 -0.1930
  170SAPE  C22019258   0.092   4.182   8.570  0.1167  0.6038  0.3506
  170SAPE  H20R19259   0.120   4.194   8.677  0.7244 -3.0102  0.7285
  170SAPE  H20S19260   0.185   4.148   8.520  0.1038 -1.3597  1.5526
  170SAPE  H20T19261   0.011   4.106   8.566  1.7762 -1.2777  0.5839
  170SAPE   C3319262  -0.278   4.309   7.117 -0.2400  0.2960  0.4987
  170SAPE   H3X19263  -0.315   4.410   7.093 -0.0440  0.3029  0.2230
  170SAPE   H3Y19264  -0.168   4.322   7.120 -0.1031 -0.8979  1.5927
  170SAPE   C3419265  -0.342   4.254   7.245 -0.0837  0.4498  1.1005
  170SAPE   H4X19266  -0.296   4.154   7.260 -1.2250  0.0178  1.8563
  170SAPE   H4Y19267  -0.452   4.241   7.253 -0.5802  4.2882  3.1895
  170SAPE   C3519268  -0.314   4.341   7.363 -0.2485  0.2826 -0.3433
  170SAPE   H5X19269  -0.378   4.432   7.377 -1.2853 -0.3403 -0.8857
  170SAPE   H5Y19270  -0.211   4.379   7.347 -0.2846  0.7415  0.4609
  170SAPE   C3619271  -0.301   4.264   7.495 -0.5559  0.4204 -0.0947
  170SAPE   H6X19272  -0.208   4.205   7.497 -1.7075 -1.4622  1.0052
  170SAPE   H6Y19273  -0.385   4.193   7.509  0.5597 -1.0719 -0.7549
  170SAPE   C3719274  -0.298   4.354   7.620  0.6324  0.0681 -0.0471
  170SAPE   H7X19275  -0.376   4.433   7.612  0.5926  0.0385  0.0474
  170SAPE   H7Y19276  -0.203   4.411   7.616 -0.5293  2.1358 -0.1304
  170SAPE   C3819277  -0.322   4.270   7.745 -0.3459  0.3740 -0.8212
  170SAPE   H8X19278  -0.252   4.183   7.741 -0.2376  0.4104  0.1417
  170SAPE   H8Y19279  -0.425   4.229   7.734  0.1783 -1.1744 -0.3482
  170SAPE   C3919280  -0.315   4.350   7.881  0.4602 -0.9963 -0.2561
  170SAPE   H9X19281  -0.373   4.443   7.867 -0.4513 -1.6340 -0.7903
  170SAPE   H9Y19282  -0.215   4.384   7.915  0.3834 -1.6839  0.7056
  170SAPE  C31019283  -0.365   4.273   8.002 -0.1559 -0.1602 -0.0621
  170SAPE  H10X19284  -0.290   4.195   8.029  0.0094 -0.4469 -1.2851
  170SAPE  H10Y19285  -0.461   4.223   7.982 -1.3339  2.0396 -0.2726
  170SAPE  C31119286  -0.398   4.364   8.125  0.1151  0.4574  0.4526
  170SAPE  H11X19287  -0.479   4.427   8.081  1.1460  0.7944 -1.0470
  170SAPE  H11Y19288  -0.306   4.420   8.151  1.8172 -1.4068 -1.1693
  170SAPE  C31219289  -0.441   4.284   8.249 -0.4031 -0.3703  0.2951
  170SAPE  H12X19290  -0.354   4.224   8.284  0.1807  0.0793 -0.3437
  170SAPE  H12Y19291  -0.516   4.203   8.238  1.5109 -2.3873  1.1707
  170SAPE  C31319292  -0.460   4.381   8.366  0.5562 -0.2582  0.8195
  170SAPE  H13X19293  -0.361   4.432   8.373  0.0059  1.0782 -0.5152
  170SAPE  H13Y19294  -0.476   4.326   8.461 -1.1495  2.0612  1.9774
  170SAPE  C31419295  -0.570   4.488   8.345 -0.1630  0.6811 -0.2789
  170SAPE  H14X19296  -0.668   4.436   8.333 -0.2242  0.5565  0.6572
  170SAPE  H14Y19297  -0.552   4.541   8.250  3.5042 -0.6880 -0.5270
  170SAPE  C31519298  -0.568   4.591   8.461 -0.0551 -0.0870 -0.2625
  170SAPE  H15X19299  -0.476   4.652   8.447  1.1345 -1.6520  0.3999
  170SAPE  H15Y19300  -0.576   4.551   8.565 -1.9366 -1.1829 -0.7847
  170SAPE  C31619301  -0.681   4.691   8.458 -0.3596 -0.0130 -0.4542
  170SAPE  H16X19302  -0.703   4.739   8.360 -0.3056  0.2857 -0.3181
  170SAPE  H16Y19303  -0.635   4.773   8.517 -0.2080 -0.1298 -0.4078
  170SAPE  C31719304  -0.807   4.638   8.529 -0.7516  0.7087 -0.1498
  170SAPE  H17X19305  -0.775   4.612   8.632 -0.9369 -0.7179 -0.4393
  170SAPE  H17Y19306  -0.839   4.538   8.494  2.6493 -1.3452  2.0185
  170SAPE  C31819307  -0.924   4.738   8.526 -0.8685  0.4045 -0.5286
  170SAPE  H18X19308  -1.006   4.709   8.457  0.2151 -0.1331 -1.6152
  170SAPE  H18Y19309  -0.889   4.841   8.503  0.0617 -0.0830 -1.3705
  170SAPE  H18Z19310  -0.973   4.739   8.626 -0.3145 -0.0182 -0.2514
  171SAPE     N19311   1.116   5.534   6.289  0.9645  0.5095  0.7267
  171SAPE   HN119312   1.093   5.583   6.200  0.6413 -0.4009  0.2969
  171SAPE   HN219313   1.047   5.463   6.319 -1.3455  2.8945  1.4467
  171SAPE   HN319314   1.120   5.607   6.363  1.0479  1.7339 -0.4416
  171SAPE   C1219315   1.249   5.462   6.303 -0.2697 -0.1563  0.5696
  171SAPE  H12A19316   1.323   5.536   6.268  0.4897 -1.1663 -0.0205
  171SAPE  H12B19317   1.245   5.373   6.236  0.7974  0.9999 -1.1077
  171SAPE   C1119318   1.277   5.413   6.444 -0.0262  0.1401  0.3601
  171SAPE  H11A19319   1.199   5.340   6.476 -0.3782 -0.1781 -1.1484
  171SAPE  H11B19320   1.267   5.498   6.515 -2.1144 -2.1355  3.0118
  171SAPE     P19321   1.541   5.423   6.466  0.0328 -0.2457  0.0714
  171SAPE   O1319322   1.638   5.332   6.529 -0.3698 -0.1933 -0.2688
  171SAPE   O1419323   1.573   5.478   6.335 -0.2381  0.3114 -0.0361
  171SAPE   O1219324   1.399   5.343   6.458 -0.0150  0.8823  0.6491
  171SAPE   O1119325   1.507   5.539   6.561 -0.3961 -0.2841  0.7478
  171SAPE    C119326   1.583   5.572   6.675  0.4321 -0.1963  0.8175
  171SAPE    HA19327   1.691   5.584   6.650  0.4373 -1.0332  0.4081
  171SAPE    HB19328   1.544   5.669   6.713  0.6613 -0.3921  1.5479
  171SAPE    C219329   1.585   5.476   6.793  0.8287  0.6734  0.3486
  171SAPE    HS19330   1.634   5.377   6.777  0.4697  0.3023  1.4208
  171SAPE   O2119331   1.443   5.465   6.832 -0.4302  0.3940 -0.8097
  171SAPE   C2119332   1.399   5.344   6.858  0.2337  0.3379  0.1324
  171SAPE   O2219333   1.468   5.246   6.877 -0.0465 -0.4711 -0.0240
  171SAPE   C2219334   1.247   5.345   6.859  0.4378  0.7164  0.4623
  171SAPE   H2R19335   1.222   5.431   6.924 -2.6832  0.3788 -0.1519
  171SAPE   H2S19336   1.209   5.377   6.760  1.4216 -0.5560 -0.3677
  171SAPE    C319337   1.664   5.524   6.924  0.8410  0.2554  0.1694
  171SAPE    HX19338   1.619   5.613   6.971  0.0928 -1.1544  2.2410
  171SAPE    HY19339   1.765   5.554   6.887  0.1822 -1.4316 -3.5107
  171SAPE   O3119340   1.671   5.421   7.021 -0.0395  0.2173 -0.0441
  171SAPE   C3119341   1.753   5.323   7.007 -0.7973  0.6743 -0.3961
  171SAPE   O3219342   1.842   5.319   6.927 -0.4197  0.6041  0.5376
  171SAPE   C3219343   1.723   5.213   7.103 -0.3947  0.7485 -0.1282
  171SAPE   H2X19344   1.642   5.148   7.064 -0.4809  1.5692 -1.3467
  171SAPE   H2Y19345   1.699   5.268   7.197 -0.8998  2.0640 -0.9932
  171SAPE   C2319346   1.196   5.211   6.918 -0.4148 -0.0867  0.2525
  171SAPE   H3R19347   1.261   5.185   7.005 -1.1885  0.8423  1.1324
  171SAPE   H3S19348   1.205   5.130   6.843 -0.8110  1.0358 -1.0330
  171SAPE   C2419349   1.053   5.216   6.977  0.3520 -0.0154  0.2946
  171SAPE   H4R19350   1.053   5.285   7.064  1.1235  2.6086 -1.6449
  171SAPE   H4S19351   1.032   5.111   7.008  1.3714 -0.9097 -1.8566
  171SAPE   C2519352   0.953   5.249   6.868  0.2640 -1.3021 -0.1731
  171SAPE   H5R19353   0.959   5.163   6.799  1.2252 -1.0710 -0.3977
  171SAPE   C2619354   0.872   5.359   6.854  0.1774 -0.9127  0.5134
  171SAPE   H6R19355   0.802   5.352   6.769  0.1231 -0.1751  0.4891
  171SAPE   C2719356   0.867   5.479   6.940  0.5483 -0.0457 -0.0053
  171SAPE   H7R19357   0.961   5.480   6.999 -0.4634 -0.3742  1.6723
  171SAPE   H7S19358   0.785   5.447   7.009 -0.4422  0.3451 -0.9654
  171SAPE   C2819359   0.836   5.609   6.871  0.0600  0.2774 -0.0356
  171SAPE   H8R19360   0.889   5.613   6.775  0.6982  0.0153  0.2981
  171SAPE   C2919361   0.745   5.705   6.904 -0.8664 -0.0521 -0.5815
  171SAPE   H9R19362   0.743   5.797   6.845 -2.6295 -0.4031 -1.1565
  171SAPE  C21019363   0.645   5.722   7.019 -0.3016  0.4068 -0.1125
  171SAPE  H10R19364   0.671   5.816   7.073 -0.6118  0.3174  0.2007
  171SAPE  H10S19365   0.668   5.645   7.096  0.9128  0.8233 -0.0380
  171SAPE  C21119366   0.497   5.715   6.987  0.3411 -0.0312  0.3187
  171SAPE  H11R19367   0.469   5.760   6.890  0.2436  0.4318  0.5608
  171SAPE  C21219368   0.400   5.680   7.073 -0.2649  0.0545 -0.1659
  171SAPE  H12R19369   0.297   5.682   7.035  0.2400  0.7524 -1.6039
  171SAPE  C21319370   0.417   5.633   7.217 -0.3392  0.2569  0.7621
  171SAPE  H13R19371   0.382   5.706   7.292 -2.8138 -1.1534  1.0996
  171SAPE  H13S19372   0.523   5.607   7.236 -0.5108 -1.9365 -0.8146
  171SAPE  C21419373   0.329   5.512   7.233 -0.2671  0.6481  0.1868
  171SAPE  H14R19374   0.343   5.436   7.155 -0.3331  0.1207  0.6818
  171SAPE  C21519375   0.227   5.491   7.320  0.2135  0.7515 -0.1647
  171SAPE  H15R19376   0.171   5.397   7.305  1.9949 -0.8908  2.6371
  171SAPE  C21619377   0.166   5.590   7.422  0.4377 -0.0835  0.5800
  171SAPE  H16R19378   0.067   5.626   7.387  1.1848 -0.6555 -2.4486
  171SAPE  H16S19379   0.238   5.674   7.431 -0.5545  0.8733 -0.1818
  171SAPE  C21719380   0.149   5.541   7.563  0.0812  0.1380 -0.9486
  171SAPE  H17R19381   0.250   5.498   7.580 -0.2781 -0.5587 -0.5823
  171SAPE  H17S19382   0.071   5.464   7.583  1.4153 -1.2308 -0.8473
  171SAPE  C21819383   0.117   5.656   7.665 -0.2521  0.4100  0.3916
  171SAPE  H18R19384   0.014   5.689   7.640 -1.6727 -2.5882  1.7558
  171SAPE  H18S19385   0.196   5.734   7.667  0.8243 -0.5971 -0.4993
  171SAPE  C21919386   0.108   5.601   7.806  0.3628 -0.6705  0.5074
  171SAPE  H19R19387   0.046   5.508   7.807 -1.7748  0.6489 -1.1198
  171SAPE  H19S19388   0.052   5.684   7.853  1.6580  1.1244 -1.0060
  171SAPE  C22019389   0.238   5.572   7.882  0.2131 -0.1552  0.0425
  171SAPE  H20R19390   0.298   5.665   7.892  0.1742 -0.3276  2.5905
  171SAPE  H20S19391   0.286   5.497   7.815 -1.7035 -0.3375 -1.1972
  171SAPE  H20T19392   0.220   5.528   7.982 -2.2920 -0.1240 -0.3449
  171SAPE   C3319393   1.844   5.110   7.116  0.7002 -0.0243 -1.1332
  171SAPE   H3X19394   1.937   5.167   7.133  1.2736 -0.2088 -3.2876
  171SAPE   H3Y19395   1.873   5.068   7.017  3.0931  1.1873 -1.0220
  171SAPE   C3419396   1.822   4.985   7.195  0.0276 -0.4366  0.1299
  171SAPE   H4X19397   1.903   4.910   7.186 -0.2731 -0.9750  1.5653
  171SAPE   H4Y19398   1.727   4.932   7.176  0.3694 -1.0783  0.1992
  171SAPE   C3519399   1.810   5.022   7.340 -0.0214 -0.1652 -0.3148
  171SAPE   H5X19400   1.724   5.088   7.360 -0.3422 -1.2158  2.1584
  171SAPE   H5Y19401   1.903   5.073   7.374 -0.9536  1.0828  0.4258
  171SAPE   C3619402   1.786   4.900   7.426 -0.2186 -0.1648  0.1089
  171SAPE   H6X19403   1.887   4.855   7.422  0.4827  1.3915 -1.7271
  171SAPE   H6Y19404   1.707   4.828   7.393  0.2325 -0.1583 -1.0528
  171SAPE   C3719405   1.754   4.948   7.569  0.4337  0.3727  0.3318
  171SAPE   H7X19406   1.648   4.984   7.569 -0.0899 -1.0065 -1.3139
  171SAPE   H7Y19407   1.800   5.047   7.586  1.5993  0.3046 -1.9839
  171SAPE   C3819408   1.792   4.849   7.674  0.2456 -0.5005  0.0708
  171SAPE   H8X19409   1.902   4.840   7.660  0.0879 -2.4540 -0.3046
  171SAPE   H8Y19410   1.743   4.754   7.641  1.9814 -0.5420 -2.6979
  171SAPE   C3919411   1.758   4.907   7.808 -0.0609  0.5562 -0.3544
  171SAPE   H9X19412   1.670   4.974   7.819  1.6534  2.7856  0.5966
  171SAPE   H9Y19413   1.837   4.975   7.845 -1.4909  2.8838 -1.3352
  171SAPE  C31019414   1.764   4.796   7.913  0.5446  0.0089  0.4044
  171SAPE  H10X19415   1.864   4.748   7.915  1.1719  1.0684 -2.1441
  171SAPE  H10Y19416   1.689   4.717   7.892  0.0972 -0.0381  1.9980
  171SAPE  C31119417   1.720   4.829   8.056 -0.0766 -1.1372 -0.2136
  171SAPE  H11X19418   1.632   4.893   8.033  1.0684  1.2134  1.5799
  171SAPE  H11Y19419   1.789   4.885   8.121  1.5915 -2.1476 -1.0551
  171SAPE  C31219420   1.682   4.706   8.141  0.2205  0.8052 -0.3069
  171SAPE  H12X19421   1.774   4.651   8.168  1.1080  2.3862  0.0089
  171SAPE  H12Y19422   1.616   4.645   8.075  0.6085 -1.0791  0.9697
  171SAPE  C31319423   1.608   4.734   8.271 -0.5196 -0.2356 -0.0865
  171SAPE  H13X19424   1.504   4.767   8.252 -0.1680  0.2125 -1.3357
  171SAPE  H13Y19425   1.655   4.817   8.328  0.1057 -0.9204  0.4188
  171SAPE  C31419426   1.599   4.614   8.371  0.3813  0.3670 -0.4708
  171SAPE  H14X19427   1.701   4.578   8.394  0.3602  0.0356 -0.9011
  171SAPE  H14Y19428   1.537   4.533   8.327  0.5609 -0.4516  0.7219
  171SAPE  C31519429   1.539   4.660   8.504 -0.5995 -0.3220  0.4760
  171SAPE  H15X19430   1.443   4.713   8.482  1.5046  3.1324 -1.1433
  171SAPE  H15Y19431   1.609   4.730   8.552  0.2514 -0.5444 -0.4032
  171SAPE  C31619432   1.516   4.538   8.598  0.1314 -0.0402  0.2417
  171SAPE  H16X19433   1.616   4.502   8.630  0.4380  1.8736  1.6401
  171SAPE  H16Y19434   1.466   4.457   8.540 -1.8495  1.0796  0.2827
  171SAPE  C31719435   1.440   4.575   8.729 -0.1493  0.1017  0.8778
  171SAPE  H17X19436   1.335   4.597   8.699 -0.1076 -1.5390 -0.6419
  171SAPE  H17Y19437   1.479   4.674   8.760  0.3398 -0.3732  1.8100
  171SAPE  C31819438   1.455   4.470   8.837 -0.0938 -0.2626 -0.2914
  171SAPE  H18X19439   1.561   4.458   8.865 -0.1456  1.8564  1.0850
  171SAPE  H18Y19440   1.419   4.369   8.808 -1.0515 -0.0421  0.1052
  171SAPE  H18Z19441   1.400   4.497   8.929  0.9167 -1.1965  0.6111
  172SAPE     N19442   1.716   4.096   6.572 -0.2549  0.0850  0.1755
  172SAPE   HN119443   1.652   4.159   6.625  1.4524  0.9711  1.2888
  172SAPE   HN219444   1.775   4.054   6.647  0.1633  0.5352  0.1019
  172SAPE   HN319445   1.782   4.146   6.511 -0.7608 -1.1579 -1.4773
  172SAPE   C1219446   1.648   3.984   6.497 -0.0330  0.7994 -0.0021
  172SAPE  H12A19447   1.605   4.029   6.405 -3.7628 -2.2524  0.0263
  172SAPE  H12B19448   1.565   3.951   6.563  1.4932  2.2034  2.8021
  172SAPE   C1119449   1.741   3.866   6.474 -0.1143 -0.4812 -0.0868
  172SAPE  H11A19450   1.688   3.786   6.417  1.5367  0.1922 -2.7396
  172SAPE  H11B19451   1.762   3.824   6.574 -1.2552  1.9258  1.2690
  172SAPE     P19452   1.968   3.807   6.367  0.2732 -0.2662  0.6680
  172SAPE   O1319453   1.922   3.677   6.412  0.2953  0.4196  0.5862
  172SAPE   O1419454   1.994   3.818   6.217  0.0259  0.3426 -0.0528
  172SAPE   O1219455   1.854   3.909   6.403  0.1975 -0.5025 -0.7196
  172SAPE   O1119456   2.100   3.836   6.446  0.0292 -0.2520  0.0554
  172SAPE    C119457   2.110   3.936   6.540 -0.5139  0.7503 -0.1986
  172SAPE    HA19458   2.217   3.964   6.549 -0.1374 -0.3146 -1.0260
  172SAPE    HB19459   2.041   4.022   6.531 -1.3054  0.1004 -0.5265
  172SAPE    C219460   2.096   3.875   6.683 -0.4731  0.7034 -0.1968
  172SAPE    HS19461   1.993   3.836   6.695 -0.8618  1.4410 -1.0035
  172SAPE   O2119462   2.127   3.967   6.784  0.3114 -0.7311 -0.5711
  172SAPE   C2119463   2.027   4.049   6.812  0.3044  0.1044  0.0743
  172SAPE   O2219464   1.911   4.021   6.769 -0.0652 -0.4366  0.3440
  172SAPE   C2219465   2.073   4.175   6.889 -0.1351 -0.1170  0.6048
  172SAPE   H2R19466   2.142   4.140   6.968 -1.4085  0.5441  2.0659
  172SAPE   H2S19467   2.125   4.247   6.823 -0.3499  1.0129  1.6438
  172SAPE    C319468   2.189   3.751   6.700 -0.3694 -0.1435  0.0371
  172SAPE    HX19469   2.281   3.767   6.640 -0.9085 -0.0113 -0.7668
  172SAPE    HY19470   2.140   3.669   6.644 -1.6409  0.3809  0.3274
  172SAPE   O3119471   2.227   3.717   6.836 -0.1413 -0.4559 -0.2892
  172SAPE   C3119472   2.151   3.627   6.904 -0.3087  0.4804 -0.9981
  172SAPE   O3219473   2.043   3.590   6.867 -0.3529  0.1795 -0.1271
  172SAPE   C3219474   2.220   3.590   7.036 -0.6828  0.2286 -0.1767
  172SAPE   H2X19475   2.173   3.661   7.108  1.5249  1.4734  0.1549
  172SAPE   H2Y19476   2.327   3.619   7.035 -0.5457 -0.2738 -0.4611
  172SAPE   C2319477   1.948   4.243   6.954  0.3282 -0.0536  0.4729
  172SAPE   H3R19478   1.884   4.167   7.003  2.9809 -1.4626  1.9793
  172SAPE   H3S19479   1.892   4.293   6.872 -0.7391 -1.5360  0.2445
  172SAPE   C2419480   1.981   4.360   7.051  0.1747  0.6685 -0.0943
  172SAPE   H4R19481   2.034   4.445   7.001 -1.6774  1.0295 -1.5806
  172SAPE   H4S19482   2.046   4.308   7.124 -1.3581 -2.0863 -0.5815
  172SAPE   C2519483   1.863   4.411   7.130  0.1173 -0.5117 -0.5431
  172SAPE   H5R19484   1.760   4.382   7.103 -1.3024  1.7868  1.9664
  172SAPE   C2619485   1.873   4.499   7.232 -0.3483  0.2191 -0.9205
  172SAPE   H6R19486   1.778   4.539   7.269 -0.1712 -0.0830 -0.1172
  172SAPE   C2719487   2.002   4.566   7.276  0.2367  0.1264 -0.1729
  172SAPE   H7R19488   1.973   4.669   7.308  1.4015  0.4913 -0.2397
  172SAPE   H7S19489   2.071   4.581   7.190  0.5156  1.8797  0.3159
  172SAPE   C2819490   2.075   4.482   7.379 -0.8062  0.1739  0.7621
  172SAPE   H8R19491   2.144   4.405   7.342  0.6968  1.5069  0.6313
  172SAPE   C2919492   2.047   4.482   7.513 -0.6169 -0.5728  0.5679
  172SAPE   H9R19493   2.113   4.426   7.581 -1.9870 -0.4169  2.0762
  172SAPE  C21019494   1.943   4.561   7.581 -0.5544 -0.1371 -0.1023
  172SAPE  H10R19495   1.884   4.623   7.510 -0.2393 -0.6945 -0.8684
  172SAPE  H10S19496   2.000   4.638   7.637  2.3514 -2.4715  0.4186
  172SAPE  C21119497   1.862   4.490   7.685  0.1206  0.2386  0.3498
  172SAPE  H11R19498   1.755   4.485   7.661 -0.1969 -0.8731  1.8240
  172SAPE  C21219499   1.915   4.451   7.805 -0.0510  1.0013 -0.4648
  172SAPE  H12R19500   1.838   4.406   7.869  1.7610 -1.3645  0.2067
  172SAPE  C21319501   2.050   4.468   7.867 -0.3625 -0.2545  0.7515
  172SAPE  H13R19502   2.025   4.551   7.937 -1.3960 -1.5767  1.9950
  172SAPE  H13S19503   2.124   4.506   7.793 -2.3427  0.6411 -0.8644
  172SAPE  C21419504   2.093   4.344   7.948  0.3518  0.0194 -0.3949
  172SAPE  H14R19505   2.155   4.266   7.902 -0.8697 -0.7467 -0.7650
  172SAPE  C21519506   2.060   4.340   8.083  0.2382  0.8371 -0.1928
  172SAPE  H15R19507   2.098   4.258   8.145  1.2500  0.0091 -1.8506
  172SAPE  C21619508   1.968   4.436   8.153  0.8322 -0.4842  0.3058
  172SAPE  H16R19509   1.862   4.431   8.121  0.6903  2.5965  0.0355
  172SAPE  H16S19510   1.999   4.540   8.130 -1.0078 -0.1499 -0.8460
  172SAPE  C21719511   1.958   4.423   8.314 -0.1748 -0.8510  0.4709
  172SAPE  H17R19512   1.917   4.523   8.341 -0.2582 -0.6411 -0.3803
  172SAPE  H17S19513   2.058   4.412   8.360  0.9865 -0.3666 -1.8018
  172SAPE  C21819514   1.854   4.315   8.351 -0.3961  0.0377 -0.1324
  172SAPE  H18R19515   1.873   4.217   8.302 -1.8722  0.4615 -1.6498
  172SAPE  H18S19516   1.758   4.364   8.324 -1.3956 -1.6759  0.1678
  172SAPE  C21919517   1.840   4.293   8.505 -0.2252  1.0704 -0.5162
  172SAPE  H19R19518   1.737   4.252   8.509  0.1932 -0.4195 -3.0739
  172SAPE  H19S19519   1.846   4.394   8.551  2.7311  0.5218  0.5075
  172SAPE  C22019520   1.941   4.198   8.574  0.4006 -0.4355  0.7256
  172SAPE  H20R19521   1.917   4.157   8.675  1.3578 -0.2325  1.0518
  172SAPE  H20S19522   2.039   4.251   8.571 -0.3497  1.1436  2.3538
  172SAPE  H20T19523   1.957   4.113   8.503  0.2565 -0.0503  0.2310
  172SAPE   C3319524   2.201   3.440   7.058 -0.2373 -0.4801 -0.1586
  172SAPE   H3X19525   2.285   3.386   7.009  0.2634  0.5896 -0.5053
  172SAPE   H3Y19526   2.112   3.395   7.010  0.5249 -1.6691 -0.4989
  172SAPE   C3419527   2.208   3.394   7.203 -0.2509  0.1995  0.0616
  172SAPE   H4X19528   2.313   3.380   7.235 -0.0383  0.2633 -0.5816
  172SAPE   H4Y19529   2.169   3.290   7.195 -1.0461  0.5884 -1.7494
  172SAPE   C3519530   2.127   3.480   7.296 -0.4187 -0.1062 -0.3687
  172SAPE   H5X19531   2.024   3.464   7.258 -0.9364  1.5168  0.2936
  172SAPE   H5Y19532   2.158   3.586   7.291 -0.5175 -0.1419 -2.1826
  172SAPE   C3619533   2.124   3.431   7.444 -0.1273  0.1675  0.1469
  172SAPE   H6X19534   2.226   3.449   7.484 -0.8258  1.6995  1.3222
  172SAPE   H6Y19535   2.105   3.321   7.441  0.8551  0.0046 -2.0234
  172SAPE   C3719536   2.022   3.503   7.526  1.2354 -0.2901 -0.3771
  172SAPE   H7X19537   1.923   3.453   7.518  0.7334  0.1389  2.1088
  172SAPE   H7Y19538   2.011   3.601   7.474 -0.8472 -0.5058 -0.4367
  172SAPE   C3819539   2.053   3.532   7.670  0.6192 -0.2302  0.2700
  172SAPE   H8X19540   2.135   3.607   7.674 -0.7600  1.3081  0.8875
  172SAPE   H8Y19541   2.097   3.444   7.721  0.8417 -2.0883 -2.8858
  172SAPE   C3919542   1.929   3.577   7.746 -0.6168  0.0449  0.6902
  172SAPE   H9X19543   1.850   3.498   7.743 -0.4171 -0.1275 -1.7925
  172SAPE   H9Y19544   1.887   3.665   7.694  1.8170  0.5039 -0.6659
  172SAPE  C31019545   1.951   3.615   7.891  0.3940  1.0729  0.4681
  172SAPE  H10X19546   1.852   3.649   7.928  1.3969  2.7847  1.7938
  172SAPE  H10Y19547   2.020   3.703   7.890 -1.1194  2.2941 -0.6029
  172SAPE  C31119548   1.992   3.501   7.978 -0.1824  0.0129  0.4424
  172SAPE  H11X19549   2.081   3.450   7.935  1.1178  1.5815  1.1765
  172SAPE  H11Y19550   1.922   3.414   7.979 -0.9262  0.5517 -1.2910
  172SAPE  C31219551   2.006   3.525   8.133 -0.1531 -0.1704  0.0084
  172SAPE  H12X19552   2.084   3.603   8.144  1.4995 -1.5868 -1.1550
  172SAPE  H12Y19553   2.060   3.439   8.177  2.5420  0.8095 -1.1627
  172SAPE  C31319554   1.880   3.568   8.204  0.0473 -0.1124  0.5059
  172SAPE  H13X19555   1.816   3.483   8.233 -0.0395  0.6504  2.7688
  172SAPE  H13Y19556   1.813   3.632   8.143  3.2088  1.3779 -1.7255
  172SAPE  C31419557   1.917   3.643   8.337  0.1189  0.0055  0.0805
  172SAPE  H14X19558   1.824   3.695   8.369  0.2208 -0.0937  0.5445
  172SAPE  H14Y19559   1.993   3.721   8.316 -0.1961  0.0821 -0.8007
  172SAPE  C31519560   1.961   3.542   8.446  0.2450  0.3334 -0.0976
  172SAPE  H15X19561   2.063   3.509   8.416  0.8227  2.2158 -0.3349
  172SAPE  H15Y19562   1.903   3.448   8.455  1.8121 -0.4723  2.7622
  172SAPE  C31619563   1.964   3.602   8.590  0.4754 -0.0485  0.0883
  172SAPE  H16X19564   1.865   3.642   8.621  0.3680 -0.9996  1.0458
  172SAPE  H16Y19565   2.041   3.678   8.616 -0.7745  0.5434  2.3164
  172SAPE  C31719566   2.017   3.495   8.684 -0.4699  0.4922 -0.3425
  172SAPE  H17X19567   1.971   3.397   8.663  1.3381 -0.2837 -0.9015
  172SAPE  H17Y19568   1.985   3.527   8.786 -0.1628 -0.8574  0.2006
  172SAPE  C31819569   2.168   3.470   8.672  0.1124 -0.2548 -0.4374
  172SAPE  H18X19570   2.194   3.432   8.571  1.2936  2.8280 -1.4189
  172SAPE  H18Y19571   2.193   3.399   8.753  1.1251 -0.4361 -0.8849
  172SAPE  H18Z19572   2.228   3.564   8.681  0.6089 -0.4416 -1.5412
  173SOPE     N19573   4.302   1.613  11.231 -0.0316 -0.3425  0.1393
  173SOPE   HN119574   4.380   1.632  11.298  0.3590 -0.5181 -0.2623
  173SOPE   HN219575   4.213   1.632  11.281  0.8408 -0.2306  1.7289
  173SOPE   HN319576   4.314   1.513  11.206 -0.5677  0.3013 -3.1670
  173SOPE   C1219577   4.310   1.696  11.109  0.0154 -0.0674  0.8290
  173SOPE  H12A19578   4.419   1.705  11.085 -0.2827  1.0741 -0.2262
  173SOPE  H12B19579   4.277   1.799  11.132 -1.4424  0.6217 -3.4393
  173SOPE   C1119580   4.239   1.632  10.989  0.2684 -0.1725  0.6097
  173SOPE  H11A19581   4.298   1.542  10.962  2.2712  1.2051  0.1154
  173SOPE  H11B19582   4.245   1.701  10.902 -0.1285 -1.1086 -0.1819
  173SOPE     P19583   4.015   1.493  10.994 -0.2477 -0.0486 -0.3764
  173SOPE   O1319584   3.889   1.516  11.075  0.1952 -0.0617 -0.2548
  173SOPE   O1419585   4.093   1.366  11.009  0.6878 -0.3098 -0.0167
  173SOPE   O1219586   4.100   1.621  11.015 -0.0011 -0.2219 -0.3742
  173SOPE   O1119587   3.979   1.495  10.835  0.2768  0.1926 -0.3085
  173SOPE    C119588   3.888   1.605  10.802  0.4153  0.5790  0.2505
  173SOPE    HA19589   3.898   1.621  10.692 -0.4572  0.5474  0.1628
  173SOPE    HB19590   3.912   1.695  10.864 -0.4089 -0.7028  2.5478
  173SOPE    C219591   3.742   1.573  10.807  0.5697  0.1442  0.6050
  173SOPE    HS19592   3.717   1.543  10.911 -0.1148  0.4423  0.5317
  173SOPE   O2119593   3.703   1.471  10.708  0.8003 -0.2524 -0.1889
  173SOPE   C2119594   3.574   1.428  10.727 -0.1156 -1.1123 -0.4264
  173SOPE   O2219595   3.504   1.466  10.816 -0.8144  0.1565 -0.3114
  173SOPE   C2219596   3.538   1.327  10.626  0.0283 -0.0809  0.1996
  173SOPE   H2R19597   3.538   1.225  10.671  2.4108 -0.7705 -1.1855
  173SOPE   H2S19598   3.615   1.316  10.547 -0.5450 -1.3231 -0.2221
  173SOPE    C319599   3.655   1.699  10.780  0.1207 -0.5871  0.5230
  173SOPE    HX19600   3.680   1.765  10.865  1.2742 -2.4601  1.7024
  173SOPE    HY19601   3.546   1.690  10.801  0.3882 -3.6972  1.0480
  173SOPE   O3119602   3.686   1.760  10.649  0.3414  0.9439 -0.2927
  173SOPE   C3119603   3.588   1.818  10.580  0.3830  0.1753 -0.6982
  173SOPE   O3219604   3.473   1.840  10.623 -0.0555 -0.5095 -0.1389
  173SOPE   C3219605   3.624   1.826  10.431 -0.3936  0.3612 -0.2863
  173SOPE   H2X19606   3.712   1.893  10.436  2.3893 -2.8349 -2.2900
  173SOPE   H2Y19607   3.536   1.859  10.372 -2.0289 -0.1963  1.7403
  173SOPE   C2319608   3.398   1.369  10.560 -0.0147 -0.1379 -0.1338
  173SOPE   H3R19609   3.412   1.447  10.483 -2.1202 -1.1079 -1.5882
  173SOPE   H3S19610   3.339   1.422  10.637  1.6796 -1.1511  2.0030
  173SOPE   C2419611   3.320   1.245  10.506  0.4136  0.0980 -0.2756
  173SOPE   H4R19612   3.325   1.165  10.583 -0.9268  0.5765  0.3409
  173SOPE   H4S19613   3.211   1.266  10.494 -0.2724 -2.5036  0.7703
  173SOPE   C2519614   3.371   1.200  10.370  0.1037  0.7175 -0.1945
  173SOPE   H5R19615   3.474   1.157  10.374 -0.1506  0.1990  1.3137
  173SOPE   H5S19616   3.314   1.107  10.349  0.7751 -0.2442  1.9392
  173SOPE   C2619617   3.367   1.306  10.261 -0.3486  0.6641  0.2407
  173SOPE   H6R19618   3.270   1.358  10.249 -0.4486  0.0371 -2.3442
  173SOPE   H6S19619   3.452   1.369  10.295  1.0003 -2.2184  2.6442
  173SOPE   C2719620   3.394   1.248  10.114  0.0824 -0.3006  0.0485
  173SOPE   H7R19621   3.465   1.165  10.138  0.7144  0.1637 -0.1893
  173SOPE   H7S19622   3.300   1.199  10.081 -0.8502 -0.0373  2.1437
  173SOPE   C2819623   3.443   1.358  10.020 -0.4162  0.6901  0.5080
  173SOPE   H8R19624   3.357   1.426  10.008  0.3485  1.5358 -0.3236
  173SOPE   H8S19625   3.524   1.414  10.071  1.5885 -0.3754 -1.3550
  173SOPE   C2919626   3.493   1.287   9.891 -0.7054 -0.7890 -0.5161
  173SOPE   H9119627   3.569   1.209   9.904  0.5317  0.3085 -1.0160
  173SOPE  C21019628   3.434   1.309   9.772 -0.1434 -0.3800 -0.0530
  173SOPE  H10119629   3.466   1.253   9.683 -0.1644 -1.2338  0.4612
  173SOPE  C21119630   3.320   1.412   9.746 -0.1719  0.0170 -0.2064
  173SOPE  H11R19631   3.367   1.513   9.745 -0.8352  0.3950  1.7795
  173SOPE  H11S19632   3.240   1.425   9.822 -0.9341  2.5480 -1.3285
  173SOPE  C21219633   3.243   1.383   9.615  0.2145  0.4884  0.1610
  173SOPE  H12R19634   3.157   1.451   9.596  0.1507  0.3450 -0.0731
  173SOPE  H12S19635   3.196   1.282   9.615 -1.3615  1.1172 -2.8004
  173SOPE  C21319636   3.330   1.375   9.489 -0.0154  0.0699 -0.2223
  173SOPE  H13R19637   3.410   1.299   9.502  1.0748  1.1599 -0.3926
  173SOPE  H13S19638   3.360   1.481   9.472 -0.1638  0.4128  1.5035
  173SOPE  C21419639   3.247   1.315   9.370 -0.4793 -0.2278 -0.0728
  173SOPE  H14R19640   3.164   1.387   9.352 -0.6264  0.2247  2.1366
  173SOPE  H14S19641   3.199   1.219   9.396  0.0821 -0.5013 -0.0283
  173SOPE  C21519642   3.328   1.316   9.240 -0.7242  0.8078  0.2622
  173SOPE  H15R19643   3.345   1.419   9.203 -0.2027  1.1104  1.3002
  173SOPE  H15S19644   3.267   1.266   9.162  1.2907  0.1614 -0.9697
  173SOPE  C21619645   3.463   1.258   9.248  0.1305 -0.3377 -1.2741
  173SOPE  H16R19646   3.533   1.304   9.321  0.2133 -0.4896 -1.2572
  173SOPE  H16S19647   3.506   1.272   9.146 -1.4097 -0.6295 -2.0029
  173SOPE  C21719648   3.462   1.100   9.276  0.4713 -0.2390  0.1757
  173SOPE  H17R19649   3.392   1.076   9.359  0.6739 -1.0605  0.1150
  173SOPE  H17S19650   3.563   1.066   9.306 -0.4272 -0.8700  2.6678
  173SOPE  C21819651   3.416   1.027   9.149 -0.1348  0.4189  0.2281
  173SOPE  H18R19652   3.398   0.919   9.164 -0.5726  0.4045 -0.3811
  173SOPE  H18S19653   3.495   1.026   9.071 -0.7674  0.5071 -0.4240
  173SOPE  H18T19654   3.321   1.069   9.111  0.6756  0.1871 -2.2224
  173SOPE   C3319655   3.670   1.699  10.365 -0.5127  0.1807  0.2384
  173SOPE   H3X19656   3.598   1.616  10.380  0.6242 -0.6007  1.6687
  173SOPE   H3Y19657   3.763   1.663  10.415 -0.4119  0.2929  0.1325
  173SOPE   C3419658   3.696   1.724  10.215 -0.1747  0.2598 -0.3411
  173SOPE   H4X19659   3.764   1.642  10.184  1.0786  1.8855 -2.1828
  173SOPE   H4Y19660   3.746   1.822  10.200 -0.3879  0.7675  1.9477
  173SOPE   C3519661   3.571   1.730  10.117 -0.2571  0.1703 -0.5625
  173SOPE   H5X19662   3.479   1.776  10.160 -1.6705 -4.0549  1.5376
  173SOPE   H5Y19663   3.548   1.621  10.115  0.6949 -0.1302  1.7389
  173SOPE   C3619664   3.617   1.789   9.985  0.2191  0.5209  0.2909
  173SOPE   H6X19665   3.722   1.765   9.956 -0.1656 -0.6993 -0.1373
  173SOPE   H6Y19666   3.600   1.899   9.984 -2.9441  0.1175  0.0294
  173SOPE   C3719667   3.530   1.742   9.866 -0.7474 -0.3305 -0.1112
  173SOPE   H7X19668   3.420   1.748   9.882 -0.8424 -1.7189 -0.1230
  173SOPE   H7Y19669   3.562   1.636   9.853  1.0793  0.2735 -0.8472
  173SOPE   C3819670   3.563   1.819   9.734 -0.2774  0.3034 -0.9933
  173SOPE   H8X19671   3.674   1.816   9.731  0.0425 -0.2565  3.8740
  173SOPE   H8Y19672   3.535   1.926   9.741  1.4229  0.6706  1.2101
  173SOPE   C3919673   3.496   1.761   9.608  0.5438  0.6742  0.0664
  173SOPE   H9X19674   3.388   1.781   9.622  0.5090 -0.5009  1.7097
  173SOPE   H9Y19675   3.515   1.652   9.606 -1.8457  0.2003 -2.2345
  173SOPE  C31019676   3.552   1.836   9.488 -0.1072  1.3089 -0.5485
  173SOPE  H10X19677   3.661   1.817   9.481 -0.4183 -2.9715  2.5484
  173SOPE  H10Y19678   3.533   1.945   9.496 -0.6807  1.0703  2.1102
  173SOPE  C31119679   3.482   1.780   9.360 -0.6568 -0.5579  0.2344
  173SOPE  H11X19680   3.372   1.790   9.356 -0.6400 -0.6815 -0.7386
  173SOPE  H11Y19681   3.507   1.672   9.350  0.1479 -0.1999 -2.4271
  173SOPE  C31219682   3.551   1.848   9.247  0.4152 -0.1917 -0.0299
  173SOPE  H12X19683   3.662   1.857   9.253  0.5932 -1.8652 -0.2281
  173SOPE  H12Y19684   3.510   1.950   9.239 -1.4297 -0.7447  1.6508
  173SOPE  C31319685   3.515   1.782   9.114  0.0652 -0.0976 -0.1646
  173SOPE  H13X19686   3.563   1.681   9.105  0.0038 -0.1186 -0.2548
  173SOPE  H13Y19687   3.551   1.846   9.031 -0.9738  1.4495  0.5412
  173SOPE  C31419688   3.366   1.778   9.092 -0.1248  0.2484 -1.2230
  173SOPE  H14X19689   3.315   1.860   9.147  0.7048 -0.3770  0.5648
  173SOPE  H14Y19690   3.326   1.686   9.138  1.6849 -0.1825 -0.3930
  173SOPE  C31519691   3.333   1.753   8.942  0.0607 -0.0676 -0.7090
  173SOPE  H15X19692   3.226   1.722   8.936  0.0238 -0.1001 -0.0204
  173SOPE  H15Y19693   3.399   1.673   8.904 -0.8829 -1.0516 -0.3441
  173SOPE  C31619694   3.365   1.878   8.862  0.0368 -0.3118  0.2064
  173SOPE  H16X19695   3.474   1.886   8.844 -0.0101  0.4509  0.2447
  173SOPE  H16Y19696   3.320   1.968   8.908  2.4889  0.0438  2.1347
  173SOPE  C31719697   3.290   1.864   8.735 -0.1355  0.0576  0.1286
  173SOPE  H17X19698   3.286   1.961   8.679 -0.3582  0.2174  0.4179
  173SOPE  H17Y19699   3.184   1.836   8.754  0.0724 -0.4847  0.5213
  173SOPE  C31819700   3.344   1.777   8.623  0.4699  0.4622  0.2265
  173SOPE  H18X19701   3.342   1.671   8.659  0.1581  0.9886  1.8652
  173SOPE  H18Y19702   3.453   1.794   8.608  1.2719 -0.7303  3.7014
  173SOPE  H18Z19703   3.273   1.775   8.538 -0.5141 -0.4623  1.0356
  174SOPE     N19704   2.473   0.433  11.018 -0.0047 -0.3097 -0.0172
  174SOPE   HN119705   2.396   0.455  11.085 -0.6892 -1.4266 -0.4168
  174SOPE   HN219706   2.499   0.335  11.037  1.4729  0.1437  0.4170
  174SOPE   HN319707   2.546   0.505  11.035  0.4738 -0.1141 -2.6081
  174SOPE   C1219708   2.421   0.458  10.879 -0.2191 -0.2596 -0.2783
  174SOPE  H12A19709   2.336   0.389  10.862 -1.2207  0.8717  0.0181
  174SOPE  H12B19710   2.502   0.446  10.804  0.4837  1.3480  0.1798
  174SOPE   C1119711   2.370   0.602  10.854  0.5521  0.2563 -0.8961
  174SOPE  H11A19712   2.310   0.604  10.761  1.4126  1.9697 -1.4622
  174SOPE  H11B19713   2.458   0.665  10.829 -1.4146  2.5070 -2.5100
  174SOPE     P19714   2.179   0.766  10.947 -0.1254 -0.0593  0.1594
  174SOPE   O1319715   2.197   0.879  11.043 -0.2120 -0.3695  0.0175
  174SOPE   O1419716   2.042   0.697  10.958  0.3745  0.4344 -0.0956
  174SOPE   O1219717   2.292   0.652  10.963 -0.1226 -0.3768 -0.1855
  174SOPE   O1119718   2.187   0.817  10.793  0.4652 -0.4967 -0.1174
  174SOPE    C119719   2.290   0.895  10.743  0.7006 -0.6251  0.1301
  174SOPE    HA19720   2.379   0.830  10.734  1.6208  0.7523 -1.3138
  174SOPE    HB19721   2.307   0.986  10.805  1.8762 -1.2947  0.8134
  174SOPE    C219722   2.269   0.954  10.603 -0.2843 -0.1568  0.5031
  174SOPE    HS19723   2.181   1.020  10.609 -1.5165 -1.6845  0.0181
  174SOPE   O2119724   2.258   0.846  10.513  0.1479  0.2170  0.1253
  174SOPE   C2119725   2.136   0.797  10.505 -0.3767  0.1642  0.1273
  174SOPE   O2219726   2.030   0.852  10.549  0.0219  0.1529  0.6219
  174SOPE   C2219727   2.140   0.670  10.413 -0.0151  0.2307 -0.4122
  174SOPE   H2R19728   2.176   0.584  10.474  0.5008  2.5176  2.6971
  174SOPE   H2S19729   2.216   0.701  10.338  0.6931  0.9857  0.6074
  174SOPE    C319730   2.389   1.038  10.551 -0.1609 -0.1026 -0.3922
  174SOPE    HX19731   2.472   0.964  10.557 -0.3548 -0.4028 -1.2568
  174SOPE    HY19732   2.403   1.124  10.619  1.8325 -2.5388  2.5442
  174SOPE   O3119733   2.358   1.071  10.416  0.1313 -0.7142  0.0489
  174SOPE   C3119734   2.438   1.036  10.321  0.0665 -0.2497  0.1369
  174SOPE   O3219735   2.553   0.996  10.334  0.0144 -0.4391 -0.4781
  174SOPE   C3219736   2.363   1.039  10.181  0.5012 -0.3741 -0.1463
  174SOPE   H2X19737   2.369   1.144  10.145  1.1545 -0.5710 -0.6388
  174SOPE   H2Y19738   2.255   1.029  10.204  0.6562  0.7951  1.2421
  174SOPE   C2319739   2.005   0.634  10.335 -0.2397  0.8899  0.4613
  174SOPE   H3R19740   1.951   0.723  10.295 -3.8344 -1.3944 -0.2233
  174SOPE   H3S19741   1.931   0.585  10.402 -0.0161 -1.3332 -0.8472
  174SOPE   C2419742   2.025   0.542  10.213  0.7145 -0.4018  0.4294
  174SOPE   H4R19743   2.094   0.591  10.140  1.4831  0.9203  1.9801
  174SOPE   H4S19744   2.059   0.443  10.248  0.0744 -1.1922 -1.1014
  174SOPE   C2519745   1.896   0.496  10.144  0.4950 -0.0622  0.2177
  174SOPE   H5R19746   1.823   0.451  10.215  0.5766  1.4125  1.2900
  174SOPE   H5S19747   1.844   0.582  10.097  1.0001  1.0310  1.5495
  174SOPE   C2619748   1.915   0.382  10.038  0.0608  0.7464 -0.0989
  174SOPE   H6R19749   1.979   0.422   9.957  0.3602 -0.4827 -0.4892
  174SOPE   H6S19750   1.978   0.302  10.081  0.2228 -0.4214 -2.3558
  174SOPE   C2719751   1.787   0.331   9.976 -0.4977 -0.2027 -0.5715
  174SOPE   H7R19752   1.744   0.256  10.046 -2.3798  2.6714  1.5762
  174SOPE   H7S19753   1.717   0.416   9.965  1.1476  1.2967  0.2588
  174SOPE   C2819754   1.809   0.249   9.849  0.2580 -0.5758  0.0411
  174SOPE   H8R19755   1.876   0.164   9.877  1.1867  0.5767  1.4648
  174SOPE   H8S19756   1.711   0.202   9.824 -0.1801  0.1507  0.3519
  174SOPE   C2919757   1.858   0.326   9.736 -0.5122  0.1517  0.2712
  174SOPE   H9119758   1.960   0.367   9.744 -1.2680  2.2120  0.1092
  174SOPE  C21019759   1.786   0.363   9.628 -0.1865  0.0524  0.3748
  174SOPE  H10119760   1.843   0.411   9.548 -0.1778 -2.0826 -0.9761
  174SOPE  C21119761   1.642   0.339   9.587  0.1531 -0.3088  0.3825
  174SOPE  H11R19762   1.615   0.446   9.575  1.9844  0.2835  1.0678
  174SOPE  H11S19763   1.575   0.295   9.664  0.2701  0.7761  1.1300
  174SOPE  C21219764   1.615   0.250   9.467  0.2048 -0.3213  0.1814
  174SOPE  H12R19765   1.505   0.261   9.461  0.1700 -1.1049 -0.8533
  174SOPE  H12S19766   1.629   0.142   9.492  1.7793 -0.3215 -0.5651
  174SOPE  C21319767   1.698   0.296   9.344 -0.3078  0.5938 -0.0905
  174SOPE  H13R19768   1.808   0.284   9.361 -0.6261 -2.6718  0.3527
  174SOPE  H13S19769   1.694   0.407   9.347 -0.1072  0.6254  3.1412
  174SOPE  C21419770   1.657   0.233   9.214 -0.2941 -0.1094 -0.3344
  174SOPE  H14R19771   1.546   0.239   9.209 -0.3138  0.2527  0.3585
  174SOPE  H14S19772   1.675   0.124   9.225  0.4091 -0.2905 -2.7931
  174SOPE  C21519773   1.722   0.278   9.081 -0.9642 -0.2166  0.4068
  174SOPE  H15R19774   1.816   0.329   9.113 -0.5613 -1.0834  0.6412
  174SOPE  H15S19775   1.647   0.345   9.034  0.3900 -0.5300 -2.4329
  174SOPE  C21619776   1.748   0.165   8.985  0.0572 -0.0665 -0.7080
  174SOPE  H16R19777   1.652   0.116   8.961  0.5547 -1.1372 -0.5381
  174SOPE  H16S19778   1.823   0.091   9.019  1.3301  1.0894 -0.8872
  174SOPE  C21719779   1.810   0.200   8.850 -0.3619  0.3725  0.2240
  174SOPE  H17R19780   1.916   0.232   8.866  0.7057 -1.5787 -2.2227
  174SOPE  H17S19781   1.759   0.280   8.793 -0.7161  1.1935  1.6599
  174SOPE  C21819782   1.824   0.079   8.763  0.7518 -0.0147 -0.0674
  174SOPE  H18R19783   1.729   0.024   8.775  0.3703  0.5586 -0.4046
  174SOPE  H18S19784   1.905   0.007   8.789  0.2330 -1.8360 -3.0012
  174SOPE  H18T19785   1.841   0.108   8.657 -1.4036 -0.7677 -0.6670
  174SOPE   C3319786   2.414   0.934  10.091 -0.3572  0.3693  0.1225
  174SOPE   H3X19787   2.403   0.833  10.136  0.2918 -0.0056 -0.5324
  174SOPE   H3Y19788   2.521   0.964  10.082 -0.0784 -0.0990  1.6736
  174SOPE   C3419789   2.355   0.931   9.952  0.1105  0.1141  0.6052
  174SOPE   H4X19790   2.245   0.943   9.959  0.0741  0.3383 -0.2274
  174SOPE   H4Y19791   2.379   0.838   9.894  0.1673  0.2684  0.3801
  174SOPE   C3519792   2.413   1.039   9.859  0.8866 -0.3677  0.0295
  174SOPE   H5X19793   2.524   1.039   9.870  0.9350 -2.1920 -0.2683
  174SOPE   H5Y19794   2.378   1.134   9.907 -0.2349  0.0634 -1.5692
  174SOPE   C3619795   2.387   1.044   9.703 -0.7366  0.3371 -0.7975
  174SOPE   H6X19796   2.410   1.146   9.666  0.8989  0.0728 -0.5725
  174SOPE   H6Y19797   2.283   1.017   9.675 -2.3753  1.9147  3.0913
  174SOPE   C3719798   2.480   0.947   9.625  0.2953  0.1907 -0.2734
  174SOPE   H7X19799   2.464   0.848   9.673  0.3727  0.1725 -0.2855
  174SOPE   H7Y19800   2.588   0.971   9.633  0.8461 -2.5983  3.5737
  174SOPE   C3819801   2.434   0.925   9.481  0.2780  0.4776 -0.2027
  174SOPE   H8X19802   2.448   1.023   9.430 -1.4221  1.6286  1.3944
  174SOPE   H8Y19803   2.326   0.897   9.480 -0.3457  2.6257  0.7107
  174SOPE   C3919804   2.525   0.808   9.423  0.1689 -0.2805 -0.0383
  174SOPE   H9X19805   2.509   0.715   9.481 -2.0929  0.3010  0.3807
  174SOPE   H9Y19806   2.630   0.842   9.434  0.1299 -0.3500  0.5954
  174SOPE  C31019807   2.492   0.785   9.274 -0.1758  0.1228 -0.1807
  174SOPE  H10X19808   2.473   0.885   9.227  1.0855  0.4823  0.0399
  174SOPE  H10Y19809   2.392   0.737   9.267 -0.0471 -0.1687 -0.0061
  174SOPE  C31119810   2.594   0.692   9.203 -0.2763 -0.7639 -1.0697
  174SOPE  H11X19811   2.580   0.596   9.257  0.6897 -0.2701  0.0969
  174SOPE  H11Y19812   2.693   0.734   9.230 -1.7573  1.9878  0.5799
  174SOPE  C31219813   2.568   0.652   9.056 -0.7943  0.1758  0.1043
  174SOPE  H12X19814   2.555   0.737   8.986 -1.6858  1.0342  1.2765
  174SOPE  H12Y19815   2.476   0.590   9.054 -1.0136  0.3746  2.0998
  174SOPE  C31319816   2.685   0.567   9.004 -0.0901  0.7982  0.2240
  174SOPE  H13X19817   2.683   0.468   9.054 -1.7043  0.2616 -0.8313
  174SOPE  H13Y19818   2.779   0.625   9.012  0.4357  0.3394 -1.8032
  174SOPE  C31419819   2.657   0.530   8.858  0.2248 -0.3005  0.3214
  174SOPE  H14X19820   2.679   0.618   8.795  0.9067 -0.7286 -0.0510
  174SOPE  H14Y19821   2.552   0.504   8.834 -0.6444  1.1679  2.2101
  174SOPE  C31519822   2.754   0.425   8.805  0.1346  0.2153  0.1445
  174SOPE  H15X19823   2.751   0.330   8.862  0.6791 -0.2966 -0.6628
  174SOPE  H15Y19824   2.859   0.460   8.807  0.8530 -1.7708 -0.3202
  174SOPE  C31619825   2.722   0.390   8.665 -0.1211 -0.6507 -0.1850
  174SOPE  H16X19826   2.739   0.469   8.589  2.0294 -1.8894 -1.0984
  174SOPE  H16Y19827   2.614   0.366   8.655  0.0591 -0.7250 -2.3642
  174SOPE  C31719828   2.803   0.270   8.610  0.4388 -0.1826 -0.2722
  174SOPE  H17X19829   2.785   0.178   8.671 -1.3123 -2.1215 -3.4240
  174SOPE  H17Y19830   2.912   0.291   8.612  0.2402  1.2678 -2.1618
  174SOPE  C31819831   2.757   0.228   8.467 -0.7392 -0.3194 -0.6534
  174SOPE  H18X19832   2.824   0.153   8.420 -0.3982 -1.3488  1.3806
  174SOPE  H18Y19833   2.737   0.319   8.405 -0.1408  0.2029 -0.0929
  174SOPE  H18Z19834   2.659   0.177   8.478 -1.4501  1.3834  1.5191
  175SOPE     N19835   5.082   1.845  10.982  0.4019  0.0439  0.7316
  175SOPE   HN119836   5.170   1.831  11.036  0.8898 -0.0490 -0.0703
  175SOPE   HN219837   5.035   1.752  10.976  1.1466 -0.2592 -1.0983
  175SOPE   HN319838   5.102   1.858  10.881  0.1252  2.1163  0.9130
  175SOPE   C1219839   4.980   1.946  11.021 -0.7452 -0.4851 -0.0605
  175SOPE  H12A19840   5.047   2.035  11.022  1.5660 -2.1227 -1.0687
  175SOPE  H12B19841   4.952   1.928  11.127  1.5707 -1.3064  0.4514
  175SOPE   C1119842   4.873   1.965  10.909  0.3166  0.0583  0.1280
  175SOPE  H11A19843   4.793   2.029  10.951 -1.1414 -1.1540 -0.6949
  175SOPE  H11B19844   4.827   1.870  10.875  2.1310 -0.6338 -0.5702
  175SOPE     P19845   4.992   1.961  10.661 -0.0594  0.5467 -0.4146
  175SOPE   O1319846   5.055   1.836  10.705  0.1012 -0.2475 -0.2105
  175SOPE   O1419847   5.070   2.062  10.589 -0.1776  0.1943  0.7019
  175SOPE   O1219848   4.929   2.033  10.789 -0.3071 -0.2419  0.0831
  175SOPE   O1119849   4.869   1.928  10.581 -0.0191  0.3136  0.1564
  175SOPE    C119850   4.758   2.032  10.567 -0.3546  0.7874 -0.6432
  175SOPE    HA19851   4.789   2.138  10.580 -0.1144  0.7613 -1.0056
  175SOPE    HB19852   4.677   2.004  10.638  0.8628 -0.3090  0.3690
  175SOPE    C219853   4.693   2.035  10.425  0.1554 -0.5746  0.5418
  175SOPE    HS19854   4.608   2.107  10.432  0.2010 -0.5313  0.6532
  175SOPE   O2119855   4.653   1.907  10.379  0.6856 -0.3522  0.1275
  175SOPE   C2119856   4.523   1.899  10.333  0.4037  0.2096 -0.0871
  175SOPE   O2219857   4.432   1.977  10.349 -0.2076  0.5241 -0.3884
  175SOPE   C2219858   4.504   1.763  10.262  0.0633  0.2765  0.4137
  175SOPE   H2R19859   4.397   1.737  10.276  0.1925  0.1630  1.2346
  175SOPE   H2S19860   4.559   1.690  10.323 -1.1986 -0.6731  0.4602
  175SOPE    C319861   4.809   2.086  10.333 -0.1422  0.3263 -0.2219
  175SOPE    HX19862   4.902   2.026  10.349 -0.3927 -0.7715 -2.4713
  175SOPE    HY19863   4.829   2.188  10.372 -1.3448 -0.6177  3.2605
  175SOPE   O3119864   4.772   2.087  10.193  0.1831 -0.4566 -0.1132
  175SOPE   C3119865   4.872   2.113  10.115  0.0098 -0.3309 -0.1662
  175SOPE   O3219866   4.977   2.153  10.157 -0.2388 -0.6747 -0.0226
  175SOPE   C3219867   4.827   2.071   9.973 -0.3798 -0.4506 -0.1253
  175SOPE   H2X19868   4.718   2.092   9.965 -0.2890  0.7236  1.2270
  175SOPE   H2Y19869   4.821   1.961   9.962 -1.5340 -0.3182 -1.0105
  175SOPE   C2319870   4.543   1.777  10.114 -0.2616  0.3094  1.1330
  175SOPE   H3R19871   4.544   1.669  10.086  2.0426  0.9254 -1.6243
  175SOPE   H3S19872   4.648   1.813  10.108  0.0238 -0.4783  1.3018
  175SOPE   C2419873   4.440   1.856  10.032 -0.3202 -0.6509 -0.3971
  175SOPE   H4R19874   4.335   1.829  10.058 -0.0667  0.7808  2.5242
  175SOPE   H4S19875   4.451   1.965  10.050  0.8230 -0.4386 -2.1631
  175SOPE   C2519876   4.451   1.839   9.880 -0.3288  0.1654 -0.5050
  175SOPE   H5R19877   4.366   1.891   9.832 -1.1488  0.1533  0.8749
  175SOPE   H5S19878   4.546   1.881   9.840  1.6328  0.1179  3.5892
  175SOPE   C2619879   4.450   1.696   9.833 -0.0899 -0.0961 -0.0947
  175SOPE   H6R19880   4.520   1.624   9.882 -0.5358  0.0311  0.7459
  175SOPE   H6S19881   4.358   1.652   9.876 -0.7941  0.7116 -0.7508
  175SOPE   C2719882   4.472   1.672   9.685  0.2220  0.0900 -0.1467
  175SOPE   H7R19883   4.546   1.741   9.640 -0.0365 -0.8696 -2.1437
  175SOPE   H7S19884   4.516   1.572   9.662 -1.2210 -0.1420 -2.1723
  175SOPE   C2819885   4.343   1.686   9.607  0.2011  0.1209 -0.1440
  175SOPE   H8R19886   4.272   1.610   9.646 -0.3384  1.4078  1.4988
  175SOPE   H8S19887   4.300   1.787   9.622  2.3096  1.1047 -0.3451
  175SOPE   C2919888   4.353   1.662   9.454  0.3957  0.2793 -0.1889
  175SOPE   H9119889   4.349   1.558   9.420  0.1473  0.4379 -0.6477
  175SOPE  C21019890   4.360   1.765   9.363 -0.1914  0.7923 -0.6796
  175SOPE  H10119891   4.363   1.741   9.256 -0.2550  1.6348 -0.8769
  175SOPE  C21119892   4.378   1.906   9.404  0.2240 -0.1599  0.6559
  175SOPE  H11R19893   4.326   1.916   9.502 -1.0768  0.4280 -0.0850
  175SOPE  H11S19894   4.321   1.978   9.343 -1.4039 -0.8610  1.3065
  175SOPE  C21219895   4.523   1.967   9.408 -0.2111  0.6785  0.3927
  175SOPE  H12R19896   4.565   1.968   9.305 -2.0105 -1.7439 -0.4638
  175SOPE  H12S19897   4.590   1.906   9.472  2.8181  0.6573 -2.4886
  175SOPE  C21319898   4.525   2.103   9.469  0.5906 -0.3393  0.1585
  175SOPE  H13R19899   4.442   2.156   9.416  4.0653  3.8495 -1.7038
  175SOPE  H13S19900   4.622   2.155   9.456  1.9095 -1.8928  2.9960
  175SOPE  C21419901   4.474   2.112   9.613  0.6358  0.4119 -0.4381
  175SOPE  H14R19902   4.549   2.076   9.686  1.9115  0.8885 -1.4747
  175SOPE  H14S19903   4.380   2.053   9.623  1.3778 -0.7930 -0.4773
  175SOPE  C21519904   4.454   2.262   9.667  0.4073 -0.4909 -0.2254
  175SOPE  H15R19905   4.381   2.302   9.593 -0.7440  0.3370  1.3031
  175SOPE  H15S19906   4.548   2.320   9.672  0.7987 -1.2222  2.0120
  175SOPE  C21619907   4.383   2.272   9.801 -0.3049 -0.6681 -0.3485
  175SOPE  H16R19908   4.297   2.203   9.809  0.5796 -1.6094  2.1842
  175SOPE  H16S19909   4.355   2.379   9.811  0.5439 -0.2443 -2.1020
  175SOPE  C21719910   4.472   2.250   9.926 -0.3343 -0.2056 -0.5158
  175SOPE  H17R19911   4.551   2.328   9.935  0.6245 -1.2908  0.7829
  175SOPE  H17S19912   4.518   2.151   9.904 -1.9573 -1.3012  0.7873
  175SOPE  C21819913   4.393   2.252  10.054  0.0887 -0.3290 -0.2030
  175SOPE  H18R19914   4.338   2.347  10.068 -1.0632 -1.0837  0.6404
  175SOPE  H18S19915   4.459   2.249  10.144 -1.8085  1.0097  1.3283
  175SOPE  H18T19916   4.315   2.173  10.062  1.9816 -2.1256  3.7498
  175SOPE   C3319917   4.893   2.150   9.862 -0.4224 -0.4334 -0.3964
  175SOPE   H3X19918   4.990   2.196   9.890 -0.2207 -0.3289 -1.2628
  175SOPE   H3Y19919   4.825   2.230   9.826  1.9315  0.7787 -2.3962
  175SOPE   C3419920   4.928   2.044   9.757 -0.0528 -0.6342 -0.8484
  175SOPE   H4X19921   4.838   1.994   9.717  1.5097 -0.5627 -4.9528
  175SOPE   H4Y19922   5.008   1.976   9.793  0.8056 -0.4455 -2.3158
  175SOPE   C3519923   4.983   2.102   9.625  0.2127  0.3290 -0.3387
  175SOPE   H5X19924   5.075   2.162   9.640  0.6895  0.3367 -2.9285
  175SOPE   H5Y19925   4.913   2.174   9.579  1.2116  1.4816 -0.1065
  175SOPE   C3619926   5.021   1.996   9.521 -0.0977  0.6326 -0.4980
  175SOPE   H6X19927   4.944   1.922   9.490 -1.3668  1.8570 -0.3593
  175SOPE   H6Y19928   5.098   1.936   9.575  0.2351 -0.2451 -1.9152
  175SOPE   C3719929   5.090   2.046   9.394  0.1121  0.2094  0.1192
  175SOPE   H7X19930   5.165   1.976   9.352  0.7777  1.4978 -0.9091
  175SOPE   H7Y19931   5.156   2.129   9.429  2.1769 -1.1788 -0.2961
  175SOPE   C3819932   4.990   2.091   9.282  0.2524 -0.1343 -0.1650
  175SOPE   H8X19933   4.931   2.176   9.323  1.7923  0.4324  0.9632
  175SOPE   H8Y19934   4.922   2.003   9.276 -1.1655  0.8477  0.7684
  175SOPE   C3919935   5.050   2.136   9.153 -0.4115  0.2033 -0.0386
  175SOPE   H9X19936   4.975   2.164   9.076 -1.8523 -0.4918  1.0739
  175SOPE   H9Y19937   5.116   2.056   9.114 -0.8062 -0.7259  1.1767
  175SOPE  C31019938   5.149   2.259   9.161 -0.0825 -0.8403 -0.0365
  175SOPE  H10X19939   5.218   2.238   9.245  0.2075 -1.5668 -0.4497
  175SOPE  H10Y19940   5.086   2.351   9.161  1.2615  0.1278 -1.5273
  175SOPE  C31119941   5.236   2.263   9.033  0.2133  0.5444  0.1074
  175SOPE  H11X19942   5.286   2.165   9.021 -1.4518 -0.3266  0.0547
  175SOPE  H11Y19943   5.314   2.341   9.046 -0.8407  1.6974 -0.2599
  175SOPE  C31219944   5.166   2.302   8.901 -0.0830  0.4753 -0.1317
  175SOPE  H12X19945   5.060   2.270   8.906 -0.1459  0.9054  2.0878
  175SOPE  H12Y19946   5.211   2.252   8.812 -1.5014  0.2656 -0.7547
  175SOPE  C31319947   5.164   2.448   8.880 -0.1793  0.0948  0.0671
  175SOPE  H13X19948   5.270   2.474   8.858  0.5277 -3.8175 -2.1088
  175SOPE  H13Y19949   5.131   2.499   8.973  2.0339  1.4130  0.2058
  175SOPE  C31419950   5.070   2.503   8.771  0.6951 -0.1650 -0.7852
  175SOPE  H14X19951   5.055   2.612   8.787 -0.0058 -0.4148  0.4037
  175SOPE  H14Y19952   4.973   2.451   8.782  1.5310 -1.7656 -0.7568
  175SOPE  C31519953   5.121   2.494   8.630 -0.3447 -0.4469  1.2509
  175SOPE  H15X19954   5.116   2.390   8.590 -3.5784 -0.2607  0.8936
  175SOPE  H15Y19955   5.225   2.524   8.606 -2.0133  3.6462 -2.1796
  175SOPE  C31619956   5.032   2.575   8.530 -0.6602  0.1230 -0.1697
  175SOPE  H16X19957   5.024   2.680   8.566  0.5209 -0.0359  0.6188
  175SOPE  H16Y19958   4.934   2.524   8.545 -0.4673 -0.2308 -0.1083
  175SOPE  C31719959   5.065   2.567   8.378  0.2491 -1.0289 -0.3538
  175SOPE  H17X19960   5.115   2.468   8.370  1.9222 -0.4346  1.8304
  175SOPE  H17Y19961   5.151   2.636   8.368  1.3515 -2.4687 -1.2541
  175SOPE  C31819962   4.950   2.582   8.279 -0.3420  0.3126 -0.6964
  175SOPE  H18X19963   4.980   2.576   8.172  0.4831  1.4397 -0.5568
  175SOPE  H18Y19964   4.889   2.674   8.291  0.7532  1.0863 -0.9278
  175SOPE  H18Z19965   4.895   2.488   8.297 -2.1951  1.6667  1.2776
  176SOPE     N19966   4.303   2.528  11.193  1.1651  0.1494  0.3812
  176SOPE   HN119967   4.404   2.525  11.166  1.0449 -2.6812 -0.0643
  176SOPE   HN219968   4.287   2.631  11.196 -0.3776 -0.0567 -0.0911
  176SOPE   HN319969   4.299   2.495  11.291 -1.5217 -1.8574 -0.2740
  176SOPE   C1219970   4.218   2.446  11.087  0.0016  0.0948  0.3813
  176SOPE  H12A19971   4.112   2.436  11.118  0.3950 -0.7232  1.5549
  176SOPE  H12B19972   4.266   2.346  11.077 -1.4180 -0.6251  0.6222
  176SOPE   C1119973   4.200   2.514  10.946  0.4006  0.2071 -0.0263
  176SOPE  H11A19974   4.154   2.436  10.881  0.6411 -0.8480  1.0428
  176SOPE  H11B19975   4.297   2.528  10.893 -0.0492  1.0321 -0.6575
  176SOPE     P19976   4.163   2.777  10.975 -0.3488 -0.0343 -0.2696
  176SOPE   O1319977   4.240   2.776  11.103  0.0008 -0.0316  0.2050
  176SOPE   O1419978   4.058   2.873  10.948 -0.2401 -0.5689 -0.0836
  176SOPE   O1219979   4.112   2.624  10.948  0.4937 -0.6074  0.0396
  176SOPE   O1119980   4.273   2.793  10.863 -0.3277  0.3954  0.1487
  176SOPE    C119981   4.260   2.790  10.728  0.0440  0.1593 -0.2357
  176SOPE    HA19982   4.180   2.720  10.696 -0.5486  0.4392  0.5983
  176SOPE    HB19983   4.354   2.753  10.680 -0.5333  1.2820 -2.3570
  176SOPE    C219984   4.242   2.936  10.678 -0.7377 -0.0734 -0.0968
  176SOPE    HS19985   4.163   2.991  10.733 -1.5377 -0.9900 -0.2965
  176SOPE   O2119986   4.231   2.948  10.531 -0.5687 -0.2486  0.1533
  176SOPE   C2119987   4.106   2.944  10.498  0.0226  0.3404  0.5771
  176SOPE   O2219988   4.011   2.937  10.579  0.3860  0.6335  0.1918
  176SOPE   C2219989   4.090   2.945  10.346 -0.2004  0.0823  0.1342
  176SOPE   H2R19990   4.143   2.855  10.308 -1.9199 -1.0762  0.3973
  176SOPE   H2S19991   4.156   3.026  10.307 -1.0716  0.5653 -0.3582
  176SOPE    C319992   4.365   3.023  10.734 -0.6081 -0.5283  0.0200
  176SOPE    HX19993   4.352   3.037  10.843  1.8207  0.0074  0.3137
  176SOPE    HY19994   4.357   3.124  10.687  0.2652 -0.7904 -0.7410
  176SOPE   O3119995   4.487   2.957  10.700 -0.8404  0.0687  0.1730
  176SOPE   C3119996   4.595   3.040  10.729  0.7399  0.0840 -0.1300
  176SOPE   O3219997   4.588   3.149  10.781 -0.2755 -0.1696  0.1487
  176SOPE   C3219998   4.719   2.967  10.681 -0.2280  0.4332  1.0373
  176SOPE   H2X19999   4.719   2.861  10.714 -1.1044 -0.0303 -0.3684
  176SOPE   H2Y20000   4.799   3.023  10.733  0.8690  1.0660 -1.2206
  176SOPE   C2320001   3.943   2.961  10.295 -0.4486 -0.2326  0.4144
  176SOPE   H3R20002   3.904   3.063  10.317  0.6841  0.6842 -1.5762
  176SOPE   H3S20003   3.873   2.895  10.351 -1.0394 -1.3386 -1.5227
  176SOPE   C2420004   3.935   2.933  10.144 -0.2890  0.1316 -0.5023
  176SOPE   H4R20005   3.967   2.828  10.129  1.1803  0.1544  1.8645
  176SOPE   H4S20006   3.828   2.948  10.117 -0.1937 -1.9459 -2.2637
  176SOPE   C2520007   4.026   3.015  10.042 -0.5860 -0.2870  0.1310
  176SOPE   H5R20008   4.012   3.122  10.068  1.7918  0.2504 -0.5731
  176SOPE   H5S20009   4.134   2.988  10.049 -0.2706  0.9142  0.0927
  176SOPE   C2620010   4.005   2.997   9.889  0.1820  0.1780 -0.3344
  176SOPE   H6R20011   4.028   2.893   9.859  3.3002  0.1452  1.7015
  176SOPE   H6S20012   3.900   3.030   9.871  0.0187 -0.7492 -1.1773
  176SOPE   C2720013   4.077   3.095   9.797 -0.5662 -0.1918  0.1253
  176SOPE   H7R20014   4.019   3.190   9.800 -0.2654 -0.0295  1.1783
  176SOPE   H7S20015   4.173   3.119   9.848  0.5486 -1.2068 -1.4129
  176SOPE   C2820016   4.093   3.048   9.655 -0.3366 -0.4913 -0.5912
  176SOPE   H8R20017   4.174   3.115   9.620 -1.6831  0.7960 -1.3574
  176SOPE   H8S20018   4.124   2.942   9.648 -0.3282 -0.6285  1.0459
  176SOPE   C2920019   3.965   3.076   9.574 -0.4035  0.4383 -0.0730
  176SOPE   H9120020   3.876   3.030   9.619  0.8352 -1.3037  0.6924
  176SOPE  C21020021   3.945   3.150   9.466  0.5746 -0.3647  0.0425
  176SOPE  H10120022   3.840   3.170   9.441 -0.0531 -1.5906  1.5706
  176SOPE  C21120023   4.052   3.223   9.383  0.4021  0.7501 -0.7868
  176SOPE  H11R20024   4.154   3.207   9.423 -0.8870 -0.2694  2.4670
  176SOPE  H11S20025   4.025   3.330   9.397 -0.6167  0.5698 -1.2424
  176SOPE  C21220026   4.039   3.197   9.229  0.7497 -0.1410 -0.5616
  176SOPE  H12R20027   3.933   3.203   9.194  0.1566 -1.8842  0.8012
  176SOPE  H12S20028   4.069   3.091   9.214  0.7623 -0.4460  1.3753
  176SOPE  C21320029   4.121   3.289   9.135  0.2510 -0.4845 -0.5470
  176SOPE  H13R20030   4.227   3.277   9.162  0.0193 -1.5047 -0.0480
  176SOPE  H13S20031   4.101   3.398   9.148  0.5193 -0.3722 -1.0440
  176SOPE  C21420032   4.083   3.270   8.991 -0.3000 -0.7591 -0.1625
  176SOPE  H14R20033   3.977   3.301   8.983  0.6237  2.2650 -2.5073
  176SOPE  H14S20034   4.103   3.163   8.967 -1.1331 -0.8896 -0.2991
  176SOPE  C21520035   4.167   3.353   8.895 -0.6595  0.4253 -0.5449
  176SOPE  H15R20036   4.277   3.341   8.894 -0.6770  0.3294 -1.4111
  176SOPE  H15S20037   4.157   3.462   8.913  3.1586  0.5006  2.2792
  176SOPE  C21620038   4.119   3.338   8.749 -0.2356  0.3733 -0.2171
  176SOPE  H16R20039   4.015   3.371   8.728 -0.2967  0.2182 -0.1589
  176SOPE  H16S20040   4.117   3.230   8.725 -0.6499 -0.1747  2.0832
  176SOPE  C21720041   4.217   3.408   8.650 -0.1609  0.1187 -0.0406
  176SOPE  H17R20042   4.316   3.359   8.646 -1.0768 -1.9844  1.0328
  176SOPE  H17S20043   4.252   3.505   8.689  2.6321 -0.7156 -0.2856
  176SOPE  C21820044   4.157   3.436   8.519  0.9779  0.2856  0.4401
  176SOPE  H18R20045   4.218   3.513   8.467 -0.5654  0.9496 -0.4223
  176SOPE  H18S20046   4.053   3.473   8.527 -0.1780 -1.1123 -4.8124
  176SOPE  H18T20047   4.157   3.354   8.444 -0.6943  0.9266 -0.2890
  176SOPE   C3320048   4.747   2.979  10.531  0.4620 -0.4864 -0.5759
  176SOPE   H3X20049   4.732   3.085  10.500  1.2833  0.1952  1.2333
  176SOPE   H3Y20050   4.682   2.910  10.472  0.4143 -1.7070  0.8374
  176SOPE   C3420051   4.891   2.931  10.490  0.2302 -0.1761  0.0206
  176SOPE   H4X20052   4.887   2.820  10.485 -0.9060 -0.1252 -0.5135
  176SOPE   H4Y20053   4.953   2.964  10.576  0.3936 -1.1417  0.2877
  176SOPE   C3520054   4.947   2.999  10.365  0.9909  0.3105 -0.2392
  176SOPE   H5X20055   5.053   2.975  10.343  1.1012  0.4120  0.1682
  176SOPE   H5Y20056   4.947   3.110  10.378 -0.3753  0.4680 -1.2856
  176SOPE   C3620057   4.867   2.973  10.246 -0.1844 -0.2713  0.3341
  176SOPE   H6X20058   4.779   3.040  10.240 -1.0516 -1.3496  0.7976
  176SOPE   H6Y20059   4.822   2.874  10.268 -0.2020 -0.7388 -1.6092
  176SOPE   C3720060   4.955   2.972  10.118 -0.4395  0.2169 -0.2720
  176SOPE   H7X20061   5.016   2.880  10.129 -0.1208  0.6717  2.9903
  176SOPE   H7Y20062   5.030   3.054  10.115  0.5703 -0.6920 -0.3528
  176SOPE   C3820063   4.874   2.957   9.994  0.3971  0.9113 -0.2553
  176SOPE   H8X20064   4.799   3.039   9.990 -1.0182 -0.3507 -0.7692
  176SOPE   H8Y20065   4.818   2.861  10.005  2.7251 -0.3032  2.1581
  176SOPE   C3920066   4.948   2.945   9.857  0.0998 -0.1370 -0.2889
  176SOPE   H9X20067   5.035   2.876   9.862  0.9937  1.0346  1.4062
  176SOPE   H9Y20068   4.998   3.043   9.841  1.3209 -0.4537  1.2813
  176SOPE  C31020069   4.860   2.932   9.733  0.6939  0.1209  0.0111
  176SOPE  H10X20070   4.769   2.992   9.755  0.8300  0.1001  0.6562
  176SOPE  H10Y20071   4.821   2.828   9.724 -0.3664  0.6160 -1.6832
  176SOPE  C31120072   4.932   2.973   9.606  0.3554  0.1501  0.0270
  176SOPE  H11X20073   5.023   2.915   9.582  0.7381  0.4521  0.7194
  176SOPE  H11Y20074   4.972   3.075   9.623  1.5911 -0.5794  1.8279
  176SOPE  C31220075   4.849   2.971   9.479  0.0681  0.1482 -0.1439
  176SOPE  H12X20076   4.795   3.068   9.469 -1.0653 -0.6157 -1.9679
  176SOPE  H12Y20077   4.777   2.887   9.493  1.9958 -1.3185  1.6584
  176SOPE  C31320078   4.944   2.963   9.360 -0.0132 -0.2375  0.1009
  176SOPE  H13X20079   4.993   2.864   9.369  4.3939  1.7236  0.2423
  176SOPE  H13Y20080   5.025   3.039   9.369  0.2752 -0.2526 -1.9709
  176SOPE  C31420081   4.878   2.961   9.223  0.4713  0.0663 -0.0022
  176SOPE  H14X20082   4.804   3.044   9.228 -1.5679 -1.5720 -1.2109
  176SOPE  H14Y20083   4.809   2.874   9.213  0.2073  0.4470 -1.9251
  176SOPE  C31520084   4.978   2.971   9.108  0.3023  0.0578 -0.6959
  176SOPE  H15X20085   5.064   2.901   9.118  0.3752  0.3984  1.4429
  176SOPE  H15Y20086   5.033   3.063   9.135  1.6160 -1.3413  1.7244
  176SOPE  C31620087   4.919   2.993   8.967  0.7465  0.1938 -0.3197
  176SOPE  H16X20088   4.835   3.063   8.985  0.8323  0.2735 -0.2242
  176SOPE  H16Y20089   4.894   2.895   8.920 -2.3261 -0.2547  1.9016
  176SOPE  C31720090   5.025   3.057   8.877 -0.5006  0.1470  0.2479
  176SOPE  H17X20091   5.102   2.978   8.865 -0.1747  0.1628  1.9224
  176SOPE  H17Y20092   5.059   3.154   8.919  0.2755 -0.3115  0.6996
  176SOPE  C31820093   4.962   3.086   8.742  0.0151  0.0677  0.9001
  176SOPE  H18X20094   4.866   3.143   8.748  0.3146  0.4670  2.4125
  176SOPE  H18Y20095   4.939   2.993   8.686  1.3045  0.2673  0.0076
  176SOPE  H18Z20096   5.032   3.149   8.684  1.7594 -3.1530 -0.7089
  177SOPE     N20097   3.423   0.215  10.878 -0.0624  0.1995  0.1365
  177SOPE   HN120098   3.376   0.123  10.865 -0.2108  0.4664 -1.4424
  177SOPE   HN220099   3.350   0.285  10.857 -1.0033  0.1383  2.8479
  177SOPE   HN320100   3.511   0.226  10.823 -0.3998  0.7581 -0.2926
  177SOPE   C1220101   3.448   0.217  11.023  0.4372 -0.2611  0.4561
  177SOPE  H12A20102   3.473   0.321  11.054  0.3399 -0.2701  0.5680
  177SOPE  H12B20103   3.539   0.159  11.048  0.5453  0.4546  1.8465
  177SOPE   C1120104   3.325   0.169  11.103 -0.0675  0.4178  0.0755
  177SOPE  H11A20105   3.228   0.202  11.060 -0.4812  0.1880  0.8179
  177SOPE  H11B20106   3.323   0.211  11.206  1.7875 -0.5593  0.5540
  177SOPE     P20107   3.257  -0.074  11.014  0.2534  0.1106  0.7090
  177SOPE   O1320108   3.110  -0.045  11.006 -0.1462  0.4382 -0.5624
  177SOPE   O1420109   3.306  -0.205  11.058  0.8709  0.0542  0.1546
  177SOPE   O1220110   3.326   0.024  11.110 -0.4281 -0.2059 -0.5192
  177SOPE   O1120111   3.323  -0.028  10.874  0.2998  0.4202 -0.1009
  177SOPE    C120112   3.358  -0.123  10.776 -0.1466 -0.2454 -0.4782
  177SOPE    HA20113   3.278  -0.200  10.784 -0.5308  0.2792  1.1921
  177SOPE    HB20114   3.460  -0.162  10.795 -0.6813 -1.6842 -0.3485
  177SOPE    C220115   3.356  -0.071  10.631  0.0327 -0.2732 -0.2730
  177SOPE    HS20116   3.371  -0.163  10.569  1.8593 -1.1494  1.3534
  177SOPE   O2120117   3.453   0.037  10.623  0.2785  1.2563 -0.4814
  177SOPE   C2120118   3.564  -0.005  10.569 -0.6582  0.4076 -0.4456
  177SOPE   O2220119   3.606  -0.120  10.558  0.3020  0.0571 -0.2526
  177SOPE   C2220120   3.635   0.114  10.512 -0.1120 -0.0780 -0.5177
  177SOPE   H2R20121   3.609   0.206  10.568 -1.1627  1.2562 -2.9968
  177SOPE   H2S20122   3.585   0.138  10.416 -1.2536  1.5057  0.4220
  177SOPE    C320123   3.217  -0.020  10.584  0.5070  0.6697  0.7663
  177SOPE    HX20124   3.193   0.074  10.638 -0.8929  1.4439 -1.0845
  177SOPE    HY20125   3.136  -0.093  10.606 -1.2059  1.5183 -2.1045
  177SOPE   O3120126   3.207  -0.007  10.435  0.0559  0.4158 -0.1166
  177SOPE   C3120127   3.248   0.117  10.396 -0.1561  0.0635 -0.3282
  177SOPE   O3220128   3.287   0.199  10.473  0.5825  0.4714  0.6573
  177SOPE   C3220129   3.247   0.130  10.249  0.3392  0.0397 -0.0182
  177SOPE   H2X20130   3.201   0.038  10.209  0.5534 -0.1447  0.1620
  177SOPE   H2Y20131   3.354   0.143  10.220  0.1768 -1.6603 -1.5534
  177SOPE   C2320132   3.788   0.092  10.490 -0.2508  0.2402 -0.9922
  177SOPE   H3R20133   3.811  -0.017  10.493  2.0032  0.6870 -0.4719
  177SOPE   H3S20134   3.845   0.137  10.575 -0.2845 -2.3642  0.5332
  177SOPE   C2420135   3.850   0.141  10.360  0.0053 -1.0786  0.0301
  177SOPE   H4R20136   3.814   0.245  10.349 -1.9955 -1.3949  2.5234
  177SOPE   H4S20137   3.958   0.163  10.373 -0.8146  2.0424  2.5909
  177SOPE   C2520138   3.825   0.055  10.235 -0.1224 -0.1215  0.4000
  177SOPE   H5R20139   3.880  -0.038  10.259 -1.0219 -0.2017  2.3829
  177SOPE   H5S20140   3.718   0.025  10.225 -0.2271  0.0613  0.9163
  177SOPE   C2620141   3.883   0.120  10.112 -0.2418 -0.2290 -0.3890
  177SOPE   H6R20142   3.878   0.230  10.130 -4.7387 -0.6863  3.0685
  177SOPE   H6S20143   3.988   0.097  10.085 -0.1900  0.3655 -0.7125
  177SOPE   C2720144   3.803   0.080   9.986 -0.8247  0.2444 -0.3904
  177SOPE   H7R20145   3.786  -0.029   9.995 -0.5126  0.3495  1.8236
  177SOPE   H7S20146   3.706   0.135   9.995 -0.9517 -0.0667  0.1821
  177SOPE   C2820147   3.860   0.115   9.844  0.6345  0.8014  0.2631
  177SOPE   H8R20148   3.896   0.220   9.851  5.9694 -0.8259  2.0857
  177SOPE   H8S20149   3.948   0.051   9.821 -0.4056 -0.7401  0.4323
  177SOPE   C2920150   3.748   0.098   9.749  0.0294  1.1043 -0.1804
  177SOPE   H9120151   3.695   0.004   9.770  2.7751 -0.9194 -1.6590
  177SOPE  C21020152   3.715   0.170   9.637  0.6852 -0.6737 -0.7084
  177SOPE  H10120153   3.624   0.138   9.584  0.2363 -2.0287  0.7872
  177SOPE  C21120154   3.783   0.290   9.584  0.4143  0.6832 -0.4589
  177SOPE  H11R20155   3.812   0.275   9.478 -0.4432  1.1238 -0.7656
  177SOPE  H11S20156   3.884   0.295   9.630 -0.8567  2.7202  2.4165
  177SOPE  C21220157   3.695   0.416   9.613  0.2798 -0.0310 -0.0584
  177SOPE  H12R20158   3.592   0.410   9.573 -0.8921  2.2423  2.2774
  177SOPE  H12S20159   3.747   0.500   9.562  0.1236  0.6596  0.8984
  177SOPE  C21320160   3.683   0.438   9.772  0.1290  0.1401  0.0184
  177SOPE  H13R20161   3.784   0.439   9.817  1.1834  0.3933 -2.2054
  177SOPE  H13S20162   3.632   0.346   9.807  1.5372 -0.8198 -0.3712
  177SOPE  C21420163   3.612   0.573   9.811 -0.7422  0.9239  0.7078
  177SOPE  H14R20164   3.505   0.569   9.780  0.0870 -0.5182 -2.3661
  177SOPE  H14S20165   3.652   0.662   9.758  0.5617 -0.8953 -1.5821
  177SOPE  C21520166   3.614   0.599   9.959  0.2899 -0.0480  0.9213
  177SOPE  H15R20167   3.579   0.703   9.975  2.3653  1.3200 -2.2795
  177SOPE  H15S20168   3.722   0.601   9.987  0.3001 -0.2192  0.8962
  177SOPE  C21620169   3.551   0.494  10.059 -0.1683 -0.3604  0.1419
  177SOPE  H16R20170   3.593   0.392  10.041 -0.4714 -0.6501  1.0110
  177SOPE  H16S20171   3.442   0.489  10.038 -0.1031 -0.8114 -0.1076
  177SOPE  C21720172   3.582   0.496  10.208  0.1840 -0.1312  0.2806
  177SOPE  H17R20173   3.545   0.594  10.246 -1.3297 -0.6992  0.3441
  177SOPE  H17S20174   3.692   0.478  10.215  0.1932 -0.0005  0.4787
  177SOPE  C21820175   3.500   0.389  10.285 -0.0557 -0.0149 -0.1094
  177SOPE  H18R20176   3.530   0.376  10.391 -0.0646 -1.9418 -0.3073
  177SOPE  H18S20177   3.509   0.295  10.226  2.5449 -0.3628  0.6852
  177SOPE  H18T20178   3.395   0.426  10.283 -0.3291 -0.4771  2.5002
  177SOPE   C3320179   3.162   0.249  10.202  0.1378 -0.3796  0.3816
  177SOPE   H3X20180   3.181   0.341  10.260 -3.4998  0.6526  0.1961
  177SOPE   H3Y20181   3.053   0.239  10.224 -0.2540  1.3648 -0.5529
  177SOPE   C3420182   3.198   0.288  10.056 -0.0022  1.4453  0.2618
  177SOPE   H4X20183   3.172   0.202   9.991 -0.5330 -1.1907  3.6641
  177SOPE   H4Y20184   3.305   0.313  10.040 -0.2714  3.2406  1.0705
  177SOPE   C3520185   3.129   0.408  10.009  0.6409  0.3501  0.3315
  177SOPE   H5X20186   3.140   0.493  10.080  2.2929 -1.2855  2.1527
  177SOPE   H5Y20187   3.020   0.396   9.992  0.5773  0.1894  0.8387
  177SOPE   C3620188   3.182   0.455   9.882  0.0884  0.3569  0.4704
  177SOPE   H6X20189   3.281   0.501   9.906 -0.0374 -0.2816  2.2891
  177SOPE   H6Y20190   3.119   0.540   9.848  2.4082  1.2381 -2.0808
  177SOPE   C3720191   3.196   0.350   9.760 -0.0329  0.2862 -0.1966
  177SOPE   H7X20192   3.093   0.318   9.735 -0.1240  0.3202  0.1307
  177SOPE   H7Y20193   3.256   0.264   9.796 -0.0371  0.3425 -0.0505
  177SOPE   C3820194   3.273   0.403   9.641 -0.1476 -0.2127 -0.4452
  177SOPE   H8X20195   3.366   0.449   9.680  1.2282 -0.6669 -2.9549
  177SOPE   H8Y20196   3.223   0.484   9.583 -0.1119  0.2567  0.1769
  177SOPE   C3920197   3.301   0.294   9.538 -0.9476 -0.3902 -0.3737
  177SOPE   H9X20198   3.217   0.225   9.517 -0.1874 -3.0578  4.0331
  177SOPE   H9Y20199   3.375   0.222   9.580 -1.5232 -0.5838  0.3425
  177SOPE  C31020200   3.359   0.356   9.412 -0.2303  0.2939  0.0362
  177SOPE  H10X20201   3.406   0.451   9.447 -3.6630  1.9517  0.5523
  177SOPE  H10Y20202   3.272   0.386   9.350 -1.9067  0.6021  2.3941
  177SOPE  C31120203   3.465   0.267   9.340 -0.1793 -0.0950  0.3773
  177SOPE  H11X20204   3.405   0.179   9.309 -1.1722 -0.2841  2.6548
  177SOPE  H11Y20205   3.544   0.234   9.411 -0.4199 -2.3037 -0.3102
  177SOPE  C31220206   3.541   0.341   9.227 -0.0380  0.2416  0.0901
  177SOPE  H12X20207   3.644   0.359   9.266 -0.2740  0.4674  0.6225
  177SOPE  H12Y20208   3.500   0.442   9.206 -0.2156  0.1318 -0.0959
  177SOPE  C31320209   3.562   0.261   9.099  0.5810 -0.8301 -0.5592
  177SOPE  H13X20210   3.573   0.154   9.128 -2.6422 -0.8523  1.0281
  177SOPE  H13Y20211   3.659   0.300   9.060  0.5954 -0.3337 -0.0439
  177SOPE  C31420212   3.443   0.281   9.003  0.3460  0.0628 -0.7702
  177SOPE  H14X20213   3.457   0.384   8.965 -2.4138  0.2033 -1.6095
  177SOPE  H14Y20214   3.344   0.273   9.052 -0.2776  1.1758 -1.8193
  177SOPE  C31520215   3.446   0.183   8.883 -0.5712  0.0238  0.3123
  177SOPE  H15X20216   3.366   0.195   8.807 -0.2046  0.1091 -0.0653
  177SOPE  H15Y20217   3.445   0.076   8.911  3.1737 -0.7074 -1.6063
  177SOPE  C31620218   3.576   0.192   8.801 -0.0269  1.4098  0.4890
  177SOPE  H16X20219   3.670   0.176   8.858  1.7801  1.3726 -2.3012
  177SOPE  H16Y20220   3.583   0.294   8.756 -0.3686  1.0140 -0.5063
  177SOPE  C31720221   3.571   0.092   8.686  0.7783  0.7168 -0.2344
  177SOPE  H17X20222   3.498   0.122   8.607 -0.6942 -2.2571 -0.1551
  177SOPE  H17Y20223   3.536  -0.008   8.718  0.6941  0.8403  0.0633
  177SOPE  C31820224   3.702   0.058   8.622 -0.3301  0.2414  0.5345
  177SOPE  H18X20225   3.765  -0.006   8.688 -0.7917 -0.3243  0.4458
  177SOPE  H18Y20226   3.763   0.146   8.594  0.1622  0.0495  0.9842
  177SOPE  H18Z20227   3.692  -0.008   8.533  0.3705  0.6335  0.1611
  178SOPE     N20228   1.523   3.240  10.804  0.6677 -0.8722 -0.7019
  178SOPE   HN120229   1.582   3.267  10.886  0.4917  1.2499 -1.2156
  178SOPE   HN220230   1.432   3.290  10.816  0.7047 -0.6799 -1.2115
  178SOPE   HN320231   1.518   3.136  10.802  2.5612 -0.9982 -0.5962
  178SOPE   C1220232   1.603   3.282  10.683  0.5587 -0.0879  0.2045
  178SOPE  H12A20233   1.541   3.259  10.594  1.7883  0.9573 -0.9648
  178SOPE  H12B20234   1.697   3.223  10.685  0.0109 -0.9620  1.7559
  178SOPE   C1120235   1.622   3.438  10.686 -0.0527  0.3165  0.2459
  178SOPE  H11A20236   1.520   3.483  10.683  0.1302  0.7467  0.4593
  178SOPE  H11B20237   1.662   3.484  10.594  0.9288  0.8641  0.9318
  178SOPE     P20238   1.835   3.528  10.796 -0.4778  0.1011 -0.4252
  178SOPE   O1320239   1.900   3.537  10.935  0.6905 -0.0360  0.4400
  178SOPE   O1420240   1.836   3.656  10.721 -0.2798 -0.1552 -0.1526
  178SOPE   O1220241   1.688   3.473  10.810 -0.2685 -0.6088 -0.1907
  178SOPE   O1120242   1.911   3.415  10.716  0.2818 -0.3339 -0.2781
  178SOPE    C120243   2.039   3.450  10.658 -0.4839  0.3426  0.0395
  178SOPE    HA20244   2.104   3.360  10.669  0.1536  0.6841 -0.8476
  178SOPE    HB20245   2.100   3.530  10.704  3.4681 -1.8270 -0.9742
  178SOPE    C220246   2.026   3.478  10.508  0.3805  0.1866 -0.2918
  178SOPE    HS20247   1.973   3.575  10.501  0.5559  0.2206 -1.2609
  178SOPE   O2120248   1.949   3.373  10.445  0.1987  0.5352 -0.0453
  178SOPE   C2120249   1.888   3.405  10.327 -0.0422 -0.9818  0.4356
  178SOPE   O2220250   1.876   3.522  10.291  0.6292  0.3118 -0.6664
  178SOPE   C2220251   1.847   3.284  10.255  0.4525 -0.3547  0.0602
  178SOPE   H2R20252   1.811   3.203  10.322  0.5010 -1.1351 -0.8380
  178SOPE   H2S20253   1.945   3.249  10.215  0.6533  0.4821 -0.1968
  178SOPE    C320254   2.162   3.483  10.444  0.5221  0.4568  0.6612
  178SOPE    HX20255   2.202   3.383  10.472  1.4500  1.3639  2.7172
  178SOPE    HY20256   2.244   3.548  10.482  1.2204 -0.7744  1.3179
  178SOPE   O3120257   2.167   3.496  10.304  0.4860 -0.3943 -0.6123
  178SOPE   C3120258   2.152   3.628  10.263  0.4437 -0.1997  0.0517
  178SOPE   O3220259   2.127   3.721  10.339 -0.0793  0.1228  0.1355
  178SOPE   C3220260   2.175   3.634  10.116 -0.1136 -0.3789 -0.2572
  178SOPE   H2X20261   2.256   3.565  10.084 -0.5215 -0.5938 -0.8323
  178SOPE   H2Y20262   2.220   3.734  10.094 -0.8455  0.0092  0.0058
  178SOPE   C2320263   1.761   3.302  10.131 -0.7851  0.0368  0.2773
  178SOPE   H3R20264   1.764   3.409  10.102  1.5220  1.1630  4.0140
  178SOPE   H3S20265   1.656   3.281  10.163 -1.1663  2.0975  0.5603
  178SOPE   C2420266   1.804   3.204  10.018  0.2632 -0.5418  0.2975
  178SOPE   H4R20267   1.887   3.252   9.962 -0.3203  2.1617  1.5791
  178SOPE   H4S20268   1.853   3.116  10.063  1.5888  1.3652  2.8534
  178SOPE   C2520269   1.693   3.152   9.922  0.4088 -0.0150 -0.4250
  178SOPE   H5R20270   1.722   3.052   9.883  1.2129  0.4889 -1.1709
  178SOPE   H5S20271   1.594   3.155   9.973 -0.4025  0.7430 -1.9982
  178SOPE   C2620272   1.678   3.239   9.804 -0.1535 -0.4599 -0.3235
  178SOPE   H6R20273   1.675   3.343   9.843 -1.1617  1.2739 -4.4511
  178SOPE   H6S20274   1.769   3.228   9.742 -0.6441 -1.1664 -0.9404
  178SOPE   C2720275   1.552   3.227   9.715 -0.2619 -0.2564  0.3863
  178SOPE   H7R20276   1.557   3.132   9.658  0.2243  0.4164 -0.7228
  178SOPE   H7S20277   1.461   3.228   9.779 -1.0922  0.0638 -0.7576
  178SOPE   C2820278   1.538   3.339   9.611  0.6380  0.3416  0.0798
  178SOPE   H8R20279   1.627   3.345   9.544  0.6466  1.8264  0.2071
  178SOPE   H8S20280   1.452   3.319   9.544  0.4332  0.4802  0.2988
  178SOPE   C2920281   1.502   3.468   9.680  0.6238 -0.1876  0.1717
  178SOPE   H9120282   1.529   3.465   9.787  0.1553 -1.5712  0.2780
  178SOPE  C21020283   1.456   3.580   9.627 -0.0041  0.5266  0.3393
  178SOPE  H10120284   1.442   3.668   9.692 -2.1565  0.4529  0.0486
  178SOPE  C21120285   1.410   3.591   9.483  0.1978 -0.2876  0.1762
  178SOPE  H11R20286   1.304   3.625   9.484  0.2058 -0.1192  2.9459
  178SOPE  H11S20287   1.415   3.498   9.423  0.4151 -1.3354  1.7893
  178SOPE  C21220288   1.489   3.701   9.397 -0.1200 -0.5809  0.6743
  178SOPE  H12R20289   1.454   3.802   9.426  1.7051  0.1125  0.5407
  178SOPE  H12S20290   1.455   3.680   9.294 -0.3710  0.7059  0.4798
  178SOPE  C21320291   1.638   3.685   9.397  0.5230  0.3547 -0.2381
  178SOPE  H13R20292   1.676   3.584   9.373  1.3741 -0.0103  2.3963
  178SOPE  H13S20293   1.664   3.699   9.504  1.2890 -2.6797  0.0491
  178SOPE  C21420294   1.715   3.787   9.317 -0.7054 -0.0138 -0.9722
  178SOPE  H14R20295   1.820   3.749   9.322 -0.6554  0.2490  1.7224
  178SOPE  H14S20296   1.722   3.885   9.369 -1.1459 -0.8914  0.8582
  178SOPE  C21520297   1.663   3.809   9.178 -0.4685 -0.0967  0.3885
  178SOPE  H15R20298   1.584   3.888   9.179  0.0147  0.3900  0.2419
  178SOPE  H15S20299   1.599   3.725   9.144 -1.3745  0.8040 -0.2141
  178SOPE  C21620300   1.771   3.835   9.070 -0.2345 -0.0530  0.0922
  178SOPE  H16R20301   1.808   3.730   9.068 -0.2120 -0.0345 -0.7349
  178SOPE  H16S20302   1.849   3.904   9.109  0.4304 -1.3933  1.2514
  178SOPE  C21720303   1.724   3.886   8.938 -0.1323  0.2658  0.3218
  178SOPE  H17R20304   1.676   3.986   8.944 -0.4935  0.0825  0.5582
  178SOPE  H17S20305   1.644   3.816   8.906 -0.9049 -0.5368  3.6887
  178SOPE  C21820306   1.832   3.892   8.840 -0.1570 -0.3182  0.4908
  178SOPE  H18R20307   1.908   3.971   8.856 -0.2321  0.0414 -0.8427
  178SOPE  H18S20308   1.791   3.915   8.740  0.0457 -2.5379 -0.1518
  178SOPE  H18T20309   1.881   3.792   8.832  1.5006  0.5315 -0.4274
  178SOPE   C3320310   2.046   3.614  10.036  0.2857 -0.3766  0.4956
  178SOPE   H3X20311   1.962   3.683  10.059  1.0437  0.1930  1.6871
  178SOPE   H3Y20312   2.007   3.513  10.061 -1.0599  0.0263  0.1057
  178SOPE   C3420313   2.085   3.624   9.887 -0.2960 -0.0049  0.4171
  178SOPE   H4X20314   2.188   3.583   9.874  0.2119  1.8308 -2.1582
  178SOPE   H4Y20315   2.101   3.729   9.855 -1.1772 -0.2385 -0.8571
  178SOPE   C3520316   1.990   3.546   9.796  0.4782  0.7901 -0.2146
  178SOPE   H5X20317   1.888   3.589   9.803  0.4139  0.3410  3.1240
  178SOPE   H5Y20318   1.967   3.444   9.833 -3.5073  1.1502 -1.2304
  178SOPE   C3620319   2.039   3.557   9.651  0.1235  0.1415 -0.1100
  178SOPE   H6X20320   2.141   3.514   9.644 -0.3584 -1.4142  1.4854
  178SOPE   H6Y20321   2.029   3.662   9.617 -0.2900  1.1813  2.8679
  178SOPE   C3720322   1.946   3.470   9.562  0.7297  0.5507  0.0072
  178SOPE   H7X20323   1.842   3.508   9.566  0.0333 -1.3044  2.5662
  178SOPE   H7Y20324   1.947   3.368   9.607 -0.6447  0.3464 -0.3852
  178SOPE   C3820325   1.983   3.456   9.416 -0.1378 -1.0609 -0.6642
  178SOPE   H8X20326   2.091   3.434   9.404  0.0510  0.8060 -3.1518
  178SOPE   H8Y20327   1.973   3.547   9.354  1.7489 -1.0713 -1.0381
  178SOPE   C3920328   1.903   3.353   9.349 -0.0405 -0.1412 -0.1024
  178SOPE   H9X20329   1.799   3.392   9.362 -0.7527 -2.2149  0.9188
  178SOPE   H9Y20330   1.909   3.260   9.411 -1.4475 -0.0392  0.2303
  178SOPE  C31020331   1.935   3.323   9.198  0.5205 -0.7276  0.0231
  178SOPE  H10X20332   1.910   3.218   9.172 -0.4519 -0.1642 -1.3621
  178SOPE  H10Y20333   2.046   3.333   9.191  0.7322 -2.7043  0.0302
  178SOPE  C31120334   1.864   3.416   9.090 -0.1804 -0.4611  0.3861
  178SOPE  H11X20335   1.898   3.383   8.990 -1.2499 -0.9008  0.1562
  178SOPE  H11Y20336   1.906   3.519   9.093 -1.6560  0.2494 -1.4691
  178SOPE  C31220337   1.709   3.424   9.098  0.1953 -0.6464  0.2070
  178SOPE  H12X20338   1.682   3.479   9.191 -0.6238 -0.3250 -0.2138
  178SOPE  H12Y20339   1.687   3.317   9.117 -0.9350 -0.8926 -2.1396
  178SOPE  C31320340   1.642   3.472   8.968  0.2818  0.1015 -0.3903
  178SOPE  H13X20341   1.702   3.428   8.885  3.8759  0.1283  1.9733
  178SOPE  H13Y20342   1.648   3.582   8.958  1.2097  0.2837  1.6715
  178SOPE  C31420343   1.496   3.420   8.953  0.2108 -0.3500  0.7899
  178SOPE  H14X20344   1.499   3.312   8.978  2.3698 -1.6864 -4.0049
  178SOPE  H14Y20345   1.466   3.423   8.846  3.0805 -0.2905 -0.0879
  178SOPE  C31520346   1.401   3.498   9.039  0.1880 -0.4008  0.5919
  178SOPE  H15X20347   1.405   3.604   9.005  0.2269 -0.6047 -0.0442
  178SOPE  H15Y20348   1.434   3.500   9.145  2.6836  1.8244 -0.1070
  178SOPE  C31620349   1.258   3.442   9.037 -0.4511  0.1769  0.5746
  178SOPE  H16X20350   1.267   3.344   9.089 -0.4392 -0.8070 -1.1790
  178SOPE  H16Y20351   1.220   3.415   8.936 -1.4409 -0.9332  1.2063
  178SOPE  C31720352   1.151   3.544   9.082 -0.0574 -0.2584 -0.1953
  178SOPE  H17X20353   1.166   3.640   9.028 -2.4703 -0.1866 -0.8520
  178SOPE  H17Y20354   1.172   3.558   9.190 -0.4199 -0.6558 -0.0702
  178SOPE  C31820355   1.004   3.506   9.059  0.2480  0.8872  0.5425
  178SOPE  H18X20356   0.990   3.512   8.949 -1.3669  3.0149  0.8043
  178SOPE  H18Y20357   0.935   3.579   9.105  0.0656  1.6943 -0.9531
  178SOPE  H18Z20358   0.995   3.401   9.095 -0.1133  0.4514 -0.7654
  179SOPE     N20359   3.676   6.064   6.368  0.0557  0.3940 -0.6743
  179SOPE   HN120360   3.575   6.061   6.344 -0.0755  1.4274 -0.2882
  179SOPE   HN220361   3.733   6.114   6.297 -0.8802 -0.2377 -1.9176
  179SOPE   HN320362   3.712   5.967   6.358 -0.7687  0.2498 -2.5208
  179SOPE   C1220363   3.709   6.128   6.500  0.2229  0.6083  0.0948
  179SOPE  H12A20364   3.644   6.084   6.578 -0.7183  3.9000  1.3574
  179SOPE  H12B20365   3.679   6.234   6.487 -0.2406  0.3706 -0.8456
  179SOPE   C1120366   3.857   6.110   6.535 -0.5542 -0.0475 -0.1977
  179SOPE  H11A20367   3.883   6.003   6.520  0.8433  0.1925  0.3846
  179SOPE  H11B20368   3.854   6.137   6.642 -0.1337 -0.2865 -0.1271
  179SOPE     P20369   4.006   6.321   6.526  0.1010 -0.2653  0.1372
  179SOPE   O1320370   3.898   6.414   6.576 -0.2083  0.8481 -0.2204
  179SOPE   O1420371   4.102   6.376   6.427 -0.5362 -1.2656 -0.3087
  179SOPE   O1220372   3.940   6.203   6.455 -0.2433  0.6910  0.1380
  179SOPE   O1120373   4.091   6.268   6.649  0.2967  0.3206  0.5074
  179SOPE    C120374   4.176   6.147   6.638  0.0741 -0.6076  0.3642
  179SOPE    HA20375   4.280   6.181   6.618 -0.1316 -0.7300 -1.0121
  179SOPE    HB20376   4.142   6.078   6.558 -0.4136  0.7318 -0.6094
  179SOPE    C220377   4.173   6.074   6.776  0.5566 -0.4124  0.9488
  179SOPE    HS20378   4.074   6.024   6.784 -0.6565  1.6709 -0.0464
  179SOPE   O2120379   4.193   6.172   6.880 -0.7363  0.3119 -0.1885
  179SOPE   C2120380   4.084   6.215   6.928 -0.3004  0.1410 -0.2129
  179SOPE   O2220381   3.970   6.207   6.882 -0.7608 -0.1165 -0.7640
  179SOPE   C2220382   4.130   6.288   7.051  0.0668 -0.2502 -0.3296
  179SOPE   H2R20383   4.040   6.328   7.102  0.9302 -2.1306  2.9448
  179SOPE   H2S20384   4.197   6.372   7.023 -1.5611  2.0257  2.1288
  179SOPE    C320385   4.285   5.969   6.787  0.0890  1.1611 -0.1766
  179SOPE    HX20386   4.377   6.031   6.775  0.9370 -0.0643 -0.1462
  179SOPE    HY20387   4.279   5.886   6.713  0.6865 -2.0420  3.0702
  179SOPE   O3120388   4.275   5.894   6.911  0.0963 -0.2013  0.0309
  179SOPE   C3120389   4.392   5.856   6.958  0.0226 -0.8024 -0.7255
  179SOPE   O3220390   4.501   5.887   6.906  0.6959  0.3016  0.0259
  179SOPE   C3220391   4.371   5.783   7.090  0.2018  0.0091  0.6136
  179SOPE   H2X20392   4.262   5.772   7.107 -0.0744  1.8133  0.1643
  179SOPE   H2Y20393   4.399   5.856   7.170  1.6396 -0.9260  1.0069
  179SOPE   C2320394   4.205   6.194   7.149  0.6030  0.0042  0.1252
  179SOPE   H3R20395   4.237   6.245   7.242 -0.7465  0.0449  0.5890
  179SOPE   H3S20396   4.293   6.136   7.114  0.6213 -0.0642  0.2817
  179SOPE   C2420397   4.107   6.093   7.207 -0.0046  0.2049  0.4873
  179SOPE   H4R20398   4.013   6.152   7.219 -1.5165 -1.7820 -0.8698
  179SOPE   H4S20399   4.080   6.014   7.135 -1.2705  2.4429 -1.6603
  179SOPE   C2520400   4.150   6.027   7.342  0.1797 -0.2903 -0.5322
  179SOPE   H5R20401   4.077   5.944   7.359 -0.2077  0.5469  2.5999
  179SOPE   H5S20402   4.254   5.991   7.355  0.1944  0.4958  2.1329
  179SOPE   C2620403   4.134   6.117   7.464 -0.0020  0.1740 -0.0516
  179SOPE   H6R20404   4.209   6.198   7.452 -1.2397  1.2018 -1.1475
  179SOPE   H6S20405   4.030   6.155   7.473  0.1916  0.7566 -0.2542
  179SOPE   C2720406   4.162   6.033   7.598 -0.0117  0.3094  0.4257
  179SOPE   H7R20407   4.161   5.922   7.594 -0.5195  0.2885  0.8852
  179SOPE   H7S20408   4.268   6.051   7.627 -0.8143  0.1579  3.8847
  179SOPE   C2820409   4.065   6.080   7.716 -0.7839 -0.0188 -0.6700
  179SOPE   H8R20410   3.966   6.047   7.678 -1.7148 -0.0751  1.6972
  179SOPE   H8S20411   4.093   6.024   7.807 -1.1209 -0.6361 -0.9427
  179SOPE   C2920412   4.068   6.226   7.746  1.3397 -0.0726  0.7908
  179SOPE   H9120413   4.017   6.289   7.671  1.0492  0.8269  1.7256
  179SOPE  C21020414   4.108   6.285   7.860 -0.0131 -0.4033  0.0849
  179SOPE  H10120415   4.085   6.392   7.872 -1.7236 -0.6587 -0.6254
  179SOPE  C21120416   4.168   6.222   7.982  0.0344  0.4440  0.1492
  179SOPE  H11R20417   4.267   6.269   7.997  0.1178  0.3275 -0.0311
  179SOPE  H11S20418   4.182   6.115   7.957 -0.4094  0.3090  0.4678
  179SOPE  C21220419   4.067   6.225   8.101 -0.4987  0.0884  0.7685
  179SOPE  H12R20420   4.128   6.195   8.189 -0.6006  1.6874  1.4059
  179SOPE  H12S20421   3.995   6.141   8.092 -0.1437 -0.0069 -2.2592
  179SOPE  C21320422   4.002   6.363   8.139 -0.3291  0.0556 -0.1054
  179SOPE  H13R20423   3.932   6.404   8.063 -0.4288  2.1946  1.0642
  179SOPE  H13S20424   4.086   6.436   8.133 -0.1398 -0.2738 -2.1922
  179SOPE  C21420425   3.945   6.355   8.281  0.3582 -0.8562  0.4232
  179SOPE  H14R20426   4.030   6.353   8.353 -0.7350 -0.9657  1.7553
  179SOPE  H14S20427   3.886   6.263   8.297 -1.2667  0.2540  1.0909
  179SOPE  C21520428   3.859   6.476   8.302 -0.2997 -0.4218 -0.6230
  179SOPE  H15R20429   3.788   6.487   8.218 -0.5975 -0.9408 -0.4461
  179SOPE  H15S20430   3.920   6.569   8.297  0.4012 -0.9042 -1.4401
  179SOPE  C21620431   3.779   6.461   8.437 -0.0681  0.2175  0.0525
  179SOPE  H16R20432   3.714   6.371   8.423  0.1644  0.3464 -2.2956
  179SOPE  H16S20433   3.710   6.547   8.446 -1.2321 -0.3936 -2.0699
  179SOPE  C21720434   3.873   6.420   8.555  0.3722 -0.1845  0.1216
  179SOPE  H17R20435   3.954   6.496   8.559  1.1328 -0.9817  0.2069
  179SOPE  H17S20436   3.924   6.322   8.541 -0.1667 -0.5546  0.6951
  179SOPE  C21820437   3.793   6.414   8.691 -0.1408  0.5459  0.1920
  179SOPE  H18R20438   3.727   6.503   8.707 -0.1612  0.5031  0.3486
  179SOPE  H18S20439   3.868   6.404   8.772 -1.1051  0.3403  1.0853
  179SOPE  H18T20440   3.745   6.314   8.690 -1.0489  0.9518  0.9359
  179SOPE   C3320441   4.463   5.659   7.105  0.0519 -0.4315  0.4071
  179SOPE   H3X20442   4.568   5.693   7.090  0.5184 -2.2322 -0.7226
  179SOPE   H3Y20443   4.442   5.593   7.018 -1.7822 -0.8814  1.1580
  179SOPE   C3420444   4.457   5.597   7.243  0.4591  0.2388  0.2474
  179SOPE   H4X20445   4.547   5.532   7.239 -0.0309 -0.4778  0.6296
  179SOPE   H4Y20446   4.376   5.522   7.251  0.4592  0.1252 -0.7452
  179SOPE   C3520447   4.456   5.692   7.371 -0.0686 -0.0073  0.0161
  179SOPE   H5X20448   4.390   5.780   7.355  2.8850  2.4764  0.5450
  179SOPE   H5Y20449   4.557   5.735   7.384 -0.8994  1.7124  1.1282
  179SOPE   C3620450   4.402   5.623   7.498 -0.4489  0.0004 -0.3987
  179SOPE   H6X20451   4.481   5.550   7.526 -0.5312 -0.2243 -0.7386
  179SOPE   H6Y20452   4.302   5.580   7.475 -0.1116 -2.0029  1.5507
  179SOPE   C3720453   4.385   5.718   7.612  0.7330 -0.2802 -0.3459
  179SOPE   H7X20454   4.310   5.796   7.584  0.6788 -0.9108 -2.1177
  179SOPE   H7Y20455   4.471   5.782   7.641 -2.4092  4.0076  0.6584
  179SOPE   C3820456   4.340   5.649   7.740  0.2126 -0.0114  0.2454
  179SOPE   H8X20457   4.431   5.614   7.794  1.3294 -0.6872 -1.9253
  179SOPE   H8Y20458   4.265   5.571   7.716  0.6597 -0.5301  0.5189
  179SOPE   C3920459   4.268   5.750   7.833 -0.4235  0.2792  0.4726
  179SOPE   H9X20460   4.172   5.774   7.782  0.0990 -0.3721 -0.8426
  179SOPE   H9Y20461   4.323   5.847   7.836  0.0600  0.0070  0.3447
  179SOPE  C31020462   4.249   5.710   7.980  0.2570  0.8503  0.0198
  179SOPE  H10X20463   4.342   5.672   8.027  0.9540  2.2624 -0.1901
  179SOPE  H10Y20464   4.198   5.611   7.984  1.1364  0.1199 -3.3513
  179SOPE  C31120465   4.171   5.808   8.066  0.4356  0.3838  0.3428
  179SOPE  H11X20466   4.075   5.834   8.015 -0.3939  1.5841  2.4173
  179SOPE  H11Y20467   4.208   5.913   8.069 -1.3658  1.1463 -1.5640
  179SOPE  C31220468   4.145   5.755   8.210  0.1402  0.2429 -0.0180
  179SOPE  H12X20469   4.241   5.726   8.259  0.1491  0.9183  0.3810
  179SOPE  H12Y20470   4.085   5.663   8.221  0.5401 -0.0415 -0.1989
  179SOPE  C31320471   4.060   5.861   8.285  0.0812  0.5554  0.1019
  179SOPE  H13X20472   4.097   5.964   8.267  0.3049  0.4321 -0.1543
  179SOPE  H13Y20473   4.067   5.840   8.394 -1.8789 -1.3613 -0.0620
  179SOPE  C31420474   3.912   5.850   8.251  0.3227 -0.1709 -0.0211
  179SOPE  H14X20475   3.873   5.753   8.287 -1.5865  1.0388  1.3394
  179SOPE  H14Y20476   3.897   5.851   8.141 -0.2594  0.6732  0.0516
  179SOPE  C31520477   3.827   5.966   8.298  0.3936  0.7154 -0.0652
  179SOPE  H15X20478   3.720   5.958   8.270  0.3936  0.4083  0.0129
  179SOPE  H15Y20479   3.873   6.054   8.249 -1.3349  0.6890 -1.8722
  179SOPE  C31620480   3.830   5.984   8.452 -0.6311  0.1360 -0.1964
  179SOPE  H16X20481   3.753   6.058   8.482 -1.6069 -1.8104  2.5484
  179SOPE  H16Y20482   3.935   6.013   8.475 -0.7879 -0.1569  0.9243
  179SOPE  C31720483   3.801   5.857   8.532  0.2926 -0.4657  0.1338
  179SOPE  H17X20484   3.880   5.781   8.510  1.5963  1.0065 -0.4889
  179SOPE  H17Y20485   3.701   5.823   8.499  0.2478  0.4948 -0.7943
  179SOPE  C31820486   3.788   5.887   8.686  0.4548 -0.0414 -0.1288
  179SOPE  H18X20487   3.718   5.969   8.712  0.8056  0.7197 -1.4754
  179SOPE  H18Y20488   3.892   5.901   8.722  0.6062  0.4978 -0.7617
  179SOPE  H18Z20489   3.743   5.796   8.732  0.2982  0.5322  0.8821
  180SOPE     N20490   3.813   3.961   6.033 -0.4047 -0.1783  0.2978
  180SOPE   HN120491   3.764   4.050   6.057 -1.2578 -0.6117  0.1906
  180SOPE   HN220492   3.899   3.997   5.987 -1.8727  2.5243 -0.5808
  180SOPE   HN320493   3.754   3.911   5.964  1.2885 -1.5628 -0.2345
  180SOPE   C1220494   3.839   3.880   6.161  0.0459 -0.0036 -0.8974
  180SOPE  H12A20495   3.896   3.791   6.128  3.6798  0.8980  2.1680
  180SOPE  H12B20496   3.744   3.843   6.205 -0.1353 -0.9407 -2.0302
  180SOPE   C1120497   3.930   3.954   6.254  0.7256  0.8248 -0.2233
  180SOPE  H11A20498   4.030   3.954   6.205  1.3874  0.4436  1.0796
  180SOPE  H11B20499   3.932   3.904   6.354 -0.3031  2.1615  0.4867
  180SOPE     P20500   3.944   4.218   6.288  0.5272 -0.0003  0.1068
  180SOPE   O1320501   3.909   4.309   6.178 -0.1321  0.4981  0.3587
  180SOPE   O1420502   4.085   4.199   6.301 -0.2750 -0.7289 -0.1802
  180SOPE   O1220503   3.877   4.081   6.258 -0.2637  0.0011 -0.4738
  180SOPE   O1120504   3.889   4.262   6.427  0.5737  0.7572  0.6841
  180SOPE    C120505   3.858   4.164   6.524  0.5254  0.3205 -0.1174
  180SOPE    HA20506   3.801   4.074   6.490  0.1661  0.7377 -0.6342
  180SOPE    HB20507   3.786   4.215   6.591 -0.7950  2.1331 -2.7400
  180SOPE    C220508   3.982   4.130   6.616 -0.9830 -0.5432  1.1126
  180SOPE    HS20509   4.059   4.075   6.557 -0.2476 -0.8611  2.3305
  180SOPE   O2120510   3.939   4.046   6.720  0.0138 -0.5310  0.0652
  180SOPE   C2120511   3.915   3.922   6.700  0.7392  0.7481 -0.7405
  180SOPE   O2220512   3.931   3.859   6.598  0.5591  0.2082  0.2504
  180SOPE   C2220513   3.860   3.851   6.819  0.0176 -0.5008 -0.4893
  180SOPE   H2R20514   3.858   3.743   6.797  1.1172 -1.0061  1.6206
  180SOPE   H2S20515   3.751   3.868   6.829  0.1939  0.0699  0.6796
  180SOPE    C320516   4.044   4.260   6.683  0.2941 -0.1216  0.0641
  180SOPE    HX20517   3.960   4.307   6.739  0.0594 -2.1399  1.5069
  180SOPE    HY20518   4.089   4.328   6.607  2.4293 -0.9511  0.5150
  180SOPE   O3120519   4.135   4.226   6.791 -0.0054  0.0962 -0.9697
  180SOPE   C3120520   4.196   4.337   6.843 -0.0069  0.7952 -0.1830
  180SOPE   O3220521   4.166   4.452   6.812  0.5164  0.3871 -0.4229
  180SOPE   C3220522   4.288   4.297   6.961 -0.0428  0.2347 -0.5144
  180SOPE   H2X20523   4.222   4.305   7.050 -1.8342 -1.6678 -1.5975
  180SOPE   H2Y20524   4.369   4.372   6.972  0.0948 -0.1597  1.5646
  180SOPE   C2320525   3.938   3.868   6.956  0.0854 -0.0832 -0.1363
  180SOPE   H3R20526   3.876   3.813   7.031  0.0774 -0.3609 -0.3451
  180SOPE   H3S20527   3.949   3.974   6.986  2.1447 -0.2153 -0.3198
  180SOPE   C2420528   4.071   3.797   6.950  0.0266  0.4802 -0.7535
  180SOPE   H4R20529   4.070   3.693   6.912 -0.2273 -0.7306  2.3187
  180SOPE   H4S20530   4.129   3.851   6.872 -1.1901  3.5397  0.2905
  180SOPE   C2520531   4.154   3.795   7.077 -0.0508 -0.5192  0.0408
  180SOPE   H5R20532   4.143   3.900   7.111 -0.9018 -0.3553 -0.7015
  180SOPE   H5S20533   4.108   3.729   7.153  0.2342 -0.8950 -0.1085
  180SOPE   C2620534   4.306   3.769   7.056 -0.4218  0.1616 -0.2079
  180SOPE   H6R20535   4.328   3.664   7.027  0.0806  0.4592 -0.9266
  180SOPE   H6S20536   4.348   3.834   6.976  0.7129 -0.9731 -0.5589
  180SOPE   C2720537   4.390   3.780   7.185 -0.1691  0.2492  0.1702
  180SOPE   H7R20538   4.361   3.879   7.226 -1.9235 -0.3552  0.4989
  180SOPE   H7S20539   4.356   3.703   7.258  1.2570 -0.7841 -0.2246
  180SOPE   C2820540   4.548   3.770   7.180 -0.6051 -0.0230 -0.1539
  180SOPE   H8R20541   4.584   3.838   7.100  0.6860 -1.2427 -0.6726
  180SOPE   H8S20542   4.586   3.812   7.275 -0.3278 -2.6892  1.0080
  180SOPE   C2920543   4.616   3.644   7.143  0.5653 -0.5005 -0.0655
  180SOPE   H9120544   4.653   3.612   7.045  1.9827 -0.1791  0.3479
  180SOPE  C21020545   4.640   3.547   7.234 -0.5588 -0.4815  0.2514
  180SOPE  H10120546   4.694   3.459   7.198  1.8257  1.3825 -1.0647
  180SOPE  C21120547   4.608   3.558   7.381  0.2254 -0.5332 -0.3305
  180SOPE  H11R20548   4.544   3.646   7.401 -0.3069 -1.0247  0.1247
  180SOPE  H11S20549   4.696   3.566   7.448  1.3265  1.7606 -1.8828
  180SOPE  C21220550   4.539   3.426   7.422  0.4610  0.6021 -0.7512
  180SOPE  H12R20551   4.604   3.336   7.430  0.3051  0.4258 -1.4424
  180SOPE  H12S20552   4.458   3.401   7.351  0.1011  0.6316 -0.3568
  180SOPE  C21320553   4.466   3.450   7.562 -0.0064  0.4769  0.8194
  180SOPE  H13R20554   4.390   3.370   7.578 -2.8447  2.8607  0.2626
  180SOPE  H13S20555   4.410   3.547   7.565 -2.7564 -1.0085  1.0323
  180SOPE  C21420556   4.559   3.452   7.685  0.8094 -0.0740 -0.1374
  180SOPE  H14R20557   4.644   3.523   7.678  0.8211 -0.0150  0.5479
  180SOPE  H14S20558   4.597   3.349   7.703 -0.2333 -0.8948 -2.2477
  180SOPE  C21520559   4.477   3.477   7.814 -0.8444  0.3022 -0.1131
  180SOPE  H15R20560   4.387   3.413   7.806 -1.4167  1.1940 -1.0525
  180SOPE  H15S20561   4.443   3.582   7.826 -0.7879  0.1081  1.9543
  180SOPE  C21620562   4.564   3.434   7.936 -0.5421  1.2886 -0.0192
  180SOPE  H16R20563   4.631   3.518   7.965 -0.4284  1.0648  0.3633
  180SOPE  H16S20564   4.617   3.344   7.900 -1.2481  1.5720 -1.8601
  180SOPE  C21720565   4.482   3.402   8.065 -0.2856  0.4698 -0.0587
  180SOPE  H17R20566   4.420   3.314   8.037 -1.4403  1.4240 -0.5935
  180SOPE  H17S20567   4.422   3.495   8.082  2.1507  2.0854  0.1811
  180SOPE  C21820568   4.562   3.386   8.192  0.0845 -0.3415  0.3969
  180SOPE  H18R20569   4.586   3.278   8.207  0.0598  0.0730  4.5459
  180SOPE  H18S20570   4.512   3.399   8.290 -1.4614  2.3397 -0.6453
  180SOPE  H18T20571   4.657   3.443   8.187  2.7225 -4.3847 -2.7731
  180SOPE   C3320572   4.337   4.152   6.956 -0.0568 -0.6991  0.1397
  180SOPE   H3X20573   4.400   4.143   6.865 -1.4825 -1.2036 -0.8376
  180SOPE   H3Y20574   4.253   4.081   6.941  0.1741 -1.4720  2.1854
  180SOPE   C3420575   4.422   4.125   7.075 -0.0340  0.0951  0.6155
  180SOPE   H4X20576   4.462   4.029   7.035  2.9710  0.1594  3.1324
  180SOPE   H4Y20577   4.352   4.105   7.160  1.1375 -1.4889  1.2612
  180SOPE   C3520578   4.537   4.220   7.099 -0.2119  0.4142  0.0949
  180SOPE   H5X20579   4.502   4.319   7.136  0.7626  1.1380 -0.8790
  180SOPE   H5Y20580   4.595   4.240   7.006 -0.5310 -0.3215 -0.2767
  180SOPE   C3620581   4.639   4.156   7.199 -0.0933  0.6105 -0.1676
  180SOPE   H6X20582   4.735   4.210   7.216 -0.0460  0.3208  0.5366
  180SOPE   H6Y20583   4.663   4.053   7.166 -0.1816  0.0422  1.4703
  180SOPE   C3720584   4.574   4.141   7.336  0.0793  0.8228  0.8048
  180SOPE   H7X20585   4.485   4.075   7.332  0.8667 -0.2227 -1.0528
  180SOPE   H7Y20586   4.550   4.247   7.358  4.3324  2.3920 -0.8983
  180SOPE   C3820587   4.672   4.090   7.438  0.1070 -0.2089 -0.1044
  180SOPE   H8X20588   4.760   4.158   7.445  0.9508 -1.0092 -2.0401
  180SOPE   H8Y20589   4.728   4.009   7.385  2.2921  1.9533 -1.3024
  180SOPE   C3920590   4.602   4.046   7.573  0.1179 -0.5833  0.0256
  180SOPE   H9X20591   4.525   3.966   7.572 -0.3756 -0.1837  1.9275
  180SOPE   H9Y20592   4.550   4.132   7.621 -0.5633 -2.2398  2.4484
  180SOPE  C31020593   4.701   3.978   7.665 -0.2064  0.1391 -0.0176
  180SOPE  H10X20594   4.768   4.058   7.703  0.9708 -0.6817 -0.3126
  180SOPE  H10Y20595   4.751   3.891   7.617  0.6102  0.0339  0.9888
  180SOPE  C31120596   4.622   3.912   7.783  0.3193  0.2272  0.1298
  180SOPE  H11X20597   4.561   3.829   7.742  1.0091  0.5607 -1.6932
  180SOPE  H11Y20598   4.547   3.986   7.819  0.2374  0.7941 -1.1392
  180SOPE  C31220599   4.717   3.873   7.890  0.5493  1.2463  0.0589
  180SOPE  H12X20600   4.801   3.944   7.907  0.4904  1.2872  0.1739
  180SOPE  H12Y20601   4.770   3.778   7.863 -0.4429 -0.0992  2.5458
  180SOPE  C31320602   4.639   3.836   8.021  0.4178 -0.2072  0.4317
  180SOPE  H13X20603   4.548   3.776   8.002 -0.8836  1.0171  2.4896
  180SOPE  H13Y20604   4.598   3.933   8.056 -1.6032 -0.6676 -0.4988
  180SOPE  C31420605   4.718   3.781   8.138  0.6019 -0.2774 -0.8034
  180SOPE  H14X20606   4.796   3.853   8.173  0.6079 -0.6034 -0.1195
  180SOPE  H14Y20607   4.771   3.687   8.114  0.6715 -0.9621  1.7415
  180SOPE  C31520608   4.625   3.736   8.252 -0.3015  0.2699 -1.4558
  180SOPE  H15X20609   4.573   3.645   8.215 -0.8171 -0.5450  1.0992
  180SOPE  H15Y20610   4.544   3.806   8.281 -0.0478  0.0662 -0.2137
  180SOPE  C31620611   4.705   3.702   8.378 -0.5516 -0.1471  0.1773
  180SOPE  H16X20612   4.783   3.781   8.385 -2.2567  1.4921  2.4539
  180SOPE  H16Y20613   4.762   3.608   8.364  0.4336  0.4134  0.3386
  180SOPE  C31720614   4.632   3.706   8.509  0.1395  0.0442 -0.2655
  180SOPE  H17X20615   4.579   3.803   8.520  0.2880 -0.0383  1.5360
  180SOPE  H17Y20616   4.712   3.704   8.587 -0.3247 -0.4369  0.2137
  180SOPE  C31820617   4.544   3.583   8.543 -0.4355 -0.7741  0.2963
  180SOPE  H18X20618   4.468   3.565   8.464  0.2510 -0.5246 -0.4363
  180SOPE  H18Y20619   4.490   3.591   8.639  1.1186 -1.4230  1.2748
  180SOPE  H18Z20620   4.600   3.487   8.547  2.7742  0.9885  1.6540
  181SOPE     N20621   5.358   4.234   6.386 -0.0859 -0.0955  0.0216
  181SOPE   HN120622   5.346   4.139   6.345 -5.0737 -0.0130  0.6831
  181SOPE   HN220623   5.459   4.251   6.406  0.1053 -1.9980  0.9570
  181SOPE   HN320624   5.299   4.221   6.471 -2.5948 -2.5352 -1.9163
  181SOPE   C1220625   5.290   4.314   6.279  0.0300  0.3910  0.3156
  181SOPE  H12A20626   5.358   4.330   6.193  0.8605 -0.9240  0.6880
  181SOPE  H12B20627   5.257   4.413   6.315 -0.7999  0.7667 -1.3794
  181SOPE   C1120628   5.165   4.236   6.232 -0.1635  0.4306 -0.0267
  181SOPE  H11A20629   5.125   4.296   6.147  1.0584 -0.4446 -1.2586
  181SOPE  H11B20630   5.094   4.227   6.316  1.4346 -1.8756  1.1922
  181SOPE     P20631   5.169   4.031   6.067  0.1446  0.1975 -0.1632
  181SOPE   O1320632   5.285   4.003   5.982 -0.7774 -0.1219 -0.1809
  181SOPE   O1420633   5.054   4.097   5.995 -0.4327 -0.1692  0.1169
  181SOPE   O1220634   5.206   4.109   6.191  0.1894  0.1004 -0.6821
  181SOPE   O1120635   5.127   3.894   6.118 -0.2194  0.2345  0.0443
  181SOPE    C120636   5.074   3.858   6.248 -0.0284  0.3099  0.3793
  181SOPE    HA20637   5.005   3.775   6.220 -0.9066  1.4749 -1.0766
  181SOPE    HB20638   5.015   3.946   6.282 -0.4172  0.5635 -0.9015
  181SOPE    C220639   5.182   3.841   6.358  0.6437  0.9331 -0.9582
  181SOPE    HS20640   5.205   3.938   6.406 -0.9095 -0.1609  2.3221
  181SOPE   O2120641   5.303   3.776   6.306 -0.2255 -0.2139 -0.1607
  181SOPE   C2120642   5.406   3.847   6.279 -0.2669 -0.3690 -0.5053
  181SOPE   O2220643   5.419   3.967   6.281  0.1723  0.1978 -0.1484
  181SOPE   C2220644   5.523   3.751   6.243  0.2442 -0.3375  0.7560
  181SOPE   H2R20645   5.531   3.757   6.133 -1.8992  0.5829  0.6106
  181SOPE   H2S20646   5.510   3.648   6.282  0.1820 -0.0659  1.4715
  181SOPE    C320647   5.125   3.744   6.472  0.2291  0.4012  0.0067
  181SOPE    HX20648   5.064   3.659   6.434 -2.4362  0.6226  3.3288
  181SOPE    HY20649   5.050   3.808   6.522  0.1507  0.1738  0.1844
  181SOPE   O3120650   5.225   3.701   6.564 -0.7881  0.7532 -0.0715
  181SOPE   C3120651   5.259   3.574   6.546  0.3600 -0.3647 -0.3718
  181SOPE   O3220652   5.203   3.490   6.482 -0.4003 -0.1482 -0.2155
  181SOPE   C3220653   5.372   3.540   6.646 -0.5723 -0.6135  0.2306
  181SOPE   H2X20654   5.460   3.602   6.620 -2.3550  1.1837 -1.9181
  181SOPE   H2Y20655   5.392   3.431   6.649 -1.1535 -0.7280  0.1830
  181SOPE   C2320656   5.660   3.798   6.306  0.2686  0.2979  0.8087
  181SOPE   H3R20657   5.679   3.907   6.294  1.2740  0.1315  0.7944
  181SOPE   H3S20658   5.733   3.735   6.249 -0.6841  1.3179 -1.6880
  181SOPE   C2420659   5.679   3.765   6.452 -0.2324 -0.5858  0.3497
  181SOPE   H4R20660   5.623   3.675   6.487  2.0410 -2.3261 -0.3075
  181SOPE   H4S20661   5.787   3.742   6.462 -0.0092  0.5329  0.6851
  181SOPE   C2520662   5.654   3.890   6.540  0.3087 -0.2827 -0.1599
  181SOPE   H5R20663   5.723   3.969   6.504  0.8019 -1.5511 -2.1763
  181SOPE   H5S20664   5.550   3.916   6.509  0.6693  0.3877 -0.8416
  181SOPE   C2620665   5.687   3.863   6.688 -0.1458  0.0871 -0.3310
  181SOPE   H6R20666   5.617   3.790   6.734  2.0603 -1.4811  0.7724
  181SOPE   H6S20667   5.780   3.801   6.688 -1.0894 -1.3741  0.0046
  181SOPE   C2720668   5.719   3.980   6.783 -0.3859 -0.0211 -0.0127
  181SOPE   H7R20669   5.729   3.931   6.882  1.8648 -1.6276 -0.9490
  181SOPE   H7S20670   5.823   4.017   6.771 -1.2892  3.1078  1.0217
  181SOPE   C2820671   5.609   4.082   6.777 -0.1100 -0.6116  0.3530
  181SOPE   H8R20672   5.638   4.175   6.831  2.1277 -0.9938 -0.0861
  181SOPE   H8S20673   5.605   4.111   6.670  0.1566 -2.1822 -0.1105
  181SOPE   C2920674   5.479   4.040   6.836 -0.4867  0.4122  0.1323
  181SOPE   H9120675   5.413   4.007   6.755  1.9682  1.0139 -2.2441
  181SOPE  C21020676   5.451   4.041   6.966  0.6492 -0.4369 -0.1073
  181SOPE  H10120677   5.355   4.006   7.007  1.3925 -0.3864  1.7798
  181SOPE  C21120678   5.548   4.091   7.077  0.2240 -0.5458  0.2846
  181SOPE  H11R20679   5.481   4.150   7.143 -0.6158 -2.5862  1.3406
  181SOPE  H11S20680   5.615   4.170   7.035 -1.9775  2.1780  1.5520
  181SOPE  C21220681   5.613   3.991   7.172  0.8059 -0.3723  0.5446
  181SOPE  H12R20682   5.686   4.045   7.236  0.2568 -0.6043  1.3738
  181SOPE  H12S20683   5.676   3.916   7.118  1.3389 -0.5676  1.4117
  181SOPE  C21320684   5.524   3.903   7.262  0.4614  0.0883 -0.5897
  181SOPE  H13R20685   5.582   3.822   7.311 -0.1416  0.4158  0.7034
  181SOPE  H13S20686   5.446   3.847   7.206 -0.3030 -0.1543  0.6805
  181SOPE  C21420687   5.442   3.980   7.373  0.0586 -0.2270  0.3040
  181SOPE  H14R20688   5.381   3.903   7.425 -1.5529  0.7052 -0.1394
  181SOPE  H14S20689   5.378   4.062   7.334 -0.3211 -0.0899  1.1865
  181SOPE  C21520690   5.535   4.046   7.481  0.0482 -0.2874  0.2177
  181SOPE  H15R20691   5.479   4.105   7.556  1.2758  0.8185  0.2933
  181SOPE  H15S20692   5.604   4.118   7.431 -0.2037  0.5145  1.0079
  181SOPE  C21620693   5.603   3.937   7.558 -0.3420  0.3108  0.0288
  181SOPE  H16R20694   5.689   3.903   7.497  0.0770  2.9478 -1.0013
  181SOPE  H16S20695   5.535   3.851   7.576  1.1198 -1.0091 -0.5880
  181SOPE  C21720696   5.668   3.989   7.682  0.1349  0.5444  0.2590
  181SOPE  H17R20697   5.597   3.992   7.768  0.4928 -3.1760  0.8485
  181SOPE  H17S20698   5.719   4.086   7.668  2.2399 -0.3247  1.3165
  181SOPE  C21820699   5.765   3.889   7.738  0.6312 -0.1049  0.4470
  181SOPE  H18R20700   5.778   3.894   7.848 -3.7557  2.5723  1.0659
  181SOPE  H18S20701   5.865   3.903   7.691  1.2002 -0.0506  1.6411
  181SOPE  H18T20702   5.737   3.783   7.723  0.4316  0.0144 -0.0475
  181SOPE   C3320703   5.351   3.589   6.795  0.3599 -0.4076 -0.1830
  181SOPE   H3X20704   5.250   3.550   6.824  0.0813  0.5819  0.2147
  181SOPE   H3Y20705   5.339   3.697   6.819 -3.0587 -0.6490 -0.2359
  181SOPE   C3420706   5.438   3.518   6.887  0.2883  0.0247 -0.4783
  181SOPE   H4X20707   5.545   3.524   6.855  0.5628 -1.1214  0.1989
  181SOPE   H4Y20708   5.416   3.410   6.891  0.8615 -0.1212 -0.9703
  181SOPE   C3520709   5.425   3.570   7.027  0.1616 -0.4145  0.2797
  181SOPE   H5X20710   5.314   3.572   7.027  0.1549  0.3508 -0.9110
  181SOPE   H5Y20711   5.460   3.673   7.051  0.6299 -1.0399  2.4840
  181SOPE   C3620712   5.483   3.480   7.137  0.2735 -0.3743  0.9422
  181SOPE   H6X20713   5.593   3.464   7.129  0.0755 -0.8921 -2.3299
  181SOPE   H6Y20714   5.433   3.381   7.123  0.9062 -0.5613 -0.1308
  181SOPE   C3720715   5.456   3.530   7.276  0.1754  0.0004  0.4408
  181SOPE   H7X20716   5.350   3.563   7.271 -0.3810 -1.5022  1.4027
  181SOPE   H7Y20717   5.511   3.624   7.296 -0.7124  0.6182  0.0304
  181SOPE   C3820718   5.499   3.435   7.384 -0.3949  0.1309  0.0059
  181SOPE   H8X20719   5.604   3.416   7.353 -1.1425 -0.0427 -2.6328
  181SOPE   H8Y20720   5.442   3.341   7.400  1.0096 -0.3898  2.3838
  181SOPE   C3920721   5.511   3.485   7.525 -0.2189 -0.5401 -0.2292
  181SOPE   H9X20722   5.566   3.582   7.523  2.8414 -2.0805  1.5966
  181SOPE   H9Y20723   5.586   3.429   7.584  0.4957  1.8822  1.3190
  181SOPE  C31020724   5.375   3.504   7.590 -0.2549  0.4981  0.0024
  181SOPE  H10X20725   5.307   3.560   7.522 -1.2257 -0.8546 -0.1731
  181SOPE  H10Y20726   5.388   3.564   7.683 -2.3148  3.1909 -1.3162
  181SOPE  C31120727   5.301   3.371   7.621  0.4299  0.1242 -0.1241
  181SOPE  H11X20728   5.260   3.323   7.530 -1.3438 -0.6719  1.0419
  181SOPE  H11Y20729   5.209   3.398   7.678  0.3275 -1.1122  0.3219
  181SOPE  C31220730   5.387   3.271   7.700 -0.2216  0.8147  0.4659
  181SOPE  H12X20731   5.458   3.326   7.766  1.9986  1.2330 -2.0931
  181SOPE  H12Y20732   5.455   3.213   7.634  1.2508  1.8563  1.0309
  181SOPE  C31320733   5.303   3.154   7.759  0.0726  0.6000 -0.2018
  181SOPE  H13X20734   5.240   3.102   7.683  0.3478 -0.2629  0.1441
  181SOPE  H13Y20735   5.224   3.193   7.827  1.3190 -0.5386  2.0222
  181SOPE  C31420736   5.391   3.040   7.824 -0.2690  0.3146 -0.0459
  181SOPE  H14X20737   5.489   3.091   7.838 -1.1777  2.5329 -1.3217
  181SOPE  H14Y20738   5.405   2.955   7.754 -2.3788 -1.0178  1.0572
  181SOPE  C31520739   5.334   3.000   7.957  0.2587  0.2137 -0.2148
  181SOPE  H15X20740   5.360   2.896   7.984 -1.3242 -0.0240  0.5209
  181SOPE  H15Y20741   5.223   3.012   7.957 -0.0446 -2.0916  1.2276
  181SOPE  C31620742   5.380   3.090   8.073  0.5856  0.5268 -0.3174
  181SOPE  H16X20743   5.354   3.196   8.051  0.1768  0.5167  0.1090
  181SOPE  H16Y20744   5.489   3.073   8.086  0.4137 -0.9068 -0.6316
  181SOPE  C31720745   5.318   3.055   8.208 -0.2848  0.3782  0.7273
  181SOPE  H17X20746   5.343   2.950   8.234 -3.2253 -0.9642 -1.3643
  181SOPE  H17Y20747   5.208   3.042   8.202 -0.5296  2.4148  0.1848
  181SOPE  C31820748   5.356   3.153   8.318  0.1120 -0.3282  0.1860
  181SOPE  H18X20749   5.463   3.152   8.348  0.3251 -1.7971 -0.5222
  181SOPE  H18Y20750   5.291   3.133   8.406 -0.9984  1.9035 -0.0616
  181SOPE  H18Z20751   5.344   3.250   8.267  1.8538 -1.3974 -2.5023
  182SOPE     N20752   4.852   4.974   5.878  0.6601  0.1307  0.7584
  182SOPE   HN120753   4.786   4.976   5.959 -0.1463 -1.0132  0.1519
  182SOPE   HN220754   4.851   5.071   5.839  0.8970  0.3188  1.2050
  182SOPE   HN320755   4.823   4.916   5.797  0.4715  0.8322  0.3132
  182SOPE   C1220756   4.988   4.950   5.937  0.1497  0.2800  0.1909
  182SOPE  H12A20757   5.062   4.933   5.857 -1.0184 -0.6820 -0.7195
  182SOPE  H12B20758   4.981   4.858   5.999  0.0211  1.8116  2.5744
  182SOPE   C1120759   5.029   5.072   6.028 -0.0118  0.5275  0.3474
  182SOPE  H11A20760   5.019   5.164   5.967  2.6159 -0.4281 -1.7505
  182SOPE  H11B20761   5.139   5.069   6.045  0.1398 -1.2863 -0.6831
  182SOPE     P20762   4.968   4.971   6.255 -0.2780 -0.4662  0.0200
  182SOPE   O1320763   5.110   4.931   6.256  0.1975 -0.1653 -0.1069
  182SOPE   O1420764   4.870   4.858   6.241  0.2378 -0.8466 -0.6816
  182SOPE   O1220765   4.949   5.078   6.145 -0.0487 -0.0494  0.5349
  182SOPE   O1120766   4.928   5.050   6.387  0.4200 -0.3097 -0.6799
  182SOPE    C120767   5.009   5.154   6.438 -0.2098 -0.4454  0.5977
  182SOPE    HA20768   4.939   5.220   6.493 -2.6226 -1.2700 -1.3046
  182SOPE    HB20769   5.047   5.223   6.359  0.9709 -1.9456 -0.2124
  182SOPE    C220770   5.121   5.101   6.530 -0.0863  0.4057  0.3718
  182SOPE    HS20771   5.161   5.001   6.502  0.4325  0.9844 -1.0832
  182SOPE   O2120772   5.081   5.101   6.669 -0.3935 -0.2120 -0.2884
  182SOPE   C2120773   4.996   5.010   6.712  0.2039  1.0087  0.5684
  182SOPE   O2220774   4.941   4.920   6.648  0.3253 -0.0811  0.7318
  182SOPE   C2220775   4.979   5.022   6.859 -0.2308  0.1896  0.6668
  182SOPE   H2R20776   4.932   5.120   6.881  0.1742  0.4536  0.3630
  182SOPE   H2S20777   5.084   5.020   6.893  0.5034  2.4521 -1.2520
  182SOPE    C320778   5.250   5.194   6.520 -0.2064  0.3097 -0.1221
  182SOPE    HX20779   5.229   5.301   6.540  1.4369  0.7074 -0.3826
  182SOPE    HY20780   5.296   5.199   6.419  2.1803 -2.4014  0.6981
  182SOPE   O3120781   5.351   5.148   6.610 -0.8149 -0.0483  0.1063
  182SOPE   C3120782   5.421   5.051   6.577 -0.0163  0.2981  0.2467
  182SOPE   O3220783   5.420   4.997   6.463  0.4677 -0.3257 -0.3810
  182SOPE   C3220784   5.498   4.990   6.701 -0.7026 -0.4854  0.1323
  182SOPE   H2X20785   5.598   5.040   6.708 -2.3738  3.0187  1.2942
  182SOPE   H2Y20786   5.518   4.883   6.681  0.4136 -0.3255  0.3096
  182SOPE   C2320787   4.901   4.913   6.930 -0.9562  1.0422  0.2304
  182SOPE   H3R20788   4.935   4.814   6.894 -0.9764  1.6146 -1.4627
  182SOPE   H3S20789   4.797   4.920   6.891 -1.4784  0.9023  1.5766
  182SOPE   C2420790   4.919   4.918   7.083 -0.2693 -0.0319 -0.0544
  182SOPE   H4R20791   4.889   5.017   7.125 -1.8278 -1.0348  1.2974
  182SOPE   H4S20792   4.838   4.848   7.113 -0.8284  0.3641 -0.6235
  182SOPE   C2520793   5.054   4.885   7.142  0.4564 -0.4703 -1.1040
  182SOPE   H5R20794   5.107   4.800   7.094  2.6759  0.3053 -0.1485
  182SOPE   H5S20795   5.123   4.972   7.139  0.3769 -0.4153 -1.3424
  182SOPE   C2620796   5.037   4.844   7.294  0.4871 -0.2791 -0.4354
  182SOPE   H6R20797   4.944   4.785   7.305  1.2132 -1.3554  0.1097
  182SOPE   H6S20798   5.117   4.773   7.323 -1.5691 -1.9790  1.4428
  182SOPE   C2720799   5.048   4.970   7.383 -0.1170  0.2066  0.1845
  182SOPE   H7R20800   5.138   5.033   7.368  0.2946 -0.1985  0.9050
  182SOPE   H7S20801   4.965   5.041   7.359  0.1758  0.6175  0.3756
  182SOPE   C2820802   5.037   4.938   7.534 -0.5510  0.4924  0.2110
  182SOPE   H8R20803   5.010   5.030   7.589 -0.4670  1.1882 -0.8860
  182SOPE   H8S20804   4.951   4.867   7.534  0.1697 -0.4380 -1.4601
  182SOPE   C2920805   5.158   4.868   7.590 -0.3139 -0.5631 -0.3505
  182SOPE   H9120806   5.244   4.909   7.536 -0.6469  2.6728  1.3479
  182SOPE  C21020807   5.167   4.764   7.674  0.2509  0.5459  0.0045
  182SOPE  H10120808   5.264   4.727   7.710 -1.2071 -0.7388  2.9304
  182SOPE  C21120809   5.049   4.692   7.720 -0.3388  0.5903 -0.8233
  182SOPE  H11R20810   5.076   4.590   7.755  0.8423  0.6197 -1.6123
  182SOPE  H11S20811   4.970   4.689   7.642  0.5928  1.3882 -1.8215
  182SOPE  C21220812   4.980   4.755   7.845  0.2852  0.1341  0.3335
  182SOPE  H12R20813   4.889   4.694   7.867  0.5029 -0.1030  0.5984
  182SOPE  H12S20814   4.965   4.864   7.838  1.2386  0.3215  1.0302
  182SOPE  C21320815   5.069   4.720   7.967  0.2902 -0.1499  0.2235
  182SOPE  H13R20816   5.033   4.786   8.049 -0.9273  0.5526 -0.8411
  182SOPE  H13S20817   5.175   4.745   7.944 -0.0770  0.5669 -0.7754
  182SOPE  C21420818   5.067   4.572   8.021  0.4058  0.0342  0.5371
  182SOPE  H14R20819   5.121   4.510   7.947  0.5628 -3.2752  3.2175
  182SOPE  H14S20820   4.960   4.547   8.011  0.0007  2.0247 -0.7232
  182SOPE  C21520821   5.114   4.552   8.162 -0.4443  0.0005 -0.4259
  182SOPE  H15R20822   5.077   4.630   8.232  1.1311  1.7717 -1.4659
  182SOPE  H15S20823   5.225   4.561   8.161 -0.3501 -0.9409  0.3268
  182SOPE  C21620824   5.087   4.410   8.218  0.9525 -0.3822 -0.4604
  182SOPE  H16R20825   5.161   4.397   8.300 -0.1233 -0.4400  0.5325
  182SOPE  H16S20826   5.113   4.333   8.142  0.1389 -0.1384 -0.9981
  182SOPE  C21720827   4.944   4.380   8.258 -0.3106 -0.6942 -0.4759
  182SOPE  H17R20828   4.891   4.333   8.173 -2.0403 -0.2641  0.3315
  182SOPE  H17S20829   4.889   4.473   8.284  0.1519 -0.0553 -1.6971
  182SOPE  C21820830   4.936   4.277   8.370 -0.4703  0.5733  0.2982
  182SOPE  H18R20831   4.828   4.251   8.371 -0.1690 -0.7619  0.2087
  182SOPE  H18S20832   4.978   4.301   8.470  2.4480  0.8965 -0.9183
  182SOPE  H18T20833   4.974   4.176   8.343  0.3174  1.1354 -0.7301
  182SOPE   C3320834   5.425   5.007   6.839 -0.8375 -0.4654 -0.1368
  182SOPE   H3X20835   5.333   4.945   6.838 -1.8120  0.9359  0.3640
  182SOPE   H3Y20836   5.385   5.110   6.847 -0.5188 -0.2449 -1.3306
  182SOPE   C3420837   5.521   4.974   6.955  0.6167 -0.0575 -0.3649
  182SOPE   H4X20838   5.613   5.036   6.954  0.4567  0.1953  0.2133
  182SOPE   H4Y20839   5.550   4.866   6.955 -0.5831 -0.3932 -0.8282
  182SOPE   C3520840   5.462   5.005   7.100  0.1998 -0.0957  0.5840
  182SOPE   H5X20841   5.374   4.936   7.097 -0.1379  0.3361 -1.7660
  182SOPE   H5Y20842   5.419   5.107   7.114  2.3766  1.1613 -1.1765
  182SOPE   C3620843   5.562   4.968   7.217 -0.6419  0.3806  0.0855
  182SOPE   H6X20844   5.644   5.043   7.212  0.5438 -0.9245 -0.6164
  182SOPE   H6Y20845   5.616   4.877   7.184  0.1005  1.0487 -0.5915
  182SOPE   C3720846   5.498   4.958   7.355  0.2018 -0.3914  0.1031
  182SOPE   H7X20847   5.425   4.874   7.350 -0.6572  0.2483  1.3740
  182SOPE   H7Y20848   5.436   5.045   7.383 -0.9603 -1.2437  0.2611
  182SOPE   C3820849   5.606   4.910   7.460  0.5404  0.2191  0.3841
  182SOPE   H8X20850   5.702   4.965   7.457  0.3646  0.5489  0.7027
  182SOPE   H8Y20851   5.624   4.805   7.428 -1.8120  0.1182 -0.8751
  182SOPE   C3920852   5.540   4.908   7.600 -0.5302  0.7731 -0.4577
  182SOPE   H9X20853   5.444   4.851   7.597 -0.1014 -0.0495  0.7106
  182SOPE   H9Y20854   5.515   5.014   7.621 -1.7972  0.0747  1.9669
  182SOPE  C31020855   5.624   4.862   7.720  0.0427  0.3054  0.1877
  182SOPE  H10X20856   5.715   4.926   7.724  0.5197 -0.3326  4.4250
  182SOPE  H10Y20857   5.638   4.753   7.703 -3.7749 -0.8170  2.8384
  182SOPE  C31120858   5.540   4.867   7.852  0.1678 -0.1768  0.1936
  182SOPE  H11X20859   5.458   4.793   7.841  1.0021 -0.8259 -2.3188
  182SOPE  H11Y20860   5.495   4.967   7.873  1.0352 -0.1842  2.2827
  182SOPE  C31220861   5.618   4.855   7.980 -0.1432  0.7558  0.7210
  182SOPE  H12X20862   5.689   4.941   7.980  2.5385 -1.3100  0.2209
  182SOPE  H12Y20863   5.662   4.754   7.970 -0.1787  0.8170 -0.1168
  182SOPE  C31320864   5.526   4.870   8.094  0.0996  0.3785 -0.0819
  182SOPE  H13X20865   5.459   4.781   8.090  1.1289 -0.3908 -1.1086
  182SOPE  H13Y20866   5.459   4.958   8.088 -0.3859 -0.0721 -2.9013
  182SOPE  C31420867   5.604   4.875   8.222 -0.6208 -0.4163  0.0245
  182SOPE  H14X20868   5.615   4.982   8.251 -2.1859 -0.3951  0.6399
  182SOPE  H14Y20869   5.705   4.828   8.215  0.1793  1.4064 -1.5419
  182SOPE  C31520870   5.525   4.803   8.337 -0.2470  0.0926  0.2863
  182SOPE  H15X20871   5.570   4.836   8.432  2.3349 -1.6115 -0.2380
  182SOPE  H15Y20872   5.525   4.692   8.329  1.1550  0.1139 -0.3015
  182SOPE  C31620873   5.377   4.838   8.347  0.3250 -0.4918 -0.5880
  182SOPE  H16X20874   5.327   4.792   8.259 -1.4439 -1.7104  0.9810
  182SOPE  H16Y20875   5.361   4.948   8.342  1.8624 -0.2907 -1.5539
  182SOPE  C31720876   5.312   4.794   8.480  0.1510  0.7919  0.6321
  182SOPE  H17X20877   5.343   4.877   8.548  0.3718  1.4871 -0.2962
  182SOPE  H17Y20878   5.352   4.697   8.515  2.6668  0.9118 -1.6275
  182SOPE  C31820879   5.160   4.797   8.467  0.6946  0.3438  0.0766
  182SOPE  H18X20880   5.116   4.874   8.401 -2.3696 -2.0385 -0.9000
  182SOPE  H18Y20881   5.108   4.801   8.565  1.7659 -1.8228  0.7961
  182SOPE  H18Z20882   5.117   4.709   8.416 -2.8788  2.9960 -1.9110
  183SOPE     N20883   1.351   2.196   6.707 -0.9275 -0.2290  0.0769
  183SOPE   HN120884   1.325   2.164   6.802 -1.4999  0.7740  0.2612
  183SOPE   HN220885   1.433   2.133   6.694 -0.9216 -0.5271  1.4015
  183SOPE   HN320886   1.385   2.294   6.710  1.2624 -0.9555  0.8849
  183SOPE   C1220887   1.269   2.159   6.584 -0.2554 -0.3738 -0.3575
  183SOPE  H12A20888   1.215   2.064   6.606 -2.6392  0.3311 -2.6246
  183SOPE  H12B20889   1.336   2.155   6.496  0.5586  0.9695  0.1816
  183SOPE   C1120890   1.162   2.273   6.560 -0.6340 -0.4694  0.4436
  183SOPE  H11A20891   1.122   2.317   6.653  0.9351  1.7222  0.1643
  183SOPE  H11B20892   1.083   2.220   6.503  2.1482 -2.4440 -1.9536
  183SOPE     P20893   1.124   2.490   6.413 -0.5037 -0.2408  0.6025
  183SOPE   O1320894   1.048   2.429   6.300 -0.0799 -0.1861  0.3968
  183SOPE   O1420895   1.208   2.609   6.379 -0.0472 -0.5184 -0.1007
  183SOPE   O1220896   1.212   2.380   6.480 -0.4189  0.2544  0.3280
  183SOPE   O1120897   1.023   2.528   6.522  0.1226  0.3671  0.0802
  183SOPE    C120898   1.069   2.620   6.627  0.0291  0.1945  0.1988
  183SOPE    HA20899   1.085   2.714   6.570  1.5274 -1.0260 -1.5194
  183SOPE    HB20900   1.163   2.577   6.668 -0.4396 -1.3794 -0.3122
  183SOPE    C220901   0.954   2.645   6.725  0.1793 -0.5259 -0.1539
  183SOPE    HS20902   0.984   2.733   6.786 -1.6685  0.0628 -0.0285
  183SOPE   O2120903   0.928   2.529   6.810 -0.0447  0.0594 -0.0506
  183SOPE   C2120904   1.017   2.514   6.908 -0.4305 -0.6566 -0.0141
  183SOPE   O2220905   1.121   2.580   6.928  0.0533  0.0093 -0.1950
  183SOPE   C2220906   0.962   2.410   7.007  0.3120 -0.4414  0.2139
  183SOPE   H2R20907   0.934   2.317   6.953 -1.3358 -0.8315  1.6353
  183SOPE   H2S20908   0.874   2.461   7.051  1.4050  2.5760 -0.8587
  183SOPE    C320909   0.824   2.686   6.644  0.6190  0.2723 -0.2142
  183SOPE    HX20910   0.795   2.603   6.577 -0.0547  1.5789 -1.5872
  183SOPE    HY20911   0.855   2.766   6.573  2.0632 -0.6130 -0.6191
  183SOPE   O3120912   0.720   2.734   6.733  0.7291 -0.2233 -0.2046
  183SOPE   C3120913   0.601   2.739   6.680  0.7993 -0.3316 -0.3222
  183SOPE   O3220914   0.568   2.708   6.568 -0.5435  0.4775 -0.0887
  183SOPE   C3220915   0.498   2.813   6.772 -0.4759 -0.2286 -0.3872
  183SOPE   H2X20916   0.410   2.745   6.772  0.1897 -1.1217 -1.2285
  183SOPE   H2Y20917   0.472   2.907   6.720  1.8921  1.6022  1.4570
  183SOPE   C2320918   1.061   2.371   7.128  0.3511  0.0235 -0.3257
  183SOPE   H3R20919   1.162   2.392   7.088 -0.3990  1.9427 -1.3222
  183SOPE   H3S20920   1.063   2.260   7.131 -0.9511 -0.0377 -1.1175
  183SOPE   C2420921   1.024   2.443   7.257 -0.3380  0.2155  0.2320
  183SOPE   H4R20922   1.025   2.553   7.238  1.8540  0.0191 -1.1425
  183SOPE   H4S20923   0.920   2.414   7.280 -0.6367  1.3793  0.4074
  183SOPE   C2520924   1.101   2.393   7.383 -0.2970  0.1486 -0.2133
  183SOPE   H5R20925   1.091   2.282   7.386  1.9103 -0.1014  2.2039
  183SOPE   H5S20926   1.211   2.405   7.372  0.1123 -0.0346  2.7006
  183SOPE   C2620927   1.062   2.457   7.509 -0.1157  0.3182 -0.0329
  183SOPE   H6R20928   1.061   2.566   7.489 -1.5397  0.3337  0.0195
  183SOPE   H6S20929   0.959   2.425   7.537  0.3200 -0.5892  0.5899
  183SOPE   C2720930   1.146   2.424   7.633  0.0199  1.0756 -0.1702
  183SOPE   H7R20931   1.122   2.318   7.657 -1.1143  1.4731  0.5520
  183SOPE   H7S20932   1.256   2.438   7.624 -0.0268  0.7984 -1.2779
  183SOPE   C2820933   1.112   2.505   7.758 -0.6895  0.0162 -0.2128
  183SOPE   H8R20934   1.141   2.609   7.733  1.4032 -0.1289  1.2625
  183SOPE   H8S20935   1.002   2.495   7.770 -0.4119 -1.3906  1.6973
  183SOPE   C2920936   1.185   2.457   7.884  0.3756  0.7398  0.2399
  183SOPE   H9120937   1.287   2.497   7.886  0.8888 -0.5024  0.0955
  183SOPE  C21020938   1.142   2.367   7.975 -0.4813 -0.6399 -0.3875
  183SOPE  H10120939   1.200   2.349   8.066 -0.3369  0.2375 -0.2928
  183SOPE  C21120940   1.004   2.306   7.981  0.6411  0.1707  0.4316
  183SOPE  H11R20941   1.014   2.195   7.986 -2.0027 -0.1646 -0.5511
  183SOPE  H11S20942   0.956   2.313   7.882 -0.0829 -0.0502  0.7598
  183SOPE  C21220943   0.915   2.359   8.096  0.4964 -0.6430 -0.7263
  183SOPE  H12R20944   0.822   2.300   8.083  0.0441 -0.8444  2.5345
  183SOPE  H12S20945   0.884   2.466   8.087  1.8938 -0.0675  0.7877
  183SOPE  C21320946   0.969   2.339   8.241 -0.0692 -0.2113  0.4638
  183SOPE  H13R20947   1.061   2.401   8.241  1.0721 -1.8523 -0.0269
  183SOPE  H13S20948   0.986   2.230   8.253 -2.7007 -1.2076 -3.1376
  183SOPE  C21420949   0.888   2.384   8.361  0.6334 -0.9195  0.2717
  183SOPE  H14R20950   0.786   2.344   8.346  0.6963 -0.3885 -1.8789
  183SOPE  H14S20951   0.888   2.494   8.377  0.1250 -1.2108  2.6837
  183SOPE  C21520952   0.931   2.331   8.497  0.8083 -0.0648 -0.5547
  183SOPE  H15R20953   1.042   2.336   8.506  0.9503 -0.7339 -1.7090
  183SOPE  H15S20954   0.915   2.222   8.488  4.7767 -0.6475 -2.8434
  183SOPE  C21620955   0.868   2.405   8.621  0.5768  0.3879  0.3426
  183SOPE  H16R20956   0.757   2.400   8.623  0.5922 -0.2906  3.2627
  183SOPE  H16S20957   0.888   2.514   8.628 -0.8044  0.5801  2.1255
  183SOPE  C21720958   0.923   2.352   8.756 -0.6766  0.3646  0.2626
  183SOPE  H17R20959   1.032   2.372   8.754 -0.2714 -1.4768  1.6202
  183SOPE  H17S20960   0.910   2.244   8.777 -2.4460  0.3808 -0.5646
  183SOPE  C21820961   0.873   2.429   8.880  0.2712 -0.0859  0.6602
  183SOPE  H18R20962   0.925   2.390   8.971  0.5370 -0.3365  0.4026
  183SOPE  H18S20963   0.767   2.400   8.896  0.3839 -0.8498  0.0855
  183SOPE  H18T20964   0.885   2.539   8.881  1.1470 -0.1523  2.7374
  183SOPE   C3320965   0.545   2.836   6.912  1.0048  0.4803 -0.0627
  183SOPE   H3X20966   0.602   2.931   6.915  2.2752 -0.1777 -1.8858
  183SOPE   H3Y20967   0.623   2.768   6.952 -0.2740  0.1234  1.9949
  183SOPE   C3420968   0.424   2.845   7.013 -0.2842  0.2524  0.0021
  183SOPE   H4X20969   0.372   2.748   7.019 -0.6016  0.2795 -1.7891
  183SOPE   H4Y20970   0.357   2.925   6.975  1.8108  3.0045  1.7000
  183SOPE   C3520971   0.475   2.904   7.149  0.0531 -0.4654  0.1361
  183SOPE   H5X20972   0.512   3.008   7.148 -1.2210  0.0332  1.3403
  183SOPE   H5Y20973   0.562   2.839   7.173 -0.1078 -0.0401  2.0054
  183SOPE   C3620974   0.371   2.899   7.263  0.0780 -0.3185  0.6759
  183SOPE   H6X20975   0.329   2.797   7.250  0.2882 -0.1899 -1.2960
  183SOPE   H6Y20976   0.291   2.975   7.245  0.0608 -0.9683 -2.6306
  183SOPE   C3720977   0.451   2.916   7.393 -0.0737  1.1661  0.3464
  183SOPE   H7X20978   0.504   3.014   7.393  0.3057  0.9654  0.9676
  183SOPE   H7Y20979   0.530   2.838   7.394  0.2036  1.4437  0.3981
  183SOPE   C3820980   0.370   2.894   7.520 -0.3648  0.2067 -0.3961
  183SOPE   H8X20981   0.320   2.795   7.524  1.7886 -0.9545 -0.7582
  183SOPE   H8Y20982   0.285   2.964   7.510  0.9729  2.0716  0.6098
  183SOPE   C3920983   0.459   2.926   7.637 -0.6178  0.4104 -0.1361
  183SOPE   H9X20984   0.498   3.027   7.615 -3.2302  1.0821 -1.9987
  183SOPE   H9Y20985   0.537   2.847   7.648  0.5030  1.6129  1.0536
  183SOPE  C31020986   0.381   2.920   7.762 -0.5625 -0.3851 -0.0150
  183SOPE  H10X20987   0.339   2.818   7.775  1.4320 -1.0783  1.5200
  183SOPE  H10Y20988   0.289   2.979   7.740 -0.5006 -0.2187  0.1675
  183SOPE  C31120989   0.451   2.971   7.886 -0.8926  0.2584  0.1674
  183SOPE  H11X20990   0.457   3.082   7.875 -0.0789  0.0754 -1.6923
  183SOPE  H11Y20991   0.550   2.921   7.890 -0.3922  0.9959 -1.7488
  183SOPE  C31220992   0.368   2.927   8.006 -0.5015 -0.5454 -0.0545
  183SOPE  H12X20993   0.342   2.819   7.995 -0.2828 -0.5723 -0.3608
  183SOPE  H12Y20994   0.281   2.996   8.010 -0.1206 -0.0264 -0.4988
  183SOPE  C31320995   0.443   2.951   8.135 -0.2289  0.2377 -0.0681
  183SOPE  H13X20996   0.484   3.055   8.136 -1.0892  0.5897  1.2185
  183SOPE  H13Y20997   0.524   2.875   8.141 -0.5774 -0.1018  0.3659
  183SOPE  C31420998   0.351   2.931   8.255 -0.7150  0.2285 -0.0867
  183SOPE  H14X20999   0.295   2.835   8.265  1.3510 -0.9822  0.6141
  183SOPE  H14Y21000   0.268   3.005   8.256 -0.4934  0.4823  0.8675
  183SOPE  C31521001   0.420   2.966   8.386 -0.1079  0.0346  0.1168
  183SOPE  H15X21002   0.454   3.072   8.389  0.8079 -0.2462 -0.1468
  183SOPE  H15Y21003   0.507   2.898   8.396 -1.6814 -1.9339  1.1441
  183SOPE  C31621004   0.326   2.946   8.500  0.8633 -0.2104 -0.0519
  183SOPE  H16X21005   0.272   2.851   8.480  1.5191 -1.6488  3.9929
  183SOPE  H16Y21006   0.254   3.030   8.507  0.2532 -0.7617  0.4137
  183SOPE  C31721007   0.389   2.940   8.640  0.8211 -0.9518 -0.1251
  183SOPE  H17X21008   0.484   2.997   8.652  1.1502 -1.8471  1.8286
  183SOPE  H17Y21009   0.421   2.835   8.649  0.3833 -0.9869  1.1186
  183SOPE  C31821010   0.295   2.977   8.759  0.8430  0.4313  0.2780
  183SOPE  H18X21011   0.187   2.952   8.747  0.5725 -0.1004  3.0955
  183SOPE  H18Y21012   0.303   3.085   8.788 -0.1479  0.6945 -0.3897
  183SOPE  H18Z21013   0.326   2.916   8.847  2.1733 -1.2022 -1.2611
  184SOPE     N21014   6.565   3.204   6.043 -0.6642  0.0269  0.8762
  184SOPE   HN121015   6.479   3.231   5.991 -0.2203  0.0096  0.1215
  184SOPE   HN221016   6.618   3.290   6.068  1.0207 -0.8795  0.6068
  184SOPE   HN321017   6.622   3.155   5.971 -1.4686  1.6815 -0.9546
  184SOPE   C1221018   6.538   3.119   6.164  0.1950  0.0230 -0.2051
  184SOPE  H12A21019   6.487   3.029   6.123  1.9099 -0.9176 -0.3808
  184SOPE  H12B21020   6.477   3.183   6.231 -0.7491 -0.8734 -0.1814
  184SOPE   C1121021   6.674   3.083   6.236 -0.2457  0.2228  0.5064
  184SOPE  H11A21022   6.646   3.038   6.334 -0.3332  1.4448  1.0565
  184SOPE  H11B21023   6.724   3.177   6.266  0.6607  0.0896 -0.5244
  184SOPE     P21024   6.793   2.852   6.192  0.1182 -0.3227  0.0218
  184SOPE   O1321025   6.900   2.804   6.096  0.1689 -0.2836 -0.2150
  184SOPE   O1421026   6.668   2.773   6.198 -0.3801  0.3913  0.2315
  184SOPE   O1221027   6.756   2.998   6.149 -0.0385 -0.3648 -0.2438
  184SOPE   O1121028   6.858   2.874   6.336  0.5041  0.3198 -0.7466
  184SOPE    C121029   6.843   2.768   6.433  0.5876  0.3053 -0.2826
  184SOPE    HA21030   6.935   2.705   6.435  0.5906  0.2779 -0.9306
  184SOPE    HB21031   6.758   2.700   6.413  1.2981 -0.5456 -0.5106
  184SOPE    C221032   6.813   2.814   6.578  0.3965 -0.3159 -0.4566
  184SOPE    HS21033   6.712   2.859   6.572 -0.4730 -2.2976 -2.0224
  184SOPE   O2121034   6.915   2.905   6.622  0.3364 -0.1242  0.2278
  184SOPE   C2121035   6.877   3.033   6.608 -0.8431  0.0091 -0.6438
  184SOPE   O2221036   6.764   3.075   6.590  0.3502  0.3188  0.0682
  184SOPE   C2221037   6.994   3.127   6.642  0.3203  0.4209 -0.4348
  184SOPE   H2R21038   7.053   3.154   6.552  0.0159 -1.6378 -1.3197
  184SOPE   H2S21039   7.065   3.071   6.705  0.9781 -0.9506 -2.2921
  184SOPE    C321040   6.804   2.696   6.677 -0.2385  0.6096  0.1717
  184SOPE    HX21041   6.906   2.655   6.687 -0.7528 -2.2915 -3.9599
  184SOPE    HY21042   6.742   2.617   6.628  0.6106  0.4488 -0.6616
  184SOPE   O3121043   6.740   2.739   6.796 -0.0632  0.5634  0.6632
  184SOPE   C3121044   6.738   2.648   6.891  0.1836 -0.3648 -0.2600
  184SOPE   O3221045   6.784   2.537   6.892  0.2998  0.0088 -0.2805
  184SOPE   C3221046   6.644   2.697   7.009  0.4219 -0.0894  0.3087
  184SOPE   H2X21047   6.633   2.616   7.084 -0.3774  0.8786  1.2576
  184SOPE   H2Y21048   6.543   2.708   6.964 -1.0301 -2.5958  2.6794
  184SOPE   C2321049   6.941   3.250   6.724 -0.7375  0.6123  0.3429
  184SOPE   H3R21050   6.860   3.303   6.670 -1.7507 -1.7240 -0.5380
  184SOPE   H3S21051   7.028   3.319   6.729 -0.3386  0.1509 -0.0898
  184SOPE   C2421052   6.903   3.207   6.863 -0.5300 -0.1149 -0.8861
  184SOPE   H4R21053   6.806   3.153   6.862  0.3226 -1.7135 -0.5326
  184SOPE   H4S21054   6.981   3.132   6.888  0.0666  0.9322  0.5982
  184SOPE   C2521055   6.881   3.321   6.957  0.5912  0.4431 -0.1841
  184SOPE   H5R21056   6.814   3.400   6.916  0.1655  0.2656  0.1571
  184SOPE   H5S21057   6.832   3.283   7.049 -0.2524  1.1273 -0.3413
  184SOPE   C2621058   7.002   3.392   7.016  0.0659  0.1173  0.2199
  184SOPE   H6R21059   7.066   3.411   6.927 -1.6399  1.3057 -0.8106
  184SOPE   H6S21060   6.965   3.483   7.068  1.1907 -0.1713  1.5856
  184SOPE   C2721061   7.080   3.314   7.122  0.3963  0.0093  0.4644
  184SOPE   H7R21062   7.104   3.219   7.070 -2.4547  1.2555 -3.6324
  184SOPE   H7S21063   7.173   3.364   7.157  0.1023  0.7366  0.2378
  184SOPE   C2821064   7.002   3.268   7.247 -0.4556  0.1059  0.5742
  184SOPE   H8R21065   6.908   3.219   7.212 -0.0530 -1.0500  1.0646
  184SOPE   H8S21066   7.049   3.182   7.299 -1.2223  0.1023  1.2809
  184SOPE   C2921067   6.958   3.387   7.339  0.6136  0.0033  0.1841
  184SOPE   H9121068   6.885   3.455   7.292 -2.4260 -2.0537  1.5548
  184SOPE  C21021069   6.984   3.404   7.471  0.1748 -0.3055 -0.0322
  184SOPE  H10121070   6.950   3.496   7.520  1.1221  0.5042 -0.8399
  184SOPE  C21121071   7.087   3.310   7.545  0.6980 -0.0295  0.4024
  184SOPE  H11R21072   7.176   3.292   7.480 -0.6633  0.7769 -1.8098
  184SOPE  H11S21073   7.046   3.207   7.553 -0.2935  0.0334 -2.4911
  184SOPE  C21221074   7.115   3.370   7.689 -0.3610  1.2848 -0.7525
  184SOPE  H12R21075   7.156   3.473   7.697  2.1574  0.2161  1.3185
  184SOPE  H12S21076   7.188   3.295   7.727 -1.8817 -0.0421 -0.3524
  184SOPE  C21321077   6.987   3.375   7.770  0.2413  0.5937 -0.1504
  184SOPE  H13R21078   6.930   3.282   7.749 -0.5782  0.2668  2.9887
  184SOPE  H13S21079   6.929   3.462   7.733 -1.6471 -0.8937 -0.8447
  184SOPE  C21421080   7.031   3.381   7.921 -0.1392  0.5776 -0.0623
  184SOPE  H14R21081   7.081   3.478   7.937 -0.3152  0.3284  2.3838
  184SOPE  H14S21082   7.095   3.292   7.937 -0.5193  0.4538  0.8481
  184SOPE  C21521083   6.919   3.368   8.020  0.0032 -0.8364 -0.5288
  184SOPE  H15R21084   6.872   3.269   8.006  0.0135 -0.6112 -2.4611
  184SOPE  H15S21085   6.844   3.450   8.015  0.0484 -0.6498  1.1989
  184SOPE  C21621086   6.975   3.369   8.168 -0.2251  0.0606  0.3849
  184SOPE  H16R21087   7.011   3.472   8.189 -0.8227  0.2296  0.6239
  184SOPE  H16S21088   7.067   3.309   8.185 -0.9322 -0.9613  0.7046
  184SOPE  C21721089   6.879   3.320   8.274 -0.1167 -0.0364 -0.9193
  184SOPE  H17R21090   6.938   3.247   8.335 -3.5256 -2.1831  0.0860
  184SOPE  H17S21091   6.795   3.262   8.231 -0.8244  1.0722 -1.0623
  184SOPE  C21821092   6.834   3.417   8.376 -0.1187 -0.1802  0.1750
  184SOPE  H18R21093   6.918   3.471   8.424 -1.9491  2.8533  0.2515
  184SOPE  H18S21094   6.770   3.365   8.451  2.0736 -2.1620  0.7733
  184SOPE  H18T21095   6.768   3.498   8.337  0.1540  0.8750  1.8336
  184SOPE   C3321096   6.700   2.825   7.072 -0.4140  0.1880 -0.4909
  184SOPE   H3X21097   6.655   2.915   7.024 -0.0725  0.3820 -0.4553
  184SOPE   H3Y21098   6.811   2.827   7.065 -0.3449 -0.1310  0.4664
  184SOPE   C3421099   6.668   2.832   7.225 -0.4171 -0.1315 -0.4498
  184SOPE   H4X21100   6.707   2.739   7.272  0.4599  0.1232 -0.6471
  184SOPE   H4Y21101   6.559   2.844   7.244 -0.7995  0.9043 -2.8812
  184SOPE   C3521102   6.751   2.949   7.287  0.1695 -0.3337  0.4346
  184SOPE   H5X21103   6.768   3.024   7.207  0.4033  2.0846  2.6129
  184SOPE   H5Y21104   6.853   2.917   7.317  0.3185 -0.9620 -0.6801
  184SOPE   C3621105   6.691   3.011   7.408 -0.3847 -0.2493 -0.4628
  184SOPE   H6X21106   6.584   3.029   7.386 -0.1302  0.3418 -1.2201
  184SOPE   H6Y21107   6.738   3.110   7.427 -1.8413  0.2513  0.7239
  184SOPE   C3721108   6.715   2.920   7.530  0.1026  0.5236 -0.1838
  184SOPE   H7X21109   6.815   2.873   7.520 -0.0320  0.0292  0.7011
  184SOPE   H7Y21110   6.627   2.851   7.534  0.6372 -0.1191  0.8757
  184SOPE   C3821111   6.706   2.994   7.670  0.3365 -0.6515  0.2362
  184SOPE   H8X21112   6.607   3.042   7.682  0.5034  0.2257 -1.4709
  184SOPE   H8Y21113   6.790   3.067   7.669  0.3654 -0.6054  2.4113
  184SOPE   C3921114   6.720   2.900   7.794 -0.2777 -0.1128  0.9597
  184SOPE   H9X21115   6.825   2.872   7.815 -0.0910  1.9939  3.3001
  184SOPE   H9Y21116   6.663   2.807   7.776 -0.9042  0.4363 -0.0191
  184SOPE  C31021117   6.654   2.969   7.910 -0.3218 -0.0231  0.1482
  184SOPE  H10X21118   6.544   2.966   7.895 -0.1984 -0.4900 -0.7623
  184SOPE  H10Y21119   6.679   3.077   7.905 -2.5010  0.5763  0.8809
  184SOPE  C31121120   6.691   2.902   8.040  0.0307 -0.2787  1.1678
  184SOPE  H11X21121   6.802   2.901   8.046  0.2439  0.3893 -1.3778
  184SOPE  H11Y21122   6.655   2.797   8.037 -0.6115 -0.0627 -1.9934
  184SOPE  C31221123   6.637   2.980   8.156  0.1147 -0.1914 -0.0310
  184SOPE  H12X21124   6.528   2.960   8.166 -0.0383  1.3158  1.9109
  184SOPE  H12Y21125   6.643   3.089   8.133 -2.2488 -0.5258 -2.9696
  184SOPE  C31321126   6.699   2.941   8.286 -0.9976  0.3826 -0.2869
  184SOPE  H13X21127   6.809   2.935   8.299 -0.9381 -0.3085 -0.9989
  184SOPE  H13Y21128   6.664   2.836   8.294  0.5493 -0.0654  1.2461
  184SOPE  C31421129   6.644   3.022   8.406 -0.1388  0.0053  0.6658
  184SOPE  H14X21130   6.539   3.054   8.391  0.0935  0.6293  0.3156
  184SOPE  H14Y21131   6.704   3.116   8.408  1.2590 -0.8641  0.8339
  184SOPE  C31521132   6.664   2.961   8.541  0.0710  0.7038 -0.4753
  184SOPE  H15X21133   6.624   3.023   8.625 -2.2326 -0.3803 -0.7012
  184SOPE  H15Y21134   6.774   2.945   8.553 -0.2009 -1.3824 -0.3764
  184SOPE  C31621135   6.587   2.827   8.553  0.3558 -0.7730 -0.0336
  184SOPE  H16X21136   6.592   2.781   8.654  0.5074 -0.2473  0.2053
  184SOPE  H16Y21137   6.632   2.760   8.477 -0.2055 -0.1216 -0.9656
  184SOPE  C31721138   6.439   2.837   8.525  0.2793  0.0502 -0.0209
  184SOPE  H17X21139   6.419   2.815   8.418  0.4628 -1.4161  0.2274
  184SOPE  H17Y21140   6.411   2.941   8.553 -2.9171 -1.2260  2.1409
  184SOPE  C31821141   6.362   2.739   8.602  0.8838  0.0822  0.4851
  184SOPE  H18X21142   6.408   2.640   8.581  2.8242  1.7006 -4.2746
  184SOPE  H18Y21143   6.258   2.744   8.563  0.4322  0.1032  1.6557
  184SOPE  H18Z21144   6.344   2.761   8.710 -0.0628 -0.6090  0.4863
  185SAPI   C1221145   3.543   0.982  11.277 -1.2934 -0.0890 -0.2312
  185SAPI    H221146   3.537   0.871  11.273 -1.5546 -0.0471 -1.3486
  185SAPI    O221147   3.447   1.024  11.372 -0.0145  0.5344 -0.0973
  185SAPI   HO221148   3.429   0.952  11.433 -2.1673  0.1965 -1.0450
  185SAPI   C1321149   3.690   1.008  11.314  0.6781  0.0963 -0.0151
  185SAPI    H321150   3.754   0.961  11.237 -1.8150 -0.0721 -2.1080
  185SAPI    O321151   3.720   0.941  11.435 -0.4250 -0.8185  0.4117
  185SAPI   HO321152   3.677   0.991  11.505 -1.7079  0.8367 -1.4447
  185SAPI   C1421153   3.710   1.159  11.328 -0.5304 -0.2440 -0.8694
  185SAPI    H421154   3.641   1.201  11.404  0.6505 -0.0742  0.1453
  185SAPI    O421155   3.842   1.177  11.374 -0.2658 -0.3867 -0.2352
  185SAPI   HO421156   3.900   1.157  11.300 -0.0371 -0.1245 -0.1282
  185SAPI   C1521157   3.690   1.228  11.196  0.1483  0.3060  0.5483
  185SAPI    H521158   3.756   1.183  11.119 -0.4641 -0.4721  0.4578
  185SAPI    O521159   3.696   1.366  11.203  0.0004 -0.4073 -0.4537
  185SAPI   HO521160   3.763   1.390  11.138 -0.6334  1.2754 -0.5408
  185SAPI   C1621161   3.544   1.188  11.143  0.7923  0.2520  0.4302
  185SAPI    H621162   3.476   1.223  11.224 -2.3585 -0.1979 -1.8475
  185SAPI    O621163   3.513   1.247  11.019 -0.5440  0.4832  0.2419
  185SAPI   HO621164   3.468   1.185  10.961  0.1549  1.6494 -1.6372
  185SAPI   C1121165   3.528   1.040  11.138 -0.1795 -0.3406  0.1486
  185SAPI    H121166   3.600   0.989  11.071 -0.4023 -0.7642  0.2314
  185SAPI     P21167   3.356   0.879  10.998 -0.2519 -0.0535 -0.1522
  185SAPI   O1321168   3.210   0.892  10.955  0.0508 -0.0920 -0.2444
  185SAPI   O1421169   3.392   0.762  11.072 -0.3278 -0.5968  0.4156
  185SAPI   O1221170   3.390   1.014  11.096 -1.4248 -0.0789  0.0331
  185SAPI   O1121171   3.452   0.900  10.871 -0.0442  0.3774  0.4164
  185SAPI    C121172   3.406   0.862  10.734  0.1459 -0.0576  0.2762
  185SAPI    HA21173   3.296   0.868  10.725 -0.2108 -0.1053  3.5882
  185SAPI    HB21174   3.428   0.944  10.662  2.3260 -0.2131  0.6817
  185SAPI    C221175   3.459   0.727  10.667  0.2958  0.2706  0.4395
  185SAPI    HS21176   3.457   0.650  10.748 -2.1986  0.2168  0.4041
  185SAPI   O2121177   3.590   0.763  10.609  0.3000 -0.0179 -1.0208
  185SAPI   C2121178   3.660   0.659  10.573  0.0452  0.1477 -0.3175
  185SAPI   O2221179   3.632   0.542  10.590 -0.7770  0.0160 -0.2793
  185SAPI   C2221180   3.792   0.710  10.511  0.5351  0.0589  0.3168
  185SAPI   H2R21181   3.860   0.700  10.598  1.6581 -0.3237 -0.5873
  185SAPI   H2S21182   3.815   0.640  10.429  0.3548 -0.8892  1.0564
  185SAPI    C321183   3.357   0.670  10.563 -0.2967  0.2236 -0.8553
  185SAPI    HX21184   3.272   0.652  10.632 -0.7059  0.3719 -1.3104
  185SAPI    HY21185   3.376   0.566  10.530  3.0650  0.9115 -1.4681
  185SAPI   O3121186   3.324   0.758  10.453  0.2020 -0.0036  0.0751
  185SAPI   C3121187   3.219   0.716  10.385  0.2901 -0.7565 -0.0207
  185SAPI   O3221188   3.145   0.628  10.416  0.7832 -0.4019  0.1491
  185SAPI   C3221189   3.188   0.804  10.261  0.0213 -0.4416 -0.5531
  185SAPI   H2X21190   3.228   0.905  10.281  2.4700 -1.8764  2.8669
  185SAPI   H2Y21191   3.079   0.807  10.241  0.2447 -0.1227 -1.7888
  185SAPI   C2321192   3.793   0.856  10.462  0.4340  0.2090 -0.2170
  185SAPI   H3R21193   3.781   0.908  10.559 -1.6420 -0.4159 -0.0807
  185SAPI   H3S21194   3.705   0.889  10.402  0.7925  0.7530 -0.4534
  185SAPI   C2421195   3.924   0.906  10.389 -0.2852 -0.9549 -0.6718
  185SAPI   H4R21196   4.017   0.872  10.439 -1.5325 -1.5912  1.2926
  185SAPI   H4S21197   3.916   1.015  10.374  0.2274 -0.9248 -0.7287
  185SAPI   C2521198   3.924   0.846  10.254 -0.3437 -0.4209 -0.2495
  185SAPI   H5R21199   4.005   0.775  10.229  0.6182  0.9797 -1.2422
  185SAPI   C2621200   3.856   0.887  10.146 -0.1441 -0.5324 -0.2504
  185SAPI   H6R21201   3.858   0.820  10.059 -2.2052 -1.0307  0.0427
  185SAPI   C2721202   3.771   1.012  10.138  0.3424 -1.2460 -0.2781
  185SAPI   H7R21203   3.765   1.072  10.232 -0.1560 -1.4627 -0.1670
  185SAPI   H7S21204   3.670   0.968  10.130  0.3069 -1.3743  0.7024
  185SAPI   C2821205   3.807   1.093  10.015  0.5300  0.2479 -0.2949
  185SAPI   H8R21206   3.833   1.191  10.059 -1.4224  0.0784  1.3613
  185SAPI   C2921207   3.790   1.068   9.884 -1.1331  1.0406 -0.2582
  185SAPI   H9R21208   3.824   1.147   9.816 -1.2387  1.1977 -0.1296
  185SAPI  C21021209   3.747   0.942   9.817 -0.2644 -0.4948  0.1493
  185SAPI  H10R21210   3.752   0.860   9.893  2.1228  0.9220  1.6217
  185SAPI  H10S21211   3.827   0.910   9.747  1.9486 -0.3304  2.4332
  185SAPI  C21121212   3.624   0.945   9.740  0.2141 -0.2689 -0.1882
  185SAPI  H11R21213   3.544   0.983   9.805  1.0458 -1.2843  1.4836
  185SAPI  C21221214   3.601   0.906   9.608 -0.2118 -0.0929  0.0884
  185SAPI  H12R21215   3.498   0.907   9.570 -0.5797 -2.0495  0.9092
  185SAPI  C21321216   3.702   0.852   9.510 -0.1051  0.4218  0.5138
  185SAPI  H13R21217   3.643   0.805   9.428  0.8317  1.3188 -0.7147
  185SAPI  H13S21218   3.754   0.764   9.554  0.9996 -0.2441 -1.9452
  185SAPI  C21421219   3.805   0.954   9.456 -0.0905  0.5929 -0.4656
  185SAPI  H14R21220   3.829   1.033   9.528 -0.4743  0.8674 -0.6400
  185SAPI  C21521221   3.857   0.948   9.327 -0.5439  0.7583  0.0923
  185SAPI  H15R21222   3.927   1.022   9.286 -1.2016  1.9327  1.0306
  185SAPI  C21621223   3.810   0.851   9.218  0.2824  0.1835 -0.1769
  185SAPI  H16R21224   3.702   0.862   9.193  0.5951  1.3079 -1.1001
  185SAPI  H16S21225   3.813   0.743   9.243  0.2266 -0.3626 -2.3776
  185SAPI  C21721226   3.882   0.865   9.077  0.3015 -0.6466 -0.2029
  185SAPI  H17R21227   3.988   0.832   9.090  0.5391  0.3722  0.5478
  185SAPI  H17S21228   3.867   0.971   9.048 -3.1484 -0.0993  2.8559
  185SAPI  C21821229   3.819   0.775   8.970  0.3686  0.7439  0.2350
  185SAPI  H18R21230   3.712   0.801   8.951  0.2542 -0.4203 -0.8905
  185SAPI  H18S21231   3.816   0.673   9.014 -1.7176  1.6746  2.4579
  185SAPI  C21921232   3.897   0.788   8.837 -0.0172  0.1540  0.2600
  185SAPI  H19R21233   3.863   0.701   8.777  0.7652  0.4406 -0.6202
  185SAPI  H19S21234   4.006   0.776   8.856 -0.0204  2.0578  1.8364
  185SAPI  C22021235   3.864   0.915   8.754  0.3510  0.3873 -1.0145
  185SAPI  H20R21236   3.753   0.920   8.751  0.0079 -3.3841  0.2056
  185SAPI  H20S21237   3.919   0.915   8.658  2.5425  0.1212  0.1550
  185SAPI  H20T21238   3.898   1.002   8.815  0.4305 -0.5657  0.3595
  185SAPI   C3321239   3.270   0.746  10.142  0.1153  0.5788  0.4797
  185SAPI   H3X21240   3.260   0.635  10.137  2.2104  0.4205 -1.4975
  185SAPI   H3Y21241   3.378   0.770  10.154 -0.0411  0.9256  1.3069
  185SAPI   C3421242   3.218   0.803  10.006  0.2331  0.3643 -0.1140
  185SAPI   H4X21243   3.107   0.804  10.014  0.2032 -2.0943  0.6207
  185SAPI   H4Y21244   3.250   0.728   9.931 -0.4032 -1.1219  1.0564
  185SAPI   C3521245   3.255   0.941   9.953 -0.6474 -0.0475 -0.4964
  185SAPI   H5X21246   3.361   0.956   9.924 -0.4320 -0.7492 -0.1026
  185SAPI   H5Y21247   3.230   1.009  10.037  1.0834  1.6913 -1.3204
  185SAPI   C3621248   3.166   0.973   9.824 -0.5852 -0.3037 -0.6635
  185SAPI   H6X21249   3.189   1.080   9.804 -0.7286 -0.1641 -0.0998
  185SAPI   H6Y21250   3.059   0.954   9.847 -0.2519 -0.9173  0.4507
  185SAPI   C3721251   3.212   0.903   9.694 -0.1761 -0.2274 -0.1767
  185SAPI   H7X21252   3.175   0.798   9.697 -1.1791  0.0897 -0.7175
  185SAPI   H7Y21253   3.322   0.904   9.683 -0.3509 -0.2622 -2.7012
  185SAPI   C3821254   3.165   0.959   9.563  0.1955 -0.8170  0.0990
  185SAPI   H8X21255   3.183   0.892   9.476  0.7493 -0.2545 -0.2252
  185SAPI   H8Y21256   3.216   1.057   9.551  0.2614 -0.6027  1.8504
  185SAPI   C3921257   3.005   0.979   9.564 -1.0010 -0.9087  0.0318
  185SAPI   H9X21258   2.990   1.049   9.649  1.7835  1.6881 -1.4250
  185SAPI   H9Y21259   2.957   0.880   9.582 -0.9274 -1.1869 -1.2085
  185SAPI  C31021260   2.948   1.053   9.440  0.7670 -0.6293  1.0010
  185SAPI  H10X21261   2.992   1.155   9.433  1.4509 -0.9477  0.5217
  185SAPI  H10Y21262   2.839   1.062   9.456  0.9874 -0.6611  2.6839
  185SAPI  C31121263   2.958   0.978   9.308 -0.2160 -0.0044  0.2791
  185SAPI  H11X21264   2.933   0.871   9.321  1.2846 -0.1576  2.3868
  185SAPI  H11Y21265   3.066   0.973   9.283  0.1436 -0.7520  1.8560
  185SAPI  C31221266   2.879   1.054   9.197  0.5746  0.1154  0.1479
  185SAPI  H12X21267   2.921   1.157   9.199 -0.1406  0.4141  0.2784
  185SAPI  H12Y21268   2.773   1.050   9.232 -0.6501  0.3260 -3.2372
  185SAPI  C31321269   2.884   0.982   9.058 -0.3407 -0.2052  0.1974
  185SAPI  H13X21270   2.864   0.874   9.073  0.7449 -0.6505 -1.3506
  185SAPI  H13Y21271   2.988   0.993   9.020 -0.5483 -1.6738 -0.8846
  185SAPI  C31421272   2.792   1.041   8.946 -0.1139 -0.8252  0.0279
  185SAPI  H14X21273   2.813   1.150   8.935 -0.1228 -0.7953  0.2876
  185SAPI  H14Y21274   2.689   1.022   8.983 -0.8417  1.5701 -0.5622
  185SAPI  C31521275   2.832   0.984   8.813  0.0948 -0.1628  0.4149
  185SAPI  H15X21276   2.800   0.878   8.799  0.5854 -0.0405 -2.3836
  185SAPI  H15Y21277   2.936   1.001   8.777 -1.1354  1.2640 -2.9192
  185SAPI  C31621278   2.750   1.048   8.699 -0.3126 -0.2840  0.8954
  185SAPI  H16X21279   2.744   1.158   8.692 -1.8588 -0.4291 -0.8893
  185SAPI  H16Y21280   2.643   1.019   8.693  0.4182 -3.4973  1.4497
  185SAPI  C31721281   2.808   1.012   8.562 -0.2875  0.4071 -0.9146
  185SAPI  H17X21282   2.811   0.902   8.549  0.4035  0.5402 -1.9587
  185SAPI  H17Y21283   2.913   1.047   8.559  0.2989 -0.6642  2.4776
  185SAPI  C31821284   2.740   1.083   8.444  0.1106  0.0216  0.7845
  185SAPI  H18X21285   2.754   1.192   8.457  1.9974 -0.4411  3.4174
  185SAPI  H18Y21286   2.632   1.059   8.452 -0.3439  2.1984  2.2024
  185SAPI  H18Z21287   2.776   1.031   8.353 -1.0075 -2.2062  1.5448
  186SAPI   C1221288   3.822   5.831  11.210  0.8077  0.1270 -0.4375
  186SAPI    H221289   3.927   5.797  11.218  1.0790  1.3392  1.8281
  186SAPI    O221290   3.740   5.722  11.235 -0.1304 -0.7779 -0.2787
  186SAPI   HO221291   3.739   5.664  11.158 -0.1888 -1.1309 -0.0114
  186SAPI   C1321292   3.804   5.935  11.321 -0.5712  0.2056  0.1362
  186SAPI    H321293   3.884   6.007  11.293 -1.7641  1.8057  0.6924
  186SAPI    O321294   3.841   5.886  11.454 -0.1505 -0.6342 -0.2148
  186SAPI   HO321295   3.793   5.804  11.473  1.1232 -1.0711  1.3522
  186SAPI   C1421296   3.665   6.007  11.323 -0.2709 -0.4222 -0.9121
  186SAPI    H421297   3.589   5.930  11.348 -0.2747 -0.3042 -0.5545
  186SAPI    O421298   3.660   6.109  11.424  0.0151 -0.9519  0.1847
  186SAPI   HO421299   3.708   6.067  11.496  0.0528  1.2366  1.5486
  186SAPI   C1521300   3.627   6.062  11.190  0.4700 -0.1710  0.2329
  186SAPI    H521301   3.698   6.144  11.166  1.9816 -0.8406  2.1044
  186SAPI    O521302   3.492   6.113  11.189 -0.1258  0.1270 -0.4187
  186SAPI   HO521303   3.492   6.198  11.145  1.7224  0.5231  0.2870
  186SAPI   C1621304   3.652   5.953  11.082 -0.7064 -0.2895 -0.2326
  186SAPI    H621305   3.573   5.877  11.101  0.5708 -1.1814  1.8720
  186SAPI    O621306   3.628   6.011  10.957  0.5693 -0.7362  0.2788
  186SAPI   HO621307   3.648   5.940  10.895  0.1640 -1.0597  0.5112
  186SAPI   C1121308   3.795   5.891  11.079  0.1910 -0.0662 -0.1253
  186SAPI    H121309   3.869   5.973  11.069  0.6000 -0.2604  1.1451
  186SAPI     P21310   3.894   5.821  10.841  0.0348 -0.0924  0.1882
  186SAPI   O1321311   3.928   5.688  10.785 -0.4413 -0.2573 -0.3722
  186SAPI   O1421312   4.004   5.923  10.860 -0.0851  0.1931  0.1485
  186SAPI   O1221313   3.825   5.786  10.984 -0.2859 -0.8384  0.4005
  186SAPI   O1121314   3.775   5.890  10.760 -0.1245 -0.4083 -0.3385
  186SAPI    C121315   3.682   5.802  10.685 -0.1325 -0.5714  0.0649
  186SAPI    HA21316   3.649   5.722  10.755 -0.5771 -0.7505 -0.3473
  186SAPI    HB21317   3.591   5.866  10.685  0.2837  0.0316 -1.0499
  186SAPI    C221318   3.725   5.754  10.548 -0.0367  0.0533 -0.0091
  186SAPI    HS21319   3.832   5.723  10.550 -0.4460 -1.7192 -1.6923
  186SAPI   O2121320   3.707   5.870  10.468 -0.1988  1.3911 -0.2965
  186SAPI   C2121321   3.755   5.861  10.342  0.6502  0.3575  0.0169
  186SAPI   O2221322   3.825   5.770  10.293  0.4770 -0.0315  0.3155
  186SAPI   C2221323   3.695   5.976  10.256 -0.4371  0.1958  0.4919
  186SAPI   H2R21324   3.584   5.976  10.269 -0.2354 -2.6285  3.7649
  186SAPI   H2S21325   3.706   6.073  10.309 -0.9550 -0.0100  0.9953
  186SAPI    C321326   3.640   5.628  10.496  0.2115 -0.3812 -0.0917
  186SAPI    HX21327   3.675   5.537  10.551  0.4008 -0.0530  0.3320
  186SAPI    HY21328   3.663   5.618  10.388 -4.2034  0.8005 -1.3048
  186SAPI   O3121329   3.504   5.654  10.504  0.3706  0.6817  0.6533
  186SAPI   C3121330   3.425   5.561  10.557 -0.2162 -0.1074 -0.9915
  186SAPI   O3221331   3.460   5.458  10.612  0.1290  0.1729  0.4445
  186SAPI   C3221332   3.282   5.599  10.548 -0.1743  0.1064  0.5949
  186SAPI   H2X21333   3.279   5.662  10.457 -3.3664 -0.1589  0.4000
  186SAPI   H2Y21334   3.234   5.650  10.635 -1.2722  0.6181 -0.2903
  186SAPI   C2321335   3.734   5.986  10.106  0.4055  0.2080 -0.1845
  186SAPI   H3R21336   3.708   5.888  10.061 -1.4216  0.4712  0.2069
  186SAPI   H3S21337   3.845   5.989  10.110  0.3772  1.8444  3.1947
  186SAPI   C2421338   3.665   6.104  10.035  0.2005 -0.7014  0.3674
  186SAPI   H4R21339   3.722   6.118   9.940 -3.6186  1.0150 -1.9139
  186SAPI   H4S21340   3.685   6.192  10.099 -0.1677 -1.9603  2.3009
  186SAPI   C2521341   3.515   6.091  10.013  0.6279  0.3485 -0.4259
  186SAPI   H5R21342   3.447   6.066  10.095  0.7416  0.0421 -0.4205
  186SAPI   C2621343   3.460   6.108   9.898  0.2032 -0.1228 -0.1266
  186SAPI   H6R21344   3.350   6.111   9.885  0.1647 -1.2002 -0.1438
  186SAPI   C2721345   3.531   6.137   9.768 -0.3725  0.6146 -0.1193
  186SAPI   H7R21346   3.613   6.211   9.780 -0.0889  0.4296 -0.8960
  186SAPI   H7S21347   3.455   6.180   9.700 -0.1650 -0.0356 -0.7717
  186SAPI   C2821348   3.588   6.012   9.699  0.1900 -0.8583  0.5628
  186SAPI   H8R21349   3.597   5.926   9.767 -2.5162 -1.3196  0.4471
  186SAPI   C2921350   3.621   6.007   9.569  0.7328 -0.0202 -0.3106
  186SAPI   H9R21351   3.664   5.916   9.524 -3.2632 -0.6646 -3.3053
  186SAPI  C21021352   3.618   6.117   9.464 -0.4522 -0.4703 -0.8091
  186SAPI  H10R21353   3.723   6.153   9.452 -0.5957  0.7078  0.9897
  186SAPI  H10S21354   3.570   6.208   9.507  1.2421  0.6265 -1.1443
  186SAPI  C21121355   3.553   6.072   9.333 -0.2915  0.2287  0.3790
  186SAPI  H11R21356   3.454   6.024   9.339  1.4353 -3.4998  4.1742
  186SAPI  C21221357   3.615   6.077   9.214 -0.5308  0.1348  0.3359
  186SAPI  H12R21358   3.546   6.050   9.133 -5.1399 -1.8754  4.4593
  186SAPI  C21321359   3.753   6.122   9.174  0.5452 -1.0564  0.0743
  186SAPI  H13R21360   3.823   6.058   9.231 -0.4919 -0.3320  2.2994
  186SAPI  H13S21361   3.764   6.219   9.226 -1.9667 -1.0819  0.7954
  186SAPI  C21421362   3.770   6.141   9.031 -0.2869  0.2158 -0.5909
  186SAPI  H14R21363   3.677   6.155   8.973  0.2181  1.7055 -1.0908
  186SAPI  C21521364   3.890   6.138   8.967  0.6030 -0.1793  0.6627
  186SAPI  H15R21365   3.889   6.140   8.857 -1.7321 -2.4303  0.5404
  186SAPI  C21621366   4.029   6.105   9.034 -0.0539 -0.1897  0.2132
  186SAPI  H16R21367   4.096   6.034   8.982  2.6912  1.9540  0.5533
  186SAPI  H16S21368   4.010   6.060   9.134  1.0534  0.7640  0.8918
  186SAPI  C21721369   4.102   6.245   9.048 -0.1561 -0.3355 -0.7418
  186SAPI  H17R21370   4.187   6.227   9.117  2.0159  2.0337 -2.6330
  186SAPI  H17S21371   4.031   6.317   9.095  2.3593  4.2441 -3.3015
  186SAPI  C21821372   4.183   6.286   8.928  0.0301  0.0415  0.8830
  186SAPI  H18R21373   4.116   6.281   8.839 -1.0107  0.3277  1.6285
  186SAPI  H18S21374   4.254   6.203   8.910  1.1590  0.7810  1.7876
  186SAPI  C21921375   4.266   6.417   8.936  0.4054  0.0243 -0.1757
  186SAPI  H19R21376   4.323   6.418   9.031 -2.4611 -2.2595  1.7869
  186SAPI  H19S21377   4.197   6.504   8.943  2.4512  2.0038 -2.7082
  186SAPI  C22021378   4.352   6.447   8.820 -0.0546 -0.8805 -0.3646
  186SAPI  H20R21379   4.394   6.350   8.786 -0.1241 -1.6840  1.6896
  186SAPI  H20S21380   4.439   6.510   8.848 -1.6842  1.9802 -1.3754
  186SAPI  H20T21381   4.303   6.497   8.735 -1.2053 -0.0856  0.7231
  186SAPI   C3321382   3.191   5.472  10.521 -0.7434 -0.7912  0.6990
  186SAPI   H3X21383   3.088   5.497  10.554 -0.0724 -0.0343  2.3268
  186SAPI   H3Y21384   3.217   5.391  10.592  0.8321  0.7028  1.9129
  186SAPI   C3421385   3.189   5.421  10.377  0.1713 -0.1628  0.1044
  186SAPI   H4X21386   3.286   5.370  10.360 -0.0344  0.0833 -2.1179
  186SAPI   H4Y21387   3.190   5.504  10.303 -0.6043  1.2766  1.6587
  186SAPI   C3521388   3.079   5.320  10.345  0.2538  0.1720 -0.0414
  186SAPI   H5X21389   2.988   5.384  10.341  1.6177  2.2077  0.1625
  186SAPI   H5Y21390   3.071   5.234  10.414  1.7126 -2.6773 -3.1284
  186SAPI   C3621391   3.088   5.247  10.215  0.0188  0.1730  0.1395
  186SAPI   H6X21392   3.179   5.185  10.198  0.8811  1.0888  1.2720
  186SAPI   H6Y21393   3.081   5.325  10.137  1.0661  0.5198  0.3756
  186SAPI   C3721394   2.964   5.158  10.193  0.2806 -0.7134 -0.5427
  186SAPI   H7X21395   2.880   5.230  10.202  1.3105  0.8181 -2.3749
  186SAPI   H7Y21396   2.956   5.097  10.286  2.3264  1.8136  1.4560
  186SAPI   C3821397   2.951   5.068  10.065 -0.0607  0.2678  0.1382
  186SAPI   H8X21398   2.872   4.992  10.079  1.5624 -1.8781 -1.7055
  186SAPI   H8Y21399   3.039   5.000  10.063  0.0920  0.4818 -0.5384
  186SAPI   C3921400   2.925   5.152   9.939 -0.0701  0.0341  0.2559
  186SAPI   H9X21401   3.002   5.228   9.914 -0.2424  0.6491  1.4871
  186SAPI   H9Y21402   2.836   5.218   9.942 -0.5506 -0.6425  1.5881
  186SAPI  C31021403   2.915   5.060   9.820  0.4273  0.7175 -0.3310
  186SAPI  H10X21404   2.822   5.001   9.838 -0.2955  1.2384 -2.0654
  186SAPI  H10Y21405   2.997   4.986   9.829 -1.9997 -2.0264  0.9265
  186SAPI  C31121406   2.916   5.133   9.680 -0.2630  0.8231 -0.2091
  186SAPI  H11X21407   3.003   5.201   9.678  0.2482  0.1722 -0.7274
  186SAPI  H11Y21408   2.827   5.188   9.643  0.5755  0.8923 -2.2897
  186SAPI  C31221409   2.939   5.036   9.564  0.6736 -0.2898 -0.0797
  186SAPI  H12X21410   2.854   4.965   9.573 -1.2928  1.6816 -1.9854
  186SAPI  H12Y21411   3.034   4.979   9.578 -0.4345 -2.3390 -0.5082
  186SAPI  C31321412   2.923   5.110   9.428 -0.0875  0.4559  0.5868
  186SAPI  H13X21413   2.987   5.201   9.431 -0.5790  0.9146 -1.2036
  186SAPI  H13Y21414   2.819   5.147   9.420 -0.9342 -1.5791  1.3968
  186SAPI  C31421415   2.977   5.028   9.309  0.4715  0.0765  0.1702
  186SAPI  H14X21416   2.912   4.940   9.291 -0.2024  0.7741 -0.9214
  186SAPI  H14Y21417   3.082   5.000   9.332  0.3398 -0.1928  0.4509
  186SAPI  C31521418   2.960   5.106   9.179  0.6637 -0.2399 -0.3897
  186SAPI  H15X21419   3.034   5.074   9.103  0.7132  0.7122 -0.7452
  186SAPI  H15Y21420   2.974   5.212   9.207 -0.0538 -0.0887 -0.5782
  186SAPI  C31621421   2.818   5.092   9.125  0.7790  0.0746  1.0409
  186SAPI  H16X21422   2.748   5.123   9.205 -0.2911  3.5893 -1.0604
  186SAPI  H16Y21423   2.803   4.985   9.099  2.2354  0.5187 -2.2166
  186SAPI  C31721424   2.797   5.184   9.006  0.1599  0.3949 -0.2876
  186SAPI  H17X21425   2.827   5.286   9.036  0.7844  0.2622 -0.4498
  186SAPI  H17Y21426   2.687   5.190   8.989  0.3965  0.5089 -1.9595
  186SAPI  C31821427   2.871   5.156   8.874  0.2513 -0.2893 -0.2564
  186SAPI  H18X21428   2.982   5.156   8.873  0.2712 -1.2580 -2.5482
  186SAPI  H18Y21429   2.837   5.225   8.794 -0.9575  1.0509  1.3218
  186SAPI  H18Z21430   2.853   5.048   8.856  0.0501 -0.6294  1.6988
  187SAPI   C1221431   0.115   5.405   6.225 -0.5346  0.5105  0.1613
  187SAPI    H221432   0.116   5.436   6.332 -0.2344  0.0259  0.3031
  187SAPI    O221433   0.176   5.270   6.216 -0.1354  0.3088  0.0631
  187SAPI   HO221434   0.194   5.224   6.298  0.1527  1.3614  0.5983
  187SAPI   C1321435  -0.022   5.415   6.167  0.4706  0.3920 -0.4372
  187SAPI    H321436  -0.061   5.519   6.174 -1.7568 -0.5175  2.6790
  187SAPI    O321437  -0.113   5.338   6.246  0.9015 -0.6064  0.0909
  187SAPI   HO321438  -0.091   5.245   6.245 -1.7379 -1.3810  1.8153
  187SAPI   C1421439  -0.024   5.375   6.020 -0.0615 -0.1866 -0.1019
  187SAPI    H421440   0.013   5.271   6.012  3.5618  0.9997 -0.6331
  187SAPI    O421441  -0.150   5.381   5.963  0.5937  0.2661  0.1422
  187SAPI   HO421442  -0.195   5.297   5.958 -3.2677  2.0448  1.1760
  187SAPI   C1521443   0.069   5.465   5.941  0.6805  0.4397  0.2931
  187SAPI    H521444   0.030   5.569   5.937  1.5874  0.7869  0.3149
  187SAPI    O521445   0.086   5.419   5.801 -0.6325  0.2161 -0.1951
  187SAPI   HO521446   0.010   5.449   5.750 -1.6239 -1.2805  0.3483
  187SAPI   C1621447   0.208   5.471   5.999 -0.0795 -0.4883 -0.4353
  187SAPI    H621448   0.251   5.370   5.981 -2.1638 -1.4551 -0.2541
  187SAPI    O621449   0.290   5.562   5.927  0.3117  0.6131 -0.6458
  187SAPI   HO621450   0.306   5.641   5.977 -0.6099  0.4656 -0.0835
  187SAPI   C1121451   0.199   5.503   6.146  0.3411 -0.0700 -0.5985
  187SAPI    H121452   0.146   5.599   6.163 -1.3534 -0.7797 -1.6261
  187SAPI     P21453   0.417   5.650   6.234 -0.0766 -0.4271  0.3070
  187SAPI   O1321454   0.391   5.744   6.125 -0.2264  0.0532  0.6062
  187SAPI   O1421455   0.560   5.618   6.254  0.5370 -0.1032  0.1989
  187SAPI   O1221456   0.330   5.511   6.202  0.0826  0.0291 -0.4213
  187SAPI   O1121457   0.362   5.707   6.369  0.5966  0.3134  0.1448
  187SAPI    C121458   0.292   5.639   6.467  0.0109  0.1617 -0.0475
  187SAPI    HA21459   0.182   5.641   6.452  0.3041 -0.5716 -2.7533
  187SAPI    HB21460   0.320   5.531   6.464  3.9326  1.0087 -0.2183
  187SAPI    C221461   0.315   5.701   6.613  0.6301  0.4073 -0.0086
  187SAPI    HS21462   0.406   5.764   6.601 -0.3864  1.8673 -0.4591
  187SAPI   O2121463   0.332   5.603   6.719  0.2824 -0.0829  0.5237
  187SAPI   C2121464   0.447   5.535   6.700  0.5568 -0.1533  1.3584
  187SAPI   O2221465   0.525   5.551   6.606 -0.1177  0.2353 -0.7029
  187SAPI   C2221466   0.462   5.428   6.805  0.3227  0.2959  0.8643
  187SAPI   H2R21467   0.563   5.430   6.852  0.4196 -0.3669  0.7041
  187SAPI   H2S21468   0.391   5.456   6.885  0.2151  1.2243  0.4492
  187SAPI    C321469   0.197   5.798   6.650 -0.0715  0.6083 -0.3195
  187SAPI    HX21470   0.098   5.748   6.659  1.1951 -2.1995 -0.7138
  187SAPI    HY21471   0.195   5.862   6.560 -0.1438  1.6741  0.4251
  187SAPI   O3121472   0.225   5.877   6.771  0.8408  0.1509  0.2513
  187SAPI   C3121473   0.296   5.989   6.766 -0.2472 -0.5812  1.0505
  187SAPI   O3221474   0.361   6.026   6.663  0.1052  0.2367  0.0469
  187SAPI   C3221475   0.302   6.051   6.907 -0.6886 -0.2763  0.8765
  187SAPI   H2X21476   0.348   5.969   6.965 -0.8449 -0.2965  0.9720
  187SAPI   H2Y21477   0.197   6.071   6.937 -0.4563  0.3245  1.3036
  187SAPI   C2321478   0.424   5.275   6.768 -0.0942 -0.4128 -0.3362
  187SAPI   H3R21479   0.476   5.267   6.670  0.3712  1.5395 -0.2937
  187SAPI   H3S21480   0.316   5.275   6.740  0.5434  4.0981 -4.1971
  187SAPI   C2421481   0.480   5.164   6.853 -0.7613  0.0019 -0.0641
  187SAPI   H4R21482   0.589   5.182   6.858 -0.5500  0.8907 -4.2747
  187SAPI   H4S21483   0.459   5.072   6.794  1.8303 -0.5674 -0.1875
  187SAPI   C2521484   0.403   5.173   6.979  0.2563 -0.4449 -0.3560
  187SAPI   H5R21485   0.294   5.181   6.967  0.3642 -0.5881 -1.5464
  187SAPI   C2621486   0.452   5.183   7.103  0.5489 -0.2850  0.0166
  187SAPI   H6R21487   0.382   5.194   7.187  1.2382 -1.4578  0.7601
  187SAPI   C2721488   0.596   5.188   7.136 -0.0888 -0.3300  0.4335
  187SAPI   H7R21489   0.657   5.195   7.043 -3.9118  0.3660 -2.2698
  187SAPI   H7S21490   0.630   5.096   7.187  1.4961  0.3817  0.7129
  187SAPI   C2821491   0.623   5.314   7.219  0.5403  0.7264  0.0164
  187SAPI   H8R21492   0.654   5.408   7.171 -1.9055  0.7725 -1.6284
  187SAPI   C2921493   0.625   5.324   7.357 -0.0086 -0.3337  0.2708
  187SAPI   H9R21494   0.648   5.421   7.404 -1.3413 -1.0065  2.4787
  187SAPI  C21021495   0.605   5.210   7.454  0.3048  0.2869  0.3787
  187SAPI  H10R21496   0.704   5.190   7.501  0.1015 -1.6889  0.0808
  187SAPI  H10S21497   0.577   5.121   7.394 -2.5452  1.3308  0.0172
  187SAPI  C21121498   0.503   5.251   7.552  0.0362  0.1543  0.6517
  187SAPI  H11R21499   0.420   5.311   7.510 -1.9819 -1.9373  1.4654
  187SAPI  C21221500   0.495   5.200   7.675 -0.0150  0.3014  0.9262
  187SAPI  H12R21501   0.410   5.245   7.728  0.1966  2.4403 -0.4483
  187SAPI  C21321502   0.587   5.101   7.738 -0.4467  0.1527 -0.3496
  187SAPI  H13R21503   0.661   5.053   7.670 -1.7969  0.1361 -1.8545
  187SAPI  H13S21504   0.524   5.016   7.769 -1.2501  1.3681  1.5383
  187SAPI  C21421505   0.674   5.147   7.857 -0.2834  0.8166 -0.4489
  187SAPI  H14R21506   0.778   5.173   7.830  1.2978 -3.3002  0.9444
  187SAPI  C21521507   0.640   5.128   7.983  0.5618  0.7302 -0.4913
  187SAPI  H15R21508   0.717   5.151   8.058  0.3406 -2.0585  0.6936
  187SAPI  C21621509   0.511   5.068   8.053 -0.5240  0.1227  0.8792
  187SAPI  H16R21510   0.425   5.093   7.987 -0.1914  1.6027  0.9558
  187SAPI  H16S21511   0.497   5.118   8.151 -2.8116 -0.9392  1.1415
  187SAPI  C21721512   0.527   4.920   8.054 -0.9059  0.1941 -0.5022
  187SAPI  H17R21513   0.608   4.884   8.120 -1.9645 -0.2806  0.5834
  187SAPI  H17S21514   0.548   4.883   7.952 -0.7508 -0.2554 -0.3115
  187SAPI  C21821515   0.408   4.838   8.087  0.7433  0.1248  0.3668
  187SAPI  H18R21516   0.420   4.747   8.025  1.3389  3.3394 -4.8912
  187SAPI  H18S21517   0.315   4.890   8.056  1.2993  1.2626  0.5357
  187SAPI  C21921518   0.398   4.814   8.239  0.1410 -1.1540  0.0868
  187SAPI  H19R21519   0.371   4.909   8.290  0.9059 -1.2051  0.6082
  187SAPI  H19S21520   0.494   4.773   8.276 -0.2745 -2.6057 -0.3782
  187SAPI  C22021521   0.273   4.736   8.264  0.0260  0.5834  0.8862
  187SAPI  H20R21522   0.246   4.733   8.372 -1.5661 -0.5419  0.4982
  187SAPI  H20S21523   0.259   4.636   8.217 -0.1998  1.4848 -1.0482
  187SAPI  H20T21524   0.184   4.786   8.220 -0.6531 -0.7449  0.6924
  187SAPI   C3321525   0.397   6.174   6.913  0.1885 -0.0194  0.3695
  187SAPI   H3X21526   0.360   6.241   6.832 -0.0645  0.0511  0.5418
  187SAPI   H3Y21527   0.504   6.153   6.891  0.1267 -0.1655  0.2035
  187SAPI   C3421528   0.384   6.244   7.047 -0.3083 -0.0139 -0.8730
  187SAPI   H4X21529   0.288   6.298   7.059  0.5280  2.1204 -3.1102
  187SAPI   H4Y21530   0.465   6.318   7.030  0.2041  0.3092  2.3866
  187SAPI   C3521531   0.437   6.166   7.171  0.2767  0.3086 -0.0063
  187SAPI   H5X21532   0.379   6.081   7.213 -2.4242  1.7320 -0.6274
  187SAPI   H5Y21533   0.435   6.251   7.242 -0.4156  1.1178 -0.9480
  187SAPI   C3621534   0.580   6.117   7.149  0.2423 -0.4861 -0.4243
  187SAPI   H6X21535   0.629   6.191   7.082  0.3813  0.0024  0.2173
  187SAPI   H6Y21536   0.571   6.017   7.100 -1.5178 -0.9786  0.8143
  187SAPI   C3721537   0.659   6.105   7.285  0.2389  0.0059  0.2995
  187SAPI   H7X21538   0.676   6.208   7.323  1.6325 -0.0305 -0.1469
  187SAPI   H7Y21539   0.759   6.072   7.249 -0.1700 -0.3477 -0.5444
  187SAPI   C3821540   0.605   6.015   7.391  0.3049  0.0591 -0.2789
  187SAPI   H8X21541   0.503   5.975   7.372  0.4108 -0.4975  0.2866
  187SAPI   H8Y21542   0.613   6.080   7.481  0.5960  2.7971 -2.1808
  187SAPI   C3921543   0.690   5.890   7.434 -0.6544 -0.1163  0.3079
  187SAPI   H9X21544   0.796   5.910   7.406 -1.1624  1.2782 -0.6896
  187SAPI   H9Y21545   0.674   5.809   7.359 -0.3177  0.5464 -0.5008
  187SAPI  C31021546   0.668   5.841   7.579 -0.2271 -0.1943  0.7970
  187SAPI  H10X21547   0.704   5.736   7.581  1.2765  0.2941  0.9453
  187SAPI  H10Y21548   0.558   5.843   7.596 -0.7849 -0.0674 -2.2368
  187SAPI  C31121549   0.744   5.926   7.679  0.2443  0.5865 -0.6851
  187SAPI  H11X21550   0.698   6.026   7.688 -0.6502  0.0325  1.6811
  187SAPI  H11Y21551   0.853   5.940   7.657  0.7130 -2.5623 -0.7865
  187SAPI  C31221552   0.738   5.872   7.825 -0.3894  0.3412 -0.2046
  187SAPI  H12X21553   0.791   5.774   7.822  1.4235  1.1185  2.4957
  187SAPI  H12Y21554   0.634   5.865   7.862 -0.8842 -0.7895 -1.7040
  187SAPI  C31321555   0.805   5.970   7.920  0.1333  0.3148 -0.0189
  187SAPI  H13X21556   0.769   6.074   7.909  0.3201  0.5799  1.6652
  187SAPI  H13Y21557   0.912   5.970   7.890 -0.1389  4.7702 -1.7634
  187SAPI  C31421558   0.788   5.949   8.064 -0.1062  0.2536  0.6410
  187SAPI  H14X21559   0.783   5.841   8.087  0.4444 -0.2717 -1.4696
  187SAPI  H14Y21560   0.697   5.995   8.108 -0.6467  1.3858 -1.5124
  187SAPI  C31521561   0.900   6.012   8.146 -0.3026 -0.5629 -0.7122
  187SAPI  H15X21562   0.874   6.120   8.150  1.4223 -0.1658  1.8861
  187SAPI  H15Y21563   1.002   5.987   8.110  0.4112 -1.1706  1.5248
  187SAPI  C31621564   0.900   5.963   8.298  0.4129  0.8162  0.4791
  187SAPI  H16X21565   0.980   6.011   8.358 -0.0952  0.5731  1.3666
  187SAPI  H16Y21566   0.914   5.853   8.288 -1.2708  0.5675  0.4892
  187SAPI  C31721567   0.773   5.996   8.381  0.2293  0.6103 -0.3163
  187SAPI  H17X21568   0.780   5.928   8.468 -0.2762 -0.4466 -1.0852
  187SAPI  H17Y21569   0.679   5.971   8.326 -0.2237  0.9367  0.2972
  187SAPI  C31821570   0.753   6.143   8.416 -0.1238 -0.3448  0.4589
  187SAPI  H18X21571   0.812   6.166   8.507 -1.2283  0.6510  0.9576
  187SAPI  H18Y21572   0.646   6.172   8.423 -0.1314 -0.2743  0.0410
  187SAPI  H18Z21573   0.800   6.203   8.336 -0.3319  1.3470  1.5465
  188SAPI   C1221574   2.324   2.343   6.268  0.3656 -0.5783 -0.6515
  188SAPI    H221575   2.330   2.429   6.197 -3.3112 -0.1183 -0.5929
  188SAPI    O221576   2.196   2.305   6.302 -0.2150 -0.3681 -0.4179
  188SAPI   HO221577   2.149   2.389   6.306  0.1463 -0.2010  1.2103
  188SAPI   C1321578   2.389   2.223   6.197 -0.8455 -0.5742 -0.0392
  188SAPI    H321579   2.491   2.263   6.177 -0.9153 -0.4112 -0.0638
  188SAPI    O321580   2.320   2.187   6.075 -0.3339 -0.0937 -0.3158
  188SAPI   HO321581   2.249   2.124   6.086 -1.8831  1.4955 -0.7783
  188SAPI   C1421582   2.412   2.103   6.287 -0.1469  0.4848 -0.3419
  188SAPI    H421583   2.310   2.067   6.312 -0.3287  2.1651  1.6210
  188SAPI    O421584   2.479   1.999   6.220 -0.7431  0.4712  0.0124
  188SAPI   HO421585   2.500   1.927   6.280  0.0068 -0.0209 -0.8125
  188SAPI   C1521586   2.475   2.143   6.422  0.0118  0.7448  0.0301
  188SAPI    H521587   2.578   2.180   6.403  0.2969 -0.4077 -0.8116
  188SAPI    O521588   2.516   2.029   6.510  0.5108  0.4099  0.2445
  188SAPI   HO521589   2.440   1.971   6.515 -1.0590  2.1633 -1.4194
  188SAPI   C1621590   2.402   2.253   6.487  0.1452  0.2605  0.2729
  188SAPI    H621591   2.294   2.231   6.501  0.4297 -2.8260 -1.5146
  188SAPI    O621592   2.463   2.290   6.610  0.3463  0.0941 -0.1000
  188SAPI   HO621593   2.421   2.375   6.623  0.8440  0.2520  0.5417
  188SAPI   C1121594   2.404   2.373   6.393 -0.1648 -0.4729 -0.1627
  188SAPI    H121595   2.511   2.380   6.364 -0.5541  0.4191 -1.5139
  188SAPI     P21596   2.419   2.639   6.433 -0.2958 -0.1908 -0.1915
  188SAPI   O1321597   2.327   2.754   6.442 -0.6165 -0.0314 -0.1553
  188SAPI   O1421598   2.510   2.636   6.312 -0.3003  0.0695  0.1042
  188SAPI   O1221599   2.342   2.494   6.441 -0.3839  0.0863 -0.1109
  188SAPI   O1121600   2.506   2.650   6.563 -0.3238  0.2346 -0.1489
  188SAPI    C121601   2.646   2.612   6.554  0.5146 -0.1115 -0.0409
  188SAPI    HA21602   2.656   2.518   6.497 -2.5926  0.8789 -2.5337
  188SAPI    HB21603   2.711   2.692   6.513  0.2987 -0.0670 -0.2960
  188SAPI    C221604   2.696   2.587   6.704 -1.0824 -0.5548 -0.1347
  188SAPI    HS21605   2.626   2.512   6.746  0.2625 -3.0436 -2.1279
  188SAPI   O2121606   2.696   2.719   6.774 -0.4760 -0.3672 -0.0770
  188SAPI   C2121607   2.641   2.706   6.893  0.0128 -0.2841 -0.1268
  188SAPI   O2221608   2.608   2.605   6.953  0.5269 -0.0775 -0.4262
  188SAPI   C2221609   2.628   2.837   6.968  0.1042  0.1572  0.4758
  188SAPI   H2R21610   2.706   2.905   6.927 -2.2874  2.4688 -0.5188
  188SAPI   H2S21611   2.527   2.871   6.938 -0.1260 -1.1177 -0.2760
  188SAPI    C321612   2.837   2.525   6.717  0.1193  0.3918 -0.0846
  188SAPI    HX21613   2.907   2.608   6.691 -1.1756  1.3989 -0.4212
  188SAPI    HY21614   2.849   2.445   6.640 -2.9766 -0.8160  0.5599
  188SAPI   O3121615   2.858   2.477   6.851 -0.0315 -0.5892  0.8160
  188SAPI   C3121616   2.799   2.358   6.884 -0.8245 -0.1771  0.1123
  188SAPI   O3221617   2.732   2.293   6.809  0.4566 -0.0249 -0.8199
  188SAPI   C3221618   2.825   2.312   7.032  0.6207  0.0314 -0.4119
  188SAPI   H2X21619   2.876   2.215   7.017 -0.3920 -0.4297 -0.9258
  188SAPI   H2Y21620   2.724   2.289   7.071  0.2743 -0.8469 -1.8085
  188SAPI   C2321621   2.650   2.822   7.119  0.4862  0.8481 -0.4581
  188SAPI   H3R21622   2.710   2.730   7.136 -1.0338 -0.0131  0.5468
  188SAPI   H3S21623   2.558   2.792   7.175  0.2425  1.3934 -0.5585
  188SAPI   C2421624   2.717   2.944   7.181  0.2754 -0.6918  0.4844
  188SAPI   H4R21625   2.648   3.031   7.171 -0.0160 -0.9135  0.5786
  188SAPI   H4S21626   2.812   2.969   7.129 -1.1661  1.4159 -1.3807
  188SAPI   C2521627   2.743   2.904   7.326 -0.5293  0.5422 -0.3722
  188SAPI   H5R21628   2.817   2.823   7.335 -0.4565  0.5694 -0.7152
  188SAPI   C2621629   2.709   2.965   7.443  0.0434  0.3938  0.0636
  188SAPI   H6R21630   2.752   2.938   7.541  0.1339  1.1437  0.2414
  188SAPI   C2721631   2.644   3.096   7.446  0.2291 -1.2451 -0.0795
  188SAPI   H7R21632   2.589   3.121   7.353 -0.3392 -0.1048  0.5424
  188SAPI   H7S21633   2.722   3.173   7.465 -1.5340  0.5944  0.0276
  188SAPI   C2821634   2.549   3.100   7.557 -0.1738 -0.1567  0.2060
  188SAPI   H8R21635   2.446   3.072   7.532  0.3146 -1.8561 -0.0498
  188SAPI   C2921636   2.565   3.121   7.685  0.8265  0.3283  0.1987
  188SAPI   H9R21637   2.477   3.147   7.745 -1.1775 -1.8043 -1.6263
  188SAPI  C21021638   2.701   3.139   7.745  0.1648 -0.7627 -0.2407
  188SAPI  H10R21639   2.762   3.209   7.685  1.8644 -1.4817  0.5824
  188SAPI  H10S21640   2.747   3.038   7.743 -0.3929 -1.0084 -0.8561
  188SAPI  C21121641   2.710   3.192   7.885  0.0472  0.2840  0.1615
  188SAPI  H11R21642   2.726   3.301   7.894  1.3964 -0.0457  2.2873
  188SAPI  C21221643   2.702   3.130   8.006 -0.3503 -0.3251 -0.3311
  188SAPI  H12R21644   2.717   3.199   8.090  3.2725  1.5244 -2.2517
  188SAPI  C21321645   2.680   2.989   8.036 -0.0652 -0.2716 -0.3222
  188SAPI  H13R21646   2.767   2.949   8.092  1.2660  0.3249 -1.8725
  188SAPI  H13S21647   2.672   2.928   7.943 -0.0936 -1.7242  0.6062
  188SAPI  C21421648   2.562   2.976   8.134 -0.6043  0.4221 -0.9271
  188SAPI  H14R21649   2.466   2.977   8.082 -1.0933  0.0058 -0.0612
  188SAPI  C21521650   2.564   2.953   8.265  0.4621 -0.0684 -0.5714
  188SAPI  H15R21651   2.468   2.943   8.317  1.0776 -0.7947  0.4672
  188SAPI  C21621652   2.679   2.942   8.354 -0.5304  0.6905 -0.2350
  188SAPI  H16R21653   2.782   2.942   8.313  0.9536 -1.9720  2.9819
  188SAPI  H16S21654   2.674   2.849   8.414 -1.7558  1.9126  1.6590
  188SAPI  C21721655   2.676   3.063   8.451  0.6296 -0.2484  0.4688
  188SAPI  H17R21656   2.669   3.153   8.387  0.8665 -0.4586  0.1431
  188SAPI  H17S21657   2.773   3.071   8.505 -0.7622  2.6036  2.8165
  188SAPI  C21821658   2.573   3.054   8.564  0.0514  0.0623 -0.1697
  188SAPI  H18R21659   2.604   2.968   8.627  2.2943 -0.5631 -2.0104
  188SAPI  H18S21660   2.477   3.027   8.514 -0.7400 -1.6439  2.0967
  188SAPI  C21921661   2.556   3.188   8.643  0.0722  0.4680  0.0090
  188SAPI  H19R21662   2.562   3.271   8.569 -1.1446  1.2112  0.7028
  188SAPI  H19S21663   2.644   3.191   8.711 -2.0663 -2.9503  3.2914
  188SAPI  C22021664   2.434   3.198   8.730  0.0112 -0.2608  0.1459
  188SAPI  H20R21665   2.336   3.190   8.679  0.0770 -0.9300  0.1126
  188SAPI  H20S21666   2.438   3.288   8.795  2.5243  0.8848 -1.4714
  188SAPI  H20T21667   2.430   3.124   8.813 -2.4681  1.7411  1.9678
  188SAPI   C3321668   2.892   2.419   7.123  0.2303  0.1845  0.4377
  188SAPI   H3X21669   2.846   2.519   7.106  0.5790  0.8266  2.9359
  188SAPI   H3Y21670   2.999   2.428   7.097  0.1220  0.9032  0.2108
  188SAPI   C3421671   2.875   2.381   7.278  1.1281  0.1782  0.3722
  188SAPI   H4X21672   2.941   2.293   7.291 -1.5376 -1.8172  1.3188
  188SAPI   H4Y21673   2.769   2.349   7.288  0.2853  2.5210 -0.5215
  188SAPI   C3521674   2.919   2.495   7.365  0.4531  0.8152  0.2631
  188SAPI   H5X21675   2.878   2.596   7.343  2.2628  1.4371 -0.5124
  188SAPI   H5Y21676   3.030   2.502   7.361  0.4609  0.3313 -2.2652
  188SAPI   C3621677   2.876   2.469   7.514 -0.0178 -0.5674  0.1925
  188SAPI   H6X21678   2.915   2.366   7.527  0.1912 -0.3918  0.9647
  188SAPI   H6Y21679   2.765   2.468   7.522  0.0073  0.3838  0.8213
  188SAPI   C3721680   2.940   2.567   7.614  0.1347 -0.1758  0.1081
  188SAPI   H7X21681   2.920   2.670   7.577  1.4524 -0.5831 -1.8513
  188SAPI   H7Y21682   3.048   2.547   7.601  0.2091 -0.3982  1.0185
  188SAPI   C3821683   2.909   2.538   7.764 -0.6943  0.0352  0.1857
  188SAPI   H8X21684   2.997   2.574   7.823  0.0597  0.6968 -1.2874
  188SAPI   H8Y21685   2.887   2.432   7.785  1.5610 -0.7403 -0.9939
  188SAPI   C3921686   2.799   2.627   7.819  0.2545 -0.1385 -0.1959
  188SAPI   H9X21687   2.712   2.614   7.751 -0.9162  0.1682  1.2131
  188SAPI   H9Y21688   2.830   2.731   7.796  0.5427 -0.7830 -3.2513
  188SAPI  C31021689   2.769   2.612   7.970  0.5142  0.4565  0.1119
  188SAPI  H10X21690   2.679   2.676   7.985 -0.2184  0.5074 -3.5443
  188SAPI  H10Y21691   2.860   2.649   8.020  2.1629 -1.1193 -1.5783
  188SAPI  C31121692   2.736   2.468   8.003  0.6680  1.0558  0.2780
  188SAPI  H11X21693   2.833   2.414   8.000  0.4001  0.4779  1.3816
  188SAPI  H11Y21694   2.665   2.411   7.938  0.4035  1.6396  0.0405
  188SAPI  C31221695   2.682   2.451   8.148 -0.4073 -0.1478 -0.0590
  188SAPI  H12X21696   2.666   2.346   8.182 -0.8993 -0.2233 -0.5085
  188SAPI  H12Y21697   2.585   2.505   8.155  0.3909  1.5079 -1.2940
  188SAPI  C31321698   2.781   2.506   8.246  0.3637 -0.9131 -0.2480
  188SAPI  H13X21699   2.778   2.617   8.232 -0.3280 -0.5223  2.3861
  188SAPI  H13Y21700   2.883   2.464   8.240  0.3389 -1.3246  1.5385
  188SAPI  C31421701   2.747   2.490   8.394  0.5237  0.7900  0.0607
  188SAPI  H14X21702   2.722   2.386   8.424 -0.1544  0.3986 -1.7255
  188SAPI  H14Y21703   2.655   2.547   8.420  0.0984 -0.0938  0.5157
  188SAPI  C31521704   2.863   2.529   8.487 -0.3704  0.4322 -0.5493
  188SAPI  H15X21705   2.884   2.638   8.478  0.2415  0.3654  0.0678
  188SAPI  H15Y21706   2.952   2.479   8.445 -0.2815 -0.9508  1.2099
  188SAPI  C31621707   2.831   2.509   8.635 -0.1171  0.1254 -0.1392
  188SAPI  H16X21708   2.839   2.403   8.668  1.0123 -0.1079 -1.1058
  188SAPI  H16Y21709   2.725   2.541   8.646 -0.0284  2.0481 -3.5369
  188SAPI  C31721710   2.921   2.590   8.725 -0.0644 -0.4599 -0.3488
  188SAPI  H17X21711   3.026   2.553   8.729  0.7918  1.7818 -0.4392
  188SAPI  H17Y21712   2.899   2.585   8.834 -0.2014  0.0159 -0.3500
  188SAPI  C31821713   2.907   2.743   8.702 -0.2095 -0.0724 -0.1412
  188SAPI  H18X21714   2.946   2.814   8.778  1.4552  2.0034 -2.7545
  188SAPI  H18Y21715   2.801   2.774   8.693 -1.2280 -2.7808  1.3477
  188SAPI  H18Z21716   2.952   2.770   8.604 -0.1675  0.5983  0.0566
  189POPC     N21717   3.226   4.107  10.922 -0.9183 -0.7024 -0.4721
  189POPC   C1221718   3.109   4.035  10.978  0.0120 -0.0477  0.4252
  189POPC  H12A21719   3.131   3.933  11.003  0.7291 -0.3118 -1.1677
  189POPC  H12B21720   3.030   4.024  10.904 -1.6342  0.0155  2.0919
  189POPC   C1321721   3.178   4.239  10.866  0.4660 -0.0069  0.7562
  189POPC  H13A21722   3.117   4.226  10.778  2.4808 -2.1812 -0.4222
  189POPC  H13B21723   3.121   4.290  10.942 -2.2784 -1.7159 -0.0353
  189POPC  H13C21724   3.264   4.299  10.836  0.3509  0.2709  0.9731
  189POPC   C1421725   3.339   4.128  11.023  0.1817 -0.0458  0.5685
  189POPC  H14A21726   3.310   4.188  11.108  1.2370  0.7612  0.3879
  189POPC  H14B21727   3.374   4.030  11.050 -0.4898 -1.4480 -3.0863
  189POPC  H14C21728   3.411   4.174  10.956 -2.0075  1.0995 -1.1284
  189POPC   C1521729   3.296   4.029  10.814 -0.5115 -0.0256  0.6238
  189POPC  H15A21730   3.337   3.936  10.850  1.6851  0.6701  0.0698
  189POPC  H15B21731   3.374   4.088  10.770 -2.1197  0.7185 -1.3983
  189POPC  H15C21732   3.232   4.001  10.732  2.3011 -3.3775 -0.6548
  189POPC   C1121733   3.044   4.087  11.113  0.4835  0.2724 -0.5441
  189POPC  H11A21734   3.130   4.082  11.182  2.8875  0.4741 -3.3310
  189POPC  H11B21735   2.964   4.018  11.148  1.2548  0.1557  1.0639
  189POPC     P21736   2.855   4.245  11.031  0.4760  0.1392 -0.2329
  189POPC   O1321737   2.817   4.387  11.038  0.4661 -0.6753 -0.0834
  189POPC   O1421738   2.743   4.150  11.064 -0.2686  0.1322  0.2196
  189POPC   O1221739   2.996   4.221  11.105  0.3638  0.3546  0.5693
  189POPC   O1121740   2.889   4.219  10.879  0.1601 -0.5300 -0.2207
  189POPC    C121741   2.788   4.174  10.787  0.2359  0.8891  0.6869
  189POPC    HA21742   2.688   4.159  10.833  0.4194  1.9581  1.4545
  189POPC    HB21743   2.828   4.083  10.737  0.8401  1.7154 -0.3877
  189POPC    C221744   2.767   4.282  10.672  0.4995 -0.1757 -0.1055
  189POPC    HS21745   2.699   4.236  10.597 -0.2956 -0.5305  0.7999
  189POPC   O2121746   2.891   4.328  10.612 -0.3197 -0.2210 -0.2995
  189POPC   C2121747   2.940   4.243  10.524  0.2284 -0.2618  0.7792
  189POPC   O2221748   2.891   4.142  10.484 -0.5349  0.4852  0.1026
  189POPC   C2221749   3.071   4.295  10.464  0.2134  0.0991 -0.2238
  189POPC   H2R21750   3.098   4.389  10.516 -0.7240  2.1505 -3.1797
  189POPC   H2S21751   3.051   4.327  10.359  3.6266 -0.4502 -1.1479
  189POPC    C321752   2.694   4.412  10.722 -0.0113 -0.1660 -0.4432
  189POPC    HX21753   2.772   4.473  10.771  1.3880 -1.3461 -1.1265
  189POPC    HY21754   2.621   4.385  10.801 -0.1221  1.5336  0.0659
  189POPC   O3121755   2.620   4.477  10.621 -0.8101 -0.1419  0.1765
  189POPC   C3121756   2.499   4.424  10.596 -0.1774  0.0448  0.7745
  189POPC   O3221757   2.455   4.323  10.643  0.2342  0.2334 -0.0063
  189POPC   C3221758   2.453   4.496  10.470 -0.3381  0.2573  0.3703
  189POPC   H2X21759   2.520   4.579  10.440 -0.2625 -0.1568 -0.6400
  189POPC   H2Y21760   2.356   4.547  10.489  0.3137  1.9494 -0.6434
  189POPC   C2321761   3.184   4.196  10.473 -0.4811 -0.4398 -0.0178
  189POPC   H3R21762   3.175   4.109  10.404  5.6468 -0.4775 -1.3328
  189POPC   H3S21763   3.188   4.158  10.578  1.3404 -0.4732 -0.0689
  189POPC   C2421764   3.320   4.261  10.448 -0.0881  0.4262  1.1038
  189POPC   H4R21765   3.339   4.343  10.520  0.3577  0.0098  1.4676
  189POPC   H4S21766   3.324   4.315  10.351 -0.7710 -1.5424 -0.0778
  189POPC   C2521767   3.432   4.165  10.452  0.1832  0.5220  0.1508
  189POPC   H5R21768   3.435   4.113  10.550  1.7147  1.7130  0.7787
  189POPC   H5S21769   3.526   4.224  10.444  0.5308  0.2864  1.9723
  189POPC   C2621770   3.425   4.055  10.342 -0.7224  0.0914  0.2783
  189POPC   H6R21771   3.373   4.103  10.256 -1.7826 -1.7430 -0.1678
  189POPC   H6S21772   3.382   3.956  10.368  0.8319 -1.3261 -2.1949
  189POPC   C2721773   3.568   4.035  10.291 -0.0939 -0.0214 -0.9281
  189POPC   H7R21774   3.632   3.984  10.366 -1.2931  2.6054  2.0745
  189POPC   H7S21775   3.621   4.131  10.274 -0.8732  0.6551  0.3352
  189POPC   C2821776   3.571   3.960  10.160 -0.4858 -0.1500  0.7811
  189POPC   H8R21777   3.677   3.938  10.134 -0.6493  0.0332 -0.0382
  189POPC   H8S21778   3.535   4.028  10.081 -0.9380 -3.0844 -1.7073
  189POPC   C2921779   3.502   3.827  10.163 -0.6000 -0.5960 -0.1784
  189POPC   H9121780   3.529   3.774  10.256 -1.7691 -0.1235  0.4659
  189POPC  C21021781   3.441   3.769  10.059 -0.7204  0.2547  0.7554
  189POPC  H10121782   3.374   3.685  10.083 -0.4764 -0.0687  0.3245
  189POPC  C21121783   3.420   3.818   9.917 -0.9130 -0.1800 -0.1261
  189POPC  H11R21784   3.521   3.832   9.874 -0.7503  3.3722  1.1133
  189POPC  H11S21785   3.366   3.915   9.916 -0.9440 -0.1428  1.5920
  189POPC  C21221786   3.341   3.714   9.830  0.0343  0.1274  0.1329
  189POPC  H12R21787   3.237   3.705   9.866 -0.0684  0.1486 -0.1543
  189POPC  H12S21788   3.398   3.618   9.828 -1.3794 -0.7266 -0.6741
  189POPC  C21321789   3.337   3.766   9.689 -0.3859  0.3431  0.1898
  189POPC  H13R21790   3.441   3.766   9.651 -0.5973  0.2440 -0.3884
  189POPC  H13S21791   3.306   3.872   9.679 -0.9152  0.0592 -1.3084
  189POPC  C21421792   3.254   3.674   9.598 -0.0073  0.3301  0.2747
  189POPC  H14R21793   3.154   3.677   9.646  0.9256  1.0074  2.2664
  189POPC  H14S21794   3.295   3.570   9.604  0.5752  0.6192  2.4018
  189POPC  C21521795   3.259   3.730   9.455 -0.0797 -0.4590 -0.3276
  189POPC  H15R21796   3.362   3.747   9.417 -0.0303  0.2138  0.0920
  189POPC  H15S21797   3.214   3.831   9.445  0.8303  0.0953  0.9094
  189POPC  C21621798   3.192   3.630   9.367  0.0240  0.5984 -1.2163
  189POPC  H16R21799   3.101   3.604   9.425  0.5229 -0.1791 -0.7559
  189POPC  H16S21800   3.255   3.541   9.349  0.2039  0.4553  0.0356
  189POPC  C21721801   3.160   3.693   9.226  0.4955 -0.4921  0.4203
  189POPC  H17R21802   3.256   3.734   9.187  0.5374 -0.8107  0.1904
  189POPC  H17S21803   3.084   3.772   9.242 -1.0875 -1.0191 -3.4730
  189POPC  C21821804   3.096   3.592   9.135  0.3025  0.1990 -0.0979
  189POPC  H18R21805   2.989   3.567   9.155 -0.1568  1.6863 -0.5756
  189POPC  H18S21806   3.159   3.502   9.115  1.4734  0.9149  0.2758
  189POPC  H18T21807   3.085   3.644   9.037  1.1603  0.8539  0.1476
  189POPC   C3321808   2.441   4.398  10.346 -0.1404 -0.1181  0.0640
  189POPC   H3X21809   2.374   4.312  10.364  1.2962 -1.6067 -1.3423
  189POPC   H3Y21810   2.544   4.358  10.331 -0.2965 -0.2366 -0.7639
  189POPC   C3421811   2.411   4.479  10.218 -0.3907  0.1444 -0.6487
  189POPC   H4X21812   2.505   4.534  10.200  0.7922 -1.4559  0.3657
  189POPC   H4Y21813   2.323   4.546  10.227 -0.6071 -0.1643 -0.4309
  189POPC   C3521814   2.395   4.398  10.093 -0.0232  0.0324  0.3773
  189POPC   H5X21815   2.286   4.384  10.078  0.1915 -0.3953 -1.0064
  189POPC   H5Y21816   2.443   4.299  10.109  0.7230  0.0268 -1.5158
  189POPC   C3621817   2.458   4.475   9.972 -0.2195  0.2464 -0.2576
  189POPC   H6X21818   2.560   4.503  10.007 -1.3339  0.2033  3.4841
  189POPC   H6Y21819   2.388   4.560   9.958 -2.5072 -1.2518  1.4637
  189POPC   C3721820   2.449   4.399   9.843  0.1194 -0.2389  0.4943
  189POPC   H7X21821   2.345   4.382   9.808  1.1231 -1.0892 -2.3998
  189POPC   H7Y21822   2.505   4.303   9.852  2.1910  0.9884  1.7228
  189POPC   C3821823   2.523   4.470   9.730 -0.9892 -0.2975  0.0722
  189POPC   H8X21824   2.632   4.458   9.745 -0.4857  0.0228 -2.6714
  189POPC   H8Y21825   2.500   4.577   9.749  2.3489  0.1550  2.2671
  189POPC   C3921826   2.473   4.415   9.600 -0.2528 -0.3517  0.5633
  189POPC   H9X21827   2.369   4.453   9.592 -0.6301 -1.5712 -0.7354
  189POPC   H9Y21828   2.470   4.304   9.596  0.3116 -0.3407 -1.9335
  189POPC  C31021829   2.564   4.457   9.489 -0.4244 -0.6079 -0.0638
  189POPC  H10X21830   2.671   4.440   9.514 -0.3013 -0.3954 -0.4357
  189POPC  H10Y21831   2.548   4.565   9.474  2.4320  0.3730  2.7811
  189POPC  C31121832   2.532   4.392   9.346 -0.0304 -0.2337 -0.4323
  189POPC  H11X21833   2.436   4.443   9.322  0.4980  0.1746 -1.7854
  189POPC  H11Y21834   2.516   4.284   9.368  0.8370 -0.2349  0.2734
  189POPC  C31221835   2.641   4.412   9.240  0.3834 -0.1134 -0.0255
  189POPC  H12X21836   2.654   4.329   9.168  0.9268 -1.3702  1.4875
  189POPC  H12Y21837   2.742   4.441   9.277 -0.3446  3.4105 -0.3944
  189POPC  C31321838   2.587   4.520   9.147 -0.2454 -0.1314  0.4249
  189POPC  H13X21839   2.677   4.552   9.090 -2.9564  2.9209 -2.5522
  189POPC  H13Y21840   2.564   4.606   9.214  0.6496  1.2338 -0.9385
  189POPC  C31421841   2.460   4.485   9.058 -0.5167  0.0774 -0.5159
  189POPC  H14X21842   2.448   4.578   8.998 -0.1263  0.7671  0.4590
  189POPC  H14Y21843   2.366   4.490   9.118 -0.6025  0.2463 -0.6628
  189POPC  C31521844   2.483   4.375   8.961  0.4665  0.2212 -0.8947
  189POPC  H15X21845   2.481   4.279   9.017 -0.9308 -0.0374 -1.3620
  189POPC  H15Y21846   2.581   4.373   8.909  0.5467  1.0195 -0.7856
  189POPC  C31621847   2.374   4.376   8.852  0.2303  1.1492 -0.3983
  189POPC  H16X21848   2.367   4.468   8.791 -0.3850  1.2598 -0.1722
  189POPC  H16Y21849   2.275   4.347   8.894  0.8725 -0.6125 -0.0289
  189POPC  H16Z21850   2.398   4.291   8.784  0.0881 -0.9516  2.0220
  190POPC     N21851   4.331   6.744  11.575  0.1459  0.0399 -0.0822
  190POPC   C1221852   4.414   6.756  11.451  0.3664  0.0413 -0.0782
  190POPC  H12A21853   4.495   6.685  11.451 -0.8026 -1.3708 -1.9962
  190POPC  H12B21854   4.452   6.858  11.451  1.5888 -0.3390 -2.4636
  190POPC   C1321855   4.424   6.724  11.686  0.1401 -0.2085  0.6200
  190POPC  H13A21856   4.458   6.822  11.715  0.2292 -0.3514  1.0030
  190POPC  H13B21857   4.372   6.678  11.769  1.5759 -0.6570  1.3033
  190POPC  H13C21858   4.497   6.649  11.659 -0.7095 -0.7287 -0.2962
  190POPC   C1421859   4.243   6.861  11.610 -0.0607 -0.1440 -0.7215
  190POPC  H14A21860   4.289   6.957  11.629  0.2476 -0.5619  0.6890
  190POPC  H14B21861   4.174   6.882  11.529 -0.5548  1.8960  0.1576
  190POPC  H14C21862   4.186   6.836  11.698  0.8525 -0.8438 -0.3134
  190POPC   C1521863   4.241   6.624  11.569 -0.6985  0.4523 -0.1035
  190POPC  H15A21864   4.297   6.538  11.535  1.8992  1.1478  2.0217
  190POPC  H15B21865   4.178   6.646  11.484  0.6775 -0.0363 -1.2994
  190POPC  H15C21866   4.174   6.603  11.651 -1.0253  1.2157 -0.1635
  190POPC   C1121867   4.339   6.728  11.314  0.0235  0.8176 -0.2433
  190POPC  H11A21868   4.343   6.617  11.309  0.1455  0.6174  2.6474
  190POPC  H11B21869   4.404   6.758  11.229  1.2341  0.4036  0.4999
  190POPC     P21870   4.177   6.912  11.235 -0.0702 -0.1570 -0.0946
  190POPC   O1321871   4.241   7.024  11.309 -0.2251  1.1224 -0.2859
  190POPC   O1421872   4.031   6.921  11.219  0.4335  0.0859  0.3356
  190POPC   O1221873   4.203   6.773  11.308 -0.3051  0.0055  0.2580
  190POPC   O1121874   4.237   6.895  11.095 -0.1959 -0.1715 -0.0628
  190POPC    C121875   4.181   6.792  11.003 -0.0369 -0.0996 -1.0420
  190POPC    HA21876   4.079   6.754  11.024  0.7592 -1.9837 -0.3838
  190POPC    HB21877   4.234   6.695  11.007 -0.1769 -0.1769 -1.0717
  190POPC    C221878   4.185   6.843  10.859  0.1000  0.0022  0.1505
  190POPC    HS21879   4.290   6.848  10.824 -0.1168  0.3674 -0.4662
  190POPC   O2121880   4.120   6.978  10.845 -0.2898  0.2761  0.1613
  190POPC   C2121881   4.163   7.048  10.738 -0.1934 -0.9000 -0.0981
  190POPC   O2221882   4.249   7.017  10.661 -0.3895 -0.3560 -0.1220
  190POPC   C2221883   4.077   7.177  10.731  0.3460  0.5921  0.7872
  190POPC   H2R21884   4.074   7.224  10.832  0.8538 -1.6309  1.9122
  190POPC   H2S21885   3.974   7.139  10.716  0.8198 -0.0913 -0.8876
  190POPC    C321886   4.109   6.737  10.763  0.5189  0.5199 -0.2038
  190POPC    HX21887   4.004   6.738  10.800  0.4544 -1.8127 -0.1711
  190POPC    HY21888   4.149   6.635  10.780  0.9725  0.8437  0.7099
  190POPC   O3121889   4.118   6.770  10.625  0.2700 -0.2272 -0.1724
  190POPC   C3121890   4.229   6.736  10.563 -0.7997  0.1718 -0.4431
  190POPC   O3221891   4.316   6.669  10.621  0.4506 -0.5490  0.2077
  190POPC   C3221892   4.251   6.795  10.423  0.1457 -0.3904  0.7917
  190POPC   H2X21893   4.258   6.905  10.435 -2.2987 -0.0291 -0.3812
  190POPC   H2Y21894   4.160   6.781  10.360 -1.0038 -0.0640  2.3074
  190POPC   C2321895   4.112   7.269  10.618  0.7055  0.0473  0.1086
  190POPC   H3R21896   4.222   7.281  10.609  0.8719 -0.1906  1.6082
  190POPC   H3S21897   4.083   7.375  10.633  0.1450 -0.1176  0.2077
  190POPC   C2421898   4.059   7.209  10.482 -0.8172  0.1975  0.5432
  190POPC   H4R21899   3.949   7.221  10.471 -0.4103  2.0523 -2.4242
  190POPC   H4S21900   4.076   7.100  10.469  1.9488  0.5876  0.3062
  190POPC   C2521901   4.116   7.281  10.355 -0.0775 -0.0837  0.1457
  190POPC   H5R21902   4.225   7.256  10.358 -0.2433 -0.8078  0.6558
  190POPC   H5S21903   4.101   7.390  10.364 -1.6258 -0.0632 -1.9456
  190POPC   C2621904   4.044   7.235  10.229  0.1476  0.0234  0.9932
  190POPC   H6R21905   3.944   7.283  10.217 -0.6582 -1.8866 -0.6198
  190POPC   H6S21906   4.033   7.125  10.234  0.5903 -0.0241  0.9438
  190POPC   C2721907   4.136   7.252  10.101  0.5424  0.5232 -0.3878
  190POPC   H7R21908   4.222   7.183  10.116 -0.3669 -0.5100  0.2427
  190POPC   H7S21909   4.164   7.359  10.114 -1.0059  0.7096  2.0952
  190POPC   C2821910   4.064   7.219   9.964  0.6786 -0.0124 -0.0351
  190POPC   H8R21911   3.992   7.134   9.969  1.3022 -0.4759  1.7659
  190POPC   H8S21912   4.144   7.188   9.893 -0.5065  0.6820 -1.7573
  190POPC   C2921913   3.989   7.339   9.914  0.1425 -0.6768 -0.1758
  190POPC   H9121914   3.905   7.370   9.977 -0.7652 -4.0909  0.5359
  190POPC  C21021915   4.028   7.413   9.809 -0.4641  0.6689  0.8839
  190POPC  H10121916   3.965   7.491   9.764 -0.8621 -1.1850 -2.0422
  190POPC  C21121917   4.144   7.377   9.718 -0.3921  0.5212 -0.3697
  190POPC  H11R21918   4.226   7.333   9.779 -1.0340  1.9790  1.6251
  190POPC  H11S21919   4.166   7.474   9.670  0.7919  0.6071  0.3184
  190POPC  C21221920   4.104   7.279   9.600 -0.2878 -0.4613 -0.4809
  190POPC  H12R21921   4.030   7.329   9.534 -0.6449 -2.2266 -1.4707
  190POPC  H12S21922   4.063   7.185   9.642  2.5460 -2.5084 -1.9584
  190POPC  C21321923   4.222   7.230   9.512  0.0375  0.2231 -0.8599
  190POPC  H13R21924   4.285   7.165   9.578 -0.3399  0.9547  0.2518
  190POPC  H13S21925   4.287   7.306   9.464 -0.5651  1.0360 -0.4138
  190POPC  C21421926   4.171   7.132   9.408 -0.3419 -0.7631  0.1431
  190POPC  H14R21927   4.126   7.044   9.458 -1.6137 -0.4529 -0.4102
  190POPC  H14S21928   4.261   7.093   9.357 -1.7895 -0.4989 -2.8676
  190POPC  C21521929   4.069   7.185   9.308  0.1882 -0.7868  0.5147
  190POPC  H15R21930   4.102   7.287   9.276  0.5974 -1.0179  0.1922
  190POPC  H15S21931   3.968   7.190   9.355  0.0779 -1.9790  0.4220
  190POPC  C21621932   4.048   7.093   9.184 -0.2428  0.5001 -0.4703
  190POPC  H16R21933   3.992   7.004   9.217 -0.1352 -0.0194 -1.6375
  190POPC  H16S21934   4.148   7.071   9.140  0.1585  2.3004 -0.5470
  190POPC  C21721935   3.954   7.165   9.084 -0.0017 -0.1715 -0.2473
  190POPC  H17R21936   3.991   7.268   9.070  1.4510 -0.4928  0.9772
  190POPC  H17S21937   3.855   7.169   9.136 -0.3941  0.4056 -1.0233
  190POPC  C21821938   3.928   7.096   8.950  0.3330 -0.7208 -0.6284
  190POPC  H18R21939   4.019   7.113   8.888 -0.7963  1.6590 -1.7855
  190POPC  H18S21940   3.843   7.141   8.896 -0.4319 -0.3342  0.8511
  190POPC  H18T21941   3.918   6.988   8.971  2.6134 -0.6299  1.3331
  190POPC   C3321942   4.381   6.752  10.346  0.0971  0.1724 -0.1530
  190POPC   H3X21943   4.377   6.641  10.337  2.0463  0.0402  0.1932
  190POPC   H3Y21944   4.466   6.764  10.416  1.4103 -0.6898 -1.5430
  190POPC   C3421945   4.394   6.814  10.206 -0.4714  0.0298 -0.5005
  190POPC   H4X21946   4.481   6.762  10.159 -1.3603  0.1273 -2.3230
  190POPC   H4Y21947   4.419   6.922  10.201  0.2111 -0.0978  0.0252
  190POPC   C3521948   4.273   6.799  10.113 -0.0876  0.0324 -0.0834
  190POPC   H5X21949   4.186   6.858  10.150 -1.8623 -3.1216  1.1097
  190POPC   H5Y21950   4.248   6.691  10.116  4.3362 -1.1496  0.1307
  190POPC   C3621951   4.317   6.835   9.964  0.0788 -0.4667 -0.0364
  190POPC   H6X21952   4.399   6.766   9.935 -0.0314 -0.6761  0.1477
  190POPC   H6Y21953   4.348   6.942   9.967  1.1549 -0.7119  4.1322
  190POPC   C3721954   4.197   6.816   9.855 -0.2571  0.5547  0.3172
  190POPC   H7X21955   4.119   6.880   9.902  0.1371 -0.8902  3.1742
  190POPC   H7Y21956   4.151   6.715   9.857 -0.1713  0.4953 -0.3973
  190POPC   C3821957   4.230   6.865   9.709  0.0574  0.0175 -0.4277
  190POPC   H8X21958   4.275   6.967   9.717 -0.4226  0.1977  0.0480
  190POPC   H8Y21959   4.136   6.845   9.653 -0.3092  3.0202 -1.0753
  190POPC   C3921960   4.347   6.778   9.654  0.2725  0.0310 -0.1988
  190POPC   H9X21961   4.304   6.676   9.645 -1.0769  0.3031  2.2750
  190POPC   H9Y21962   4.418   6.760   9.738 -1.7447  2.2692  2.1271
  190POPC  C31021963   4.416   6.817   9.526 -0.6789 -0.9795  0.0362
  190POPC  H10X21964   4.524   6.794   9.519 -1.0350 -2.4988 -0.8625
  190POPC  H10Y21965   4.416   6.928   9.526 -4.3267 -0.8485 -1.1559
  190POPC  C31121966   4.347   6.768   9.406  0.2343  0.2757 -0.7414
  190POPC  H11X21967   4.244   6.809   9.412 -0.4704 -1.5440  0.7972
  190POPC  H11Y21968   4.342   6.657   9.415  1.1605  0.3861  2.4959
  190POPC  C31221969   4.418   6.811   9.276  0.5566 -0.1542 -0.0495
  190POPC  H12X21970   4.519   6.768   9.293  0.8745  0.5350 -0.1786
  190POPC  H12Y21971   4.418   6.922   9.273  2.1930 -0.1369 -0.3453
  190POPC  C31321972   4.344   6.746   9.148 -0.9597 -0.4649  0.0518
  190POPC  H13X21973   4.236   6.770   9.143 -0.6207  0.8496 -2.5090
  190POPC  H13Y21974   4.375   6.639   9.149  1.2526  0.1145 -0.5960
  190POPC  C31421975   4.399   6.804   9.015 -1.3567  0.0546 -0.0272
  190POPC  H14X21976   4.369   6.748   8.924  2.2070  0.3490 -1.5609
  190POPC  H14Y21977   4.510   6.805   9.020 -1.2864  1.6967 -1.1033
  190POPC  C31521978   4.356   6.947   8.997  0.8148 -0.2431  0.7461
  190POPC  H15X21979   4.378   7.020   9.078  0.0140  0.7774  0.0746
  190POPC  H15Y21980   4.245   6.951   9.000  0.6865 -1.3532 -0.9939
  190POPC  C31621981   4.405   7.006   8.866  0.1771  0.6020  0.1358
  190POPC  H16X21982   4.399   6.941   8.776 -1.5677  1.5214 -0.4642
  190POPC  H16Y21983   4.515   7.017   8.867  0.3583 -1.0078  0.3623
  190POPC  H16Z21984   4.358   7.101   8.833  0.9122  0.6780 -0.7134
  191POPC     N21985   4.440   1.161   6.626  0.1490  0.2104 -0.6270
  191POPC   C1221986   4.463   1.009   6.615 -0.1620 -0.3885  0.8085
  191POPC  H12A21987   4.403   0.975   6.532 -1.3521 -2.2595  2.3494
  191POPC  H12B21988   4.416   0.953   6.694 -0.6811 -0.8416  0.1944
  191POPC   C1321989   4.490   1.232   6.505 -0.4401 -0.3637  0.2628
  191POPC  H13A21990   4.441   1.185   6.421 -0.7738 -3.6031  2.0832
  191POPC  H13B21991   4.488   1.340   6.514  3.0437 -0.2661  0.9843
  191POPC  H13C21992   4.595   1.209   6.507 -0.2927  0.2927  2.2534
  191POPC   C1421993   4.294   1.187   6.648  0.0461 -0.7960 -0.6708
  191POPC  H14A21994   4.263   1.139   6.739  2.1227 -2.5471 -0.8096
  191POPC  H14B21995   4.267   1.292   6.648 -0.0136 -0.8116 -0.6959
  191POPC  H14C21996   4.242   1.145   6.564  0.5846 -1.4486 -0.6838
  191POPC   C1521997   4.521   1.208   6.748  0.3492  0.0733 -0.6166
  191POPC  H15A21998   4.526   1.129   6.821  2.0449 -0.8335 -1.6365
  191POPC  H15B21999   4.468   1.297   6.779  0.6943 -0.9093  3.3603
  191POPC  H15C22000   4.625   1.236   6.732  0.3502  1.0520  0.9131
  191POPC   C1122001   4.610   0.964   6.589 -1.4874 -0.0539  0.1143
  191POPC  H11A22002   4.604   0.855   6.564 -0.2837  0.4052 -2.5057
  191POPC  H11B22003   4.666   0.969   6.685 -1.1164 -2.6599  0.1123
  191POPC     P22004   4.838   1.062   6.484 -0.0131 -0.3463  0.0797
  191POPC   O1322005   4.834   1.208   6.496 -0.2514  0.2228  0.5418
  191POPC   O1422006   4.908   0.999   6.369  0.0964 -0.7503  0.3851
  191POPC   O1222007   4.687   1.013   6.477  0.5055 -0.0591  0.6741
  191POPC   O1122008   4.894   1.006   6.616  0.4369 -0.4161 -0.4807
  191POPC    C122009   4.933   0.869   6.625 -0.1034  0.2795 -0.3128
  191POPC    HA22010   5.044   0.866   6.620 -0.1359 -2.4887 -0.5626
  191POPC    HB22011   4.903   0.807   6.539  3.6561 -1.0790 -0.8061
  191POPC    C222012   4.881   0.806   6.758  0.1927  0.0207 -0.4436
  191POPC    HS22013   4.771   0.791   6.755  0.1075  0.6334 -0.4242
  191POPC   O2122014   4.906   0.902   6.860  0.0925  0.6266 -0.6020
  191POPC   C2122015   5.020   0.905   6.914 -0.3654 -0.3298 -0.2579
  191POPC   O2222016   5.126   0.861   6.871 -0.2160 -0.2934  0.0943
  191POPC   C2222017   5.006   0.977   7.052  0.3366 -0.4246  0.3624
  191POPC   H2R22018   4.999   1.086   7.031  2.5422 -0.0879  1.1018
  191POPC   H2S22019   5.094   0.951   7.115  0.5583 -0.5840 -0.0163
  191POPC    C322020   4.940   0.660   6.787 -0.5835  0.3776 -0.4790
  191POPC    HX22021   5.042   0.659   6.743 -0.4822  0.4488 -0.2471
  191POPC    HY22022   4.876   0.585   6.736  1.8931 -3.4129  1.5033
  191POPC   O3122023   4.951   0.628   6.924 -0.2681  0.1926 -0.4411
  191POPC   C3122024   5.048   0.545   6.963  0.1357  0.8818 -0.7624
  191POPC   O3222025   5.128   0.480   6.894  0.1041  0.2568 -0.1095
  191POPC   C3222026   5.046   0.533   7.118  0.6720  0.4800 -0.6132
  191POPC   H2X22027   4.953   0.485   7.155  1.5551  0.1345  1.2477
  191POPC   H2Y22028   5.048   0.633   7.166  0.2594 -0.1819  0.8141
  191POPC   C2322029   4.874   0.942   7.132 -0.9254  0.0080  0.2055
  191POPC   H3R22030   4.816   0.852   7.103 -0.3318 -1.1166  2.2531
  191POPC   H3S22031   4.811   1.031   7.112  1.5994  2.0188  0.6938
  191POPC   C2422032   4.904   0.927   7.286 -0.8234 -0.3564  0.1351
  191POPC   H4R22033   4.888   1.026   7.334  0.2513  0.0101 -0.2372
  191POPC   H4S22034   5.012   0.904   7.297 -0.4218  1.5598  0.4978
  191POPC   C2522035   4.818   0.827   7.368  0.0769 -0.1551  0.1173
  191POPC   H5R22036   4.810   0.729   7.317  0.0586 -0.9062  1.5494
  191POPC   H5S22037   4.711   0.855   7.377 -0.1705  0.1096 -2.6316
  191POPC   C2622038   4.875   0.802   7.506  0.4210  0.0095 -0.6325
  191POPC   H6R22039   4.891   0.903   7.550  3.4257  0.3785 -2.3091
  191POPC   H6S22040   4.973   0.751   7.497 -0.9223 -3.3154  1.6543
  191POPC   C2722041   4.785   0.721   7.604  0.0945 -0.4429  1.2663
  191POPC   H7R22042   4.783   0.615   7.571  1.5192  0.0883 -0.7932
  191POPC   H7S22043   4.685   0.768   7.600 -0.5929 -1.9415 -0.0406
  191POPC   C2822044   4.833   0.723   7.744  0.3363  0.1619 -0.7297
  191POPC   H8R22045   4.818   0.829   7.776  0.9293 -0.0523  0.2886
  191POPC   H8S22046   4.943   0.713   7.734  0.2305 -2.3025 -0.0323
  191POPC   C2922047   4.773   0.631   7.856  0.3506 -0.6073  0.5287
  191POPC   H9122048   4.679   0.662   7.904  0.5318  0.7826  0.0514
  191POPC  C21022049   4.839   0.521   7.899  0.5548 -0.4990 -0.0150
  191POPC  H10122050   4.791   0.467   7.982  2.4935 -1.4564  0.5417
  191POPC  C21122051   4.973   0.468   7.845 -0.1816 -0.1348  0.0469
  191POPC  H11R22052   4.999   0.510   7.746 -0.2908  0.7717  0.3927
  191POPC  H11S22053   4.964   0.358   7.831  1.5332 -0.4268  0.9672
  191POPC  C21222054   5.090   0.494   7.943 -0.5949 -0.5030 -0.3843
  191POPC  H12R22055   5.093   0.602   7.970 -2.2614 -0.6221  0.3639
  191POPC  H12S22056   5.187   0.464   7.898  0.0832  0.7019  0.1984
  191POPC  C21322057   5.079   0.407   8.067 -0.1035  0.3938  0.4736
  191POPC  H13R22058   5.075   0.301   8.033  0.2709  0.0426  1.4802
  191POPC  H13S22059   4.989   0.430   8.128  1.4993  0.0618  3.1136
  191POPC  C21422060   5.192   0.421   8.171 -0.2453  0.0825  0.0632
  191POPC  H14R22061   5.287   0.403   8.116 -0.9924 -5.1305  0.0067
  191POPC  H14S22062   5.189   0.329   8.232  4.9375 -0.7597 -0.5079
  191POPC  C21522063   5.196   0.552   8.256  0.0979 -0.0328 -0.1450
  191POPC  H15R22064   5.229   0.635   8.190 -0.3415  1.1525  1.1035
  191POPC  H15S22065   5.274   0.538   8.334  1.8207 -0.2956 -1.8124
  191POPC  C21622066   5.060   0.600   8.314 -0.7234 -0.5256 -0.0097
  191POPC  H16R22067   5.037   0.513   8.379 -2.0351 -1.1742 -1.2940
  191POPC  H16S22068   4.984   0.622   8.236 -1.0951  0.9018  0.7154
  191POPC  C21722069   5.069   0.726   8.404  0.3708 -0.6775  0.9269
  191POPC  H17R22070   5.142   0.702   8.485  0.8001 -2.8009 -0.0081
  191POPC  H17S22071   4.971   0.733   8.456 -0.5066 -0.9767 -0.6196
  191POPC  C21822072   5.091   0.859   8.326  0.1155 -0.3213 -0.1340
  191POPC  H18R22073   5.012   0.879   8.250  0.0956  0.8103  0.1682
  191POPC  H18S22074   5.196   0.863   8.291 -0.0426 -0.4654 -0.6239
  191POPC  H18T22075   5.076   0.949   8.390  2.2671  0.6353 -0.8852
  191POPC   C3322076   5.172   0.462   7.178 -0.0088 -0.2409  0.1659
  191POPC   H3X22077   5.264   0.503   7.132  1.2951 -1.1036  1.8522
  191POPC   H3Y22078   5.166   0.353   7.160 -1.6866 -0.0827 -0.3223
  191POPC   C3422079   5.180   0.478   7.325  0.5661  0.4205 -0.2807
  191POPC   H4X22080   5.086   0.447   7.377  0.5219  0.8570 -0.0995
  191POPC   H4Y22081   5.178   0.584   7.358 -2.6069  0.5991 -0.7302
  191POPC   C3522082   5.295   0.395   7.375 -0.3847 -0.4478  0.1225
  191POPC   H5X22083   5.393   0.424   7.331 -2.2563  1.5216 -3.2192
  191POPC   H5Y22084   5.279   0.287   7.355  1.8656 -1.4629  3.0811
  191POPC   C3622085   5.298   0.407   7.531 -0.3150  0.4374 -0.5847
  191POPC   H6X22086   5.212   0.347   7.567 -0.4018  0.8591 -0.0661
  191POPC   H6Y22087   5.280   0.514   7.555 -0.8472  0.2785 -0.2580
  191POPC   C3722088   5.425   0.362   7.602 -0.4042 -0.6238  0.0151
  191POPC   H7X22089   5.508   0.427   7.566 -0.4439 -0.5245  0.1033
  191POPC   H7Y22090   5.439   0.254   7.579 -4.2272 -0.7541 -2.4160
  191POPC   C3822091   5.419   0.374   7.757 -0.2440  0.2085  1.0635
  191POPC   H8X22092   5.336   0.315   7.802  0.9641  0.0987  3.3184
  191POPC   H8Y22093   5.408   0.480   7.788 -1.4670  0.3561  0.2124
  191POPC   C3922094   5.543   0.325   7.822 -0.5510  0.6947  0.1187
  191POPC   H9X22095   5.626   0.377   7.769  1.4376 -2.4685 -0.1438
  191POPC   H9Y22096   5.555   0.216   7.804 -4.8987  0.0183  0.3321
  191POPC  C31022097   5.553   0.359   7.974  0.4062  0.3926  0.7545
  191POPC  H10X22098   5.470   0.309   8.028  0.9558  0.5062  1.7265
  191POPC  H10Y22099   5.540   0.466   8.001 -2.2127  0.7129 -1.3941
  191POPC  C31122100   5.685   0.307   8.037  0.1827 -0.1425 -0.0639
  191POPC  H11X22101   5.772   0.364   7.998 -1.3109  1.8296 -0.6607
  191POPC  H11Y22102   5.713   0.204   8.008  4.3747  1.1652 -1.3190
  191POPC  C31222103   5.668   0.332   8.186 -0.1210  0.0645  0.1532
  191POPC  H12X22104   5.629   0.241   8.236  1.4295 -1.2727 -0.9304
  191POPC  H12Y22105   5.590   0.411   8.182 -0.6499 -0.4826 -2.2180
  191POPC  C31322106   5.795   0.371   8.263 -1.0012  0.2799 -0.2437
  191POPC  H13X22107   5.839   0.453   8.203 -0.1191 -1.0467 -1.4585
  191POPC  H13Y22108   5.866   0.286   8.260  0.6034  1.6059 -2.0359
  191POPC  C31422109   5.752   0.419   8.403 -0.1941  0.1528  0.1900
  191POPC  H14X22110   5.710   0.332   8.458 -0.0366 -0.8675 -1.2607
  191POPC  H14Y22111   5.665   0.487   8.390  1.0171  1.4416 -1.6319
  191POPC  C31522112   5.864   0.489   8.489  0.3598  0.1271  0.7349
  191POPC  H15X22113   5.824   0.523   8.587  1.6635  0.6290  1.1040
  191POPC  H15Y22114   5.906   0.579   8.439  0.0796 -0.8961 -1.4890
  191POPC  C31622115   5.981   0.402   8.494 -0.1701 -1.1773  0.1536
  191POPC  H16X22116   6.014   0.381   8.390 -1.7011  0.8744 -0.8272
  191POPC  H16Y22117   5.950   0.306   8.540  0.6100 -0.8337  1.4431
  191POPC  H16Z22118   6.064   0.447   8.553  1.5142 -0.2402 -2.7013
  192POPC     N22119   3.178   4.365   6.269  0.0469 -0.0559 -0.3610
  192POPC   C1222120   3.319   4.373   6.228 -0.6590 -0.0471 -0.2217
  192POPC  H12A22121   3.348   4.477   6.222 -2.6264  0.5352 -0.1308
  192POPC  H12B22122   3.320   4.338   6.126 -0.8484  1.8304 -0.9074
  192POPC   C1322123   3.114   4.234   6.255  0.7982  0.1963 -0.3196
  192POPC  H13A22124   3.156   4.177   6.336 -0.1786 -0.1035 -0.0141
  192POPC  H13B22125   3.010   4.247   6.282  0.8372 -0.0389 -0.0626
  192POPC  H13C22126   3.128   4.179   6.163 -0.8162  0.4778 -0.7770
  192POPC   C1422127   3.168   4.398   6.411 -0.2076 -0.4773  0.0704
  192POPC  H14A22128   3.066   4.423   6.438  0.2484 -0.3678  1.7868
  192POPC  H14B22129   3.202   4.311   6.464  0.9893 -1.3007 -1.9345
  192POPC  H14C22130   3.230   4.485   6.422 -3.6203  2.4531 -1.7316
  192POPC   C1522131   3.110   4.462   6.182  0.2897  0.3773  0.8319
  192POPC  H15A22132   3.139   4.458   6.078 -0.0156 -1.3775  0.7756
  192POPC  H15B22133   3.114   4.562   6.223  0.3764  0.0306  1.7008
  192POPC  H15C22134   3.005   4.436   6.191  0.4445  0.3544  3.2727
  192POPC   C1122135   3.427   4.291   6.308  0.3009  0.2885  0.4515
  192POPC  H11A22136   3.432   4.336   6.409 -0.3863 -1.7360  1.4331
  192POPC  H11B22137   3.525   4.303   6.256  0.8994 -0.2055  1.4553
  192POPC     P22138   3.423   4.043   6.218  0.4695 -0.1030  0.1253
  192POPC   O1322139   3.512   4.113   6.121 -0.5063  0.5335 -0.4027
  192POPC   O1422140   3.302   3.970   6.173  0.0913 -0.4908  0.3909
  192POPC   O1222141   3.388   4.155   6.329  0.1627  0.4235  0.2135
  192POPC   O1122142   3.505   3.942   6.312 -0.3205 -0.0596  0.0081
  192POPC    C122143   3.578   3.982   6.422 -0.0877 -0.1381 -0.4392
  192POPC    HA22144   3.602   4.088   6.404 -1.8932  0.1639 -1.2983
  192POPC    HB22145   3.668   3.919   6.435 -0.4054 -0.2611  1.5153
  192POPC    C222146   3.496   3.968   6.560 -0.4382  0.3236 -0.5559
  192POPC    HS22147   3.398   4.013   6.535 -0.9971 -1.0889 -0.9862
  192POPC   O2122148   3.564   4.047   6.657 -0.3201  0.2296  0.1691
  192POPC   C2122149   3.485   4.133   6.728 -0.6821 -0.9512 -0.5437
  192POPC   O2222150   3.370   4.161   6.711  0.0525 -0.1335  0.1209
  192POPC   C2222151   3.567   4.212   6.831  0.0162  0.1582  0.1221
  192POPC   H2R22152   3.509   4.304   6.855 -1.3198 -0.8046  0.7422
  192POPC   H2S22153   3.659   4.243   6.778 -1.2126  5.1123  0.4175
  192POPC    C322154   3.492   3.825   6.615  0.0232 -0.7721  0.7173
  192POPC    HX22155   3.588   3.775   6.641  0.0108 -0.6231  1.0536
  192POPC    HY22156   3.453   3.764   6.531 -0.2483 -0.3590  0.5407
  192POPC   O3122157   3.403   3.820   6.730  0.2956  0.3234  0.4171
  192POPC   C3122158   3.272   3.807   6.708  0.8841  0.7666 -0.0480
  192POPC   O3222159   3.219   3.798   6.599 -0.0219  0.3195  0.0555
  192POPC   C3222160   3.201   3.799   6.843  0.4412  0.1239 -0.6599
  192POPC   H2X22161   3.250   3.870   6.913  1.0102 -1.1221  0.2243
  192POPC   H2Y22162   3.210   3.695   6.880 -2.7630  0.5773  1.8239
  192POPC   C2322163   3.586   4.133   6.958  0.1975 -0.5447  0.5270
  192POPC   H3R22164   3.625   4.200   7.038  1.6140 -2.4441  1.5142
  192POPC   H3S22165   3.663   4.058   6.932  0.3064 -0.1104 -0.4318
  192POPC   C2422166   3.451   4.070   7.000 -0.2550 -0.1982  0.0240
  192POPC   H4R22167   3.424   3.987   6.931 -0.8667 -2.6810  3.0380
  192POPC   H4S22168   3.368   4.143   7.003 -0.7299 -0.7112 -0.4543
  192POPC   C2522169   3.475   4.007   7.141  0.9279 -0.5231  0.2716
  192POPC   H5R22170   3.502   4.085   7.215 -0.4577  0.4371 -0.1881
  192POPC   H5S22171   3.568   3.950   7.120  1.9602  1.2443 -0.2131
  192POPC   C2622172   3.385   3.901   7.191  0.7536  0.2926 -0.5319
  192POPC   H6R22173   3.444   3.826   7.249  1.0608  0.8630 -0.0931
  192POPC   H6S22174   3.336   3.846   7.109 -0.3899 -3.4802  2.3723
  192POPC   C2722175   3.267   3.954   7.280 -0.7346  0.4754 -0.6541
  192POPC   H7R22176   3.187   3.877   7.284 -0.5507  0.3006 -0.3258
  192POPC   H7S22177   3.221   4.040   7.226 -1.1688  0.3427 -0.5046
  192POPC   C2822178   3.309   3.995   7.424 -0.7735 -0.2410  0.9760
  192POPC   H8R22179   3.220   4.043   7.470 -0.6210  1.5179 -0.4741
  192POPC   H8S22180   3.386   4.075   7.427 -0.9943 -0.0461  1.8172
  192POPC   C2922181   3.336   3.873   7.506 -1.2031  0.2270 -0.2588
  192POPC   H9122182   3.367   3.785   7.447  0.8221  2.2892 -2.4338
  192POPC  C21022183   3.343   3.867   7.643 -0.0489  0.3242 -0.3345
  192POPC  H10122184   3.352   3.768   7.691 -0.4315  0.6677  0.4583
  192POPC  C21122185   3.311   3.978   7.737 -0.1385 -1.4728  0.5284
  192POPC  H11R22186   3.307   4.074   7.681 -0.7036 -2.4449 -1.1933
  192POPC  H11S22187   3.398   4.002   7.801  0.8943 -0.1246 -1.2968
  192POPC  C21222188   3.178   3.969   7.811 -0.3002 -0.5388 -0.2939
  192POPC  H12R22189   3.167   3.874   7.868  1.3310 -1.2599 -1.1258
  192POPC  H12S22190   3.103   3.965   7.729 -0.7826 -1.9454  0.1795
  192POPC  C21322191   3.160   4.092   7.904  0.6621  0.2378 -0.2316
  192POPC  H13R22192   3.071   4.072   7.968  1.5829 -0.9809  0.7121
  192POPC  H13S22193   3.128   4.177   7.841  0.3860  1.1097  1.0376
  192POPC  C21422194   3.278   4.116   8.000 -0.3918  0.1273 -1.0978
  192POPC  H14R22195   3.367   4.137   7.937  0.2772  0.6227 -0.0253
  192POPC  H14S22196   3.292   4.024   8.060  0.1338  1.4009  0.8202
  192POPC  C21522197   3.264   4.235   8.098 -0.5047 -0.3231  0.4340
  192POPC  H15R22198   3.174   4.234   8.164 -0.4825  2.3955  0.5875
  192POPC  H15S22199   3.251   4.334   8.051  0.6313 -0.3400  0.0558
  192POPC  C21622200   3.393   4.237   8.193  0.1969 -0.1717 -0.2782
  192POPC  H16R22201   3.474   4.227   8.117  1.0694 -1.0547  0.7303
  192POPC  H16S22202   3.419   4.145   8.250  2.4517 -0.8381 -2.2375
  192POPC  C21722203   3.410   4.362   8.287 -0.3426 -0.3426 -0.6433
  192POPC  H17R22204   3.376   4.331   8.388 -0.4136 -0.8838 -0.8251
  192POPC  H17S22205   3.344   4.442   8.246  0.5403  0.1655 -1.0970
  192POPC  C21822206   3.549   4.420   8.286 -0.1427 -0.4711 -0.4606
  192POPC  H18R22207   3.629   4.347   8.312  1.4916  1.6407  0.7855
  192POPC  H18S22208   3.555   4.507   8.354  0.2625 -0.6665 -0.2448
  192POPC  H18T22209   3.569   4.460   8.184  0.2373  1.5844  0.3597
  192POPC   C3322210   3.055   3.851   6.833  0.4565 -0.4243  0.3581
  192POPC   H3X22211   2.979   3.779   6.795  2.4756 -2.1182 -0.6787
  192POPC   H3Y22212   3.050   3.934   6.760 -1.2002 -0.6269  0.2109
  192POPC   C3422213   3.011   3.917   6.968  0.5313 -0.4711  0.5375
  192POPC   H4X22214   2.929   3.990   6.949  0.0245 -1.6433 -2.4670
  192POPC   H4Y22215   3.094   3.983   7.000 -0.3679  0.6758  0.5624
  192POPC   C3522216   2.959   3.822   7.085  0.9028 -0.0227 -0.4987
  192POPC   H5X22217   3.046   3.768   7.129  3.1407  3.2390 -0.6235
  192POPC   H5Y22218   2.884   3.744   7.060  0.9121 -1.0449  2.2440
  192POPC   C3622219   2.908   3.915   7.193 -0.0319 -0.1755  0.4357
  192POPC   H6X22220   2.813   3.962   7.159  0.4943  2.7555  2.6389
  192POPC   H6Y22221   2.986   3.994   7.194  0.5813 -0.7313 -0.8399
  192POPC   C3722222   2.887   3.850   7.327 -0.1575 -0.0770 -0.4099
  192POPC   H7X22223   2.937   3.752   7.343 -2.2047 -1.0385  0.5525
  192POPC   H7Y22224   2.783   3.809   7.335  0.3991 -1.2436  1.9436
  192POPC   C3822225   2.887   3.952   7.448  0.0683 -0.6484  0.3102
  192POPC   H8X22226   2.795   4.015   7.439 -1.6350 -2.6130  2.7972
  192POPC   H8Y22227   2.972   4.023   7.454 -1.3331  1.3454 -1.5522
  192POPC   C3922228   2.862   3.873   7.578 -0.5656  0.4171 -0.6815
  192POPC   H9X22229   2.965   3.834   7.594  0.1127  0.9783 -3.2045
  192POPC   H9Y22230   2.789   3.793   7.555  0.2824 -0.6108  0.1088
  192POPC  C31022231   2.814   3.957   7.689 -0.2954 -0.9062 -0.3225
  192POPC  H10X22232   2.715   3.999   7.659 -0.5319 -0.2658  1.2503
  192POPC  H10Y22233   2.887   4.040   7.700 -0.1428 -1.2234  1.4413
  192POPC  C31122234   2.792   3.876   7.822 -0.0207 -0.3671 -0.0389
  192POPC  H11X22235   2.891   3.828   7.839 -0.1419 -0.1024  1.5246
  192POPC  H11Y22236   2.704   3.812   7.799 -1.0122 -0.2389  2.9576
  192POPC  C31222237   2.743   3.971   7.937 -0.1619 -0.2237 -0.1911
  192POPC  H12X22238   2.639   4.009   7.929 -0.6102 -1.5069 -0.6666
  192POPC  H12Y22239   2.812   4.058   7.931  0.2385 -0.5810 -0.8630
  192POPC  C31322240   2.774   3.902   8.075 -0.2471 -0.0553  0.2648
  192POPC  H13X22241   2.879   3.867   8.066 -0.2800  0.2845 -2.4108
  192POPC  H13Y22242   2.701   3.818   8.077 -1.4972  0.9581 -0.5002
  192POPC  C31422243   2.760   3.972   8.215 -0.1762  0.3795  0.4316
  192POPC  H14X22244   2.657   4.011   8.226 -1.0468 -0.7062 -2.7304
  192POPC  H14Y22245   2.840   4.048   8.206  0.9971 -1.0119 -1.8611
  192POPC  C31522246   2.806   3.882   8.337  0.1332  0.0826  0.2259
  192POPC  H15X22247   2.913   3.853   8.334  0.2290  0.3975  0.5432
  192POPC  H15Y22248   2.749   3.787   8.330  1.0497 -0.5231  0.7672
  192POPC  C31622249   2.773   3.937   8.474  0.0149  0.5957 -0.4037
  192POPC  H16X22250   2.790   4.047   8.472 -0.5105  0.6679 -2.0510
  192POPC  H16Y22251   2.831   3.888   8.556  0.2790 -1.4814 -1.7634
  192POPC  H16Z22252   2.668   3.912   8.499 -0.0488  2.5141  1.5651
  193SOD    SOD22253   5.968   1.116   1.947  0.1970 -0.3124 -0.4469
  194SOD    SOD22254   4.710   2.957  11.442  0.4260  0.5709 -0.4512
  195SOD    SOD22255   0.255   1.274   4.080 -0.0931  0.3068 -0.6484
  196SOD    SOD22256   2.468   2.756   5.930 -0.2046  0.1201  0.1693
  197SOD    SOD22257   6.410   6.501   0.274  0.3560  0.0174 -0.2522
  198SOD    SOD22258   3.428   4.883   2.589 -0.1708  0.3558 -0.4804
  199SOD    SOD22259   1.725   3.079  11.542 -0.0015  0.2092 -0.0673
  200SOD    SOD22260   6.184   0.116  14.897  0.0076 -0.2548  0.2236
  201SOD    SOD22261   1.138   4.428  15.798  0.5849  0.1093  0.2959
  202SOD    SOD22262   6.031   0.916   6.546  0.0440  0.5503 -0.1097
  203SOD    SOD22263   3.960   1.601  15.948 -0.0962 -0.8001 -0.3133
  204SOD    SOD22264   4.403   6.389   3.804 -0.2095 -0.2294 -0.4562
  205SOD    SOD22265   5.382   1.552  13.671 -0.1016  0.7000 -0.2351
  206SOD    SOD22266   6.728   3.563  15.223  0.1058 -0.0650 -0.1418
  207SOD    SOD22267   2.249   4.852   2.805 -0.5864  0.0865 -0.2586
  208SOD    SOD22268   0.388   1.215  11.271  0.0466  0.2543 -0.2187
  209SOD    SOD22269   2.785   2.067   5.868  0.3932 -0.4816 -0.0625
  210SOD    SOD22270   6.019   6.010  12.656  0.0659 -0.0290  0.1213
  211SOD    SOD22271   1.112   0.169   5.482 -0.1661  0.5617 -0.0616
  212SOD    SOD22272   6.122   1.936   3.920 -0.0752 -0.1544  0.5203
  213SOD    SOD22273   3.202   4.769   5.903 -0.2327  0.5398  0.3079
  214SOD    SOD22274   6.007   2.156  12.842 -0.1780  0.0063 -0.0629
  215SOD    SOD22275   1.001   1.819   1.893  0.6847  0.1902  0.1993
  216SOD    SOD22276   1.673   0.918  11.024 -0.2205  0.0473 -0.0196
  217SOD    SOD22277   3.582   0.449  12.140  0.3516  0.0564  0.0876
  218SOD    SOD22278   4.183   5.136  13.074  0.0636 -0.1262  0.0588
  219SOD    SOD22279   2.642   2.113   6.678  0.0974  0.2468  0.2479
  220SOD    SOD22280   2.696   6.706  13.966 -0.0867  0.5483  0.0523
  221SOD    SOD22281   1.324   3.996  11.068 -0.4479 -0.1107  0.4541
  222SOD    SOD22282   4.478   4.863  16.782  0.2688 -0.3119 -0.2467
  223SOD    SOD22283   4.479   0.326   5.810  0.2480  0.5210 -0.0540
  224SOD    SOD22284   4.044   3.730   0.172  0.3155  0.0703  0.1770
  225SOD    SOD22285   3.482   1.443  12.278 -0.0607 -0.0913 -0.2354
  226SOD    SOD22286   4.636   3.336  13.045 -0.1561  0.4182 -0.3886
  227SOD    SOD22287   3.414   1.367   4.064 -0.2777  0.0132 -0.0956
  228SOD    SOD22288   4.927   4.775  15.970  0.2737 -0.3791 -0.5188
  229SOD    SOD22289   3.054   2.569  11.723 -0.4354  0.1571 -0.0339
  230SOD    SOD22290   3.954   4.762  14.986  0.6270 -0.0280 -0.6140
  231SOD    SOD22291   0.099   1.023   1.113  0.0915  0.1422  0.2800
  232SOD    SOD22292   4.709   0.282  11.322 -0.2632  0.5611  0.1864
  233SOD    SOD22293   4.707   4.217   5.872 -0.4584  0.0695 -0.0357
  234SOD    SOD22294   2.242   1.226   4.659 -0.0332 -0.1757  0.0400
  235SOD    SOD22295   5.857   5.589   3.866 -0.6149 -0.3441  0.0841
  236SOD    SOD22296   2.816   3.557  15.323  0.3118 -0.2401  0.4365
  237SOD    SOD22297   1.076   5.757   3.132  0.0357  0.3418 -0.5894
  238SOD    SOD22298   0.006   4.667   2.809 -0.1602 -0.1123 -0.6572
  239SOD    SOD22299   1.725   6.087   0.356 -0.8539  0.3138  0.5097
  240SOD    SOD22300   5.818   5.190  12.708  0.1340 -0.7287 -0.0944
  241SOD    SOD22301   1.530   4.393  11.762  0.5898 -0.2256 -0.5509
  242SOD    SOD22302   0.146   4.780   4.450 -0.0128 -0.2614  0.4093
  243SOD    SOD22303   5.413   2.213  11.691 -0.4035  0.1674 -0.2211
  244SOD    SOD22304   4.957   2.334   5.551 -0.0930 -0.3606  0.4488
  245SOD    SOD22305   1.545   1.455   6.383  0.4754  0.6521 -0.3560
  246SOD    SOD22306   0.089   3.052  12.467  0.4351  0.4184 -0.1756
  247SOD    SOD22307   5.493   4.212  12.912 -0.2992  0.2942  0.0066
  248SOD    SOD22308   3.165   5.921   4.670 -0.0209 -0.8434 -0.6894
  249SOD    SOD22309   4.511   0.894  11.792 -0.5551 -0.0107 -0.7125
  250SOD    SOD22310   1.878   3.873  10.673 -0.2923 -0.3840 -0.1073
  251SOD    SOD22311   1.307   0.324  16.957  0.2005  0.1986  0.3403
  252SOD    SOD22312   4.166   2.888   3.012 -0.1231 -0.1179 -0.0593
  253SOD    SOD22313   4.112   1.316   5.285 -0.4881  0.4735 -0.1203
  254SOD    SOD22314   5.962   3.625  11.668  0.0303  0.0178  0.3469
  255SOD    SOD22315   2.244   5.887  16.826  0.3821  0.6049  0.0248
  256SOD    SOD22316   3.939   6.748  15.252 -0.0102 -0.7193 -0.7058
  257SOD    SOD22317   0.115   4.555  13.898  0.3257 -0.2092 -0.0187
  258SOD    SOD22318   1.967   5.166   2.251 -0.0088  0.1173 -0.2872
  259SOD    SOD22319   6.520   3.132  13.981  0.2059  0.2175 -0.0647
  260SOD    SOD22320   4.232   6.390  16.639 -0.1180  0.0739 -0.2585
  261SOD    SOD22321   0.867   1.738   5.898 -0.0696 -0.1633  0.0498
  262SOD    SOD22322   4.566   4.248   3.059  0.3775 -0.2296 -0.3421
  263SOD    SOD22323   4.381   4.871   5.483 -0.4459 -0.1230  0.1250
  264SOD    SOD22324   6.338   4.192  16.999  0.0051 -0.4147 -0.2137
  265SOD    SOD22325   4.553   4.578  14.063  0.5254  0.2604 -0.1980
  266SOD    SOD22326   0.663   6.251  13.951 -0.9618 -0.1708 -0.7031
  267SOD    SOD22327   3.291   3.945  12.374  0.3409 -0.1018 -0.2171
  268SOD    SOD22328   2.857   4.496  15.802 -0.3952  0.1361  0.3258
  269SOD    SOD22329   4.931   3.515   5.610  0.1256  0.2889 -0.1435
  270CLA    CLA22330   3.028   6.737   1.051  0.2554  0.1434  0.4514
  271CLA    CLA22331   2.753   5.466   3.113 -0.3442 -0.0038 -0.3001
  272CLA    CLA22332   4.214   0.619  14.397 -0.0503 -0.0516  0.0965
  273CLA    CLA22333   1.943   5.776  12.789 -0.0067 -0.2891 -0.1337
  274CLA    CLA22334   6.688   4.071   4.526 -0.0541 -0.3603  0.2084
  275CLA    CLA22335   6.651   5.939   0.761  0.2285 -0.1019 -0.6134
  276CLA    CLA22336   6.333   4.416  13.400  0.1377  0.0805 -0.4739
  277CLA    CLA22337   5.008   3.625   3.637 -0.0042  0.2236 -0.1627
  278CLA    CLA22338   6.615   4.845  13.574 -0.0079  0.1949  0.0877
  279CLA    CLA22339   4.245   4.718  14.580 -0.1519  0.2412 -0.1687
  280CLA    CLA22340   2.202   5.060   2.355 -0.1287  0.3187 -0.0608
  281CLA    CLA22341   0.436   2.446   1.043  0.0518  0.1191  0.1080
  282CLA    CLA22342   5.029   0.198  12.291 -0.1758  0.2099  0.1028
  283CLA    CLA22343   1.699   0.616  13.906 -0.6125  0.2165  0.2832
  284CLA    CLA22344   0.836   3.037   3.830  0.3917 -0.0639 -0.0251
  285CLA    CLA22345   0.436   0.138   2.110  0.1707  0.4294 -0.0478
  286CLA    CLA22346   5.185   3.420  13.840 -0.1062  0.0885 -0.3626
  287CLA    CLA22347   3.316   5.605  16.384 -0.1548  0.2338 -0.0185
  288CLA    CLA22348   4.514   5.056  17.244 -0.2018  0.1188 -0.4560
  289CLA    CLA22349   6.117   6.430   3.575  0.2483  0.2680 -0.1231
  290CLA    CLA22350   1.484   6.044   4.001 -0.8310  0.0556  0.0126
  291CLA    CLA22351   5.679   2.043  13.253  0.0018 -0.2580  0.0810
  292CLA    CLA22352   3.430   2.142   3.630 -0.4628 -0.1179  0.3442
  293CLA    CLA22353   0.460   1.762  12.346 -0.2219  0.0428 -0.5332
  294CLA    CLA22354   4.044   2.877  14.650 -0.0268  0.1769 -0.0077
  295CLA    CLA22355   2.755   3.138   0.037  0.1623  0.0693 -0.1545
  296CLA    CLA22356   3.889   4.269  15.111  0.3309 -0.3740 -0.1658
  297CLA    CLA22357   0.023   1.321   1.527 -0.4903  0.1472 -0.0767
  298CLA    CLA22358   2.301   5.433  16.200 -0.6690  0.1399 -0.3687
  299CLA    CLA22359   5.524   5.547  13.932 -0.1309  0.5952 -0.1854
  300CLA    CLA22360   6.343   5.448   1.579  0.0789  0.4155 -0.1164
  301CLA    CLA22361   6.119   2.980  15.332 -0.0971 -0.1283  0.3528
  302CLA    CLA22362   3.975   6.350   4.684 -0.0382  0.0002  0.1884
  303CLA    CLA22363   5.194   4.037   2.135  0.2370  0.3663 -0.0927
  304CLA    CLA22364   1.065   3.760  12.196  0.2228 -0.1994  0.1319
  305CLA    CLA22365   4.946   0.973  16.412  0.3310 -0.0457 -0.1953
  306CLA    CLA22366   0.008   1.594  11.791 -0.1124  0.3053  0.0333
  307CLA    CLA22367   6.700   0.812  17.287 -0.4963 -0.0947 -0.0808
  308CLA    CLA22368   3.882   0.066  14.006 -0.2016  0.2810  0.2342
  309CLA    CLA22369   2.600   5.267  12.807  0.1460 -0.1052 -0.3624
  310CLA    CLA22370   0.814   1.534   2.447 -0.4187  0.2345  0.1218
  311CLA    CLA22371   4.651   3.037  16.583 -0.0388  0.0490 -0.1033
  312CLA    CLA22372   5.571   1.074   5.228 -0.5756  0.3780 -0.6065
  313CLA    CLA22373   0.803   3.529  13.465  0.1905  0.0101  0.2956
  314CLA    CLA22374   6.127   2.082   2.703 -0.2012  0.0223  0.0157
  315CLA    CLA22375   3.606   5.631   5.319  0.2855  0.4500 -0.4616
  316CLA    CLA22376   4.546   2.707   2.178 -0.1964  0.2183  0.8508
  317CLA    CLA22377   1.278   3.869   1.401  0.2140  0.0697  0.2344
  318CLA    CLA22378   4.456   5.550  12.489  0.7233  0.3435  0.2279
  319CLA    CLA22379   4.342   2.306  12.276 -0.1407  0.3995  0.0510
  320CLA    CLA22380   5.251   0.513  12.911  0.3148  0.3246  0.4426
  321CLA    CLA22381   3.651   4.472  16.329  0.2213  0.3533  0.2065
  322CLA    CLA22382   0.308   0.128   3.482 -0.2259 -0.2206  0.2018
  323TIP3   OH222383   6.612   2.283  12.300  0.0221  0.7619  0.3715
  323TIP3    H122384   6.537   2.226  12.315 -1.5676  2.2243 -1.5227
  323TIP3    H222385   6.605   2.351  12.367 -0.4512  0.9784  0.1065
  324TIP3   OH222386   5.725   5.035  16.263 -0.6325 -0.0959 -0.1293
  324TIP3    H122387   5.679   5.108  16.304  0.2796  0.3396  0.1474
  324TIP3    H222388   5.675   4.957  16.290  0.4327  0.0457  2.6737
  325TIP3   OH222389   2.407   1.692  14.041  0.3749  0.3236  0.0959
  325TIP3    H122390   2.382   1.668  14.130 -1.0115  1.9340  0.1854
  325TIP3    H222391   2.325   1.694  13.993  0.9465  0.8385 -0.8808
  326TIP3   OH222392   4.381   1.320  13.747 -0.2937 -0.2077  0.3743
  326TIP3    H122393   4.372   1.391  13.811  0.8772  0.3637 -0.0716
  326TIP3    H222394   4.309   1.261  13.768  0.4935 -0.4476  2.7196
  327TIP3   OH222395   4.422   2.792  12.164  0.0718 -0.1049 -0.4107
  327TIP3    H122396   4.509   2.822  12.136  0.2797 -1.5779 -1.4438
  327TIP3    H222397   4.411   2.708  12.120 -1.9441  0.1148 -0.3832
  328TIP3   OH222398   3.216   3.888   1.860  0.5146  0.1102 -0.1952
  328TIP3    H122399   3.240   3.797   1.878  0.2710  0.1658  0.4194
  328TIP3    H222400   3.128   3.883   1.822  1.9962 -0.2422 -4.0466
  329TIP3   OH222401   2.162   2.556   4.363  0.0603  0.0092  0.2329
  329TIP3    H122402   2.144   2.639   4.320 -3.0464 -1.3295 -1.3771
  329TIP3    H222403   2.176   2.494   4.292  0.5724 -1.1905  1.3287
  330TIP3   OH222404   0.594   4.048   2.360 -0.0253 -0.2958 -0.0173
  330TIP3    H122405   0.687   4.048   2.386  0.3110  0.1125 -1.1706
  330TIP3    H222406   0.549   4.093   2.432  0.9727  1.4368 -0.4212
  331TIP3   OH222407   1.138   0.617  13.395  0.1814  0.5216 -0.2837
  331TIP3    H122408   1.050   0.652  13.380 -0.3214  0.2149  1.6517
  331TIP3    H222409   1.129   0.523  13.380  0.3987  0.6067 -0.9524
  332TIP3   OH222410   2.149   4.252  12.813  0.0460  0.1076 -0.0380
  332TIP3    H122411   2.125   4.248  12.720  0.4426  0.8671 -0.1792
  332TIP3    H222412   2.219   4.318  12.817  0.2739 -0.1711  0.7491
  333TIP3   OH222413   1.224   2.841  14.625  0.0272  0.0458  0.0892
  333TIP3    H122414   1.296   2.902  14.613 -1.3245  1.2395 -3.6375
  333TIP3    H222415   1.145   2.895  14.617 -1.2506 -1.6864  0.3210
  334TIP3   OH222416   2.812   1.132   1.384  0.2910 -0.1038  0.5103
  334TIP3    H122417   2.859   1.080   1.318  0.7054 -0.5490  1.1422
  334TIP3    H222418   2.729   1.155   1.342  1.7035  2.1409 -1.2960
  335TIP3   OH222419   1.210   0.615  12.899 -0.2822 -0.0120 -0.2380
  335TIP3    H122420   1.155   0.689  12.926 -1.2245 -0.9401  0.4253
  335TIP3    H222421   1.150   0.553  12.859  0.0489 -1.5903  1.5924
  336TIP3   OH222422   4.476   3.015   2.027  0.1182 -0.1502  0.1715
  336TIP3    H122423   4.528   3.003   1.947 -0.9074  1.4506 -0.7845
  336TIP3    H222424   4.446   2.927   2.049  1.3447 -0.7760 -0.5594
  337TIP3   OH222425   1.275   3.330  13.109  0.0569 -0.4860  0.4052
  337TIP3    H122426   1.281   3.417  13.148 -0.3614  0.0334 -0.6570
  337TIP3    H222427   1.355   3.320  13.058  0.1395 -0.7571  0.5849
  338TIP3   OH222428   2.494   1.085   2.834 -0.4324  0.1213 -0.1590
  338TIP3    H122429   2.518   1.151   2.900 -0.6502 -1.6474  1.7921
  338TIP3    H222430   2.410   1.115   2.800  0.7672  2.3217 -1.4531
  339TIP3   OH222431   0.060   6.019  17.347  0.1066 -0.3330 -0.0366
  339TIP3    H122432   0.125   6.006  17.415 -1.7256 -0.4518  1.7856
  339TIP3    H222433   0.077   6.108  17.314  0.0817  0.3485  1.6955
  340TIP3   OH222434   2.948   3.666   4.233 -0.6448 -0.0589  0.1246
  340TIP3    H122435   2.968   3.751   4.272 -2.0327 -0.4858  1.9215
  340TIP3    H222436   2.855   3.672   4.209 -1.0557 -1.3566  1.2393
  341TIP3   OH222437   6.347   0.323   0.373 -0.9033 -0.0835 -0.0417
  341TIP3    H122438   6.374   0.414   0.389 -1.9607  0.0024  1.4777
  341TIP3    H222439   6.421   0.271   0.401  0.0344  0.2927 -1.6735
  342TIP3   OH222440   2.219   3.362   1.992 -0.0881  0.1035  0.1325
  342TIP3    H122441   2.145   3.301   1.993  0.9796 -1.3005 -1.4000
  342TIP3    H222442   2.271   3.338   2.069 -1.5358  1.6024  1.6641
  343TIP3   OH222443   2.521   1.874  17.212  0.1319 -0.0612 -0.3747
  343TIP3    H122444   2.613   1.870  17.183  0.2292 -1.2835  0.0449
  343TIP3    H222445   2.514   1.805  17.278 -0.1306  2.4897  2.4780
  344TIP3   OH222446   3.863   5.106  14.189  0.6004 -0.2622  0.0628
  344TIP3    H122447   3.796   5.174  14.187  1.5710  0.7559  0.8566
  344TIP3    H222448   3.868   5.081  14.281  2.5334  0.9754  0.3495
  345TIP3   OH222449   1.911   0.560  17.368  0.0927 -0.1129 -0.6456
  345TIP3    H122450   1.900   0.566  17.463  0.4755  0.5521 -0.6357
  345TIP3    H222451   1.834   0.605  17.333  0.7036  0.9877 -0.6223
  346TIP3   OH222452   6.336   5.637  15.225 -0.5442 -0.0251 -0.0247
  346TIP3    H122453   6.403   5.604  15.285 -0.2588 -1.8026 -1.2235
  346TIP3    H222454   6.367   5.724  15.199  0.6816 -0.3224  0.3683
  347TIP3   OH222455   0.266   0.849  13.376  0.2215 -0.3255 -0.3204
  347TIP3    H122456   0.215   0.786  13.325 -2.0002  2.2033 -1.4869
  347TIP3    H222457   0.239   0.834  13.466  0.1041 -1.3304 -0.5097
  348TIP3   OH222458   0.502   5.274  12.429  0.4988 -0.0004 -0.7721
  348TIP3    H122459   0.547   5.190  12.430 -4.0785 -2.7753 -1.0749
  348TIP3    H222460   0.497   5.298  12.336 -0.0788 -0.6200 -0.9107
  349TIP3   OH222461   6.395   4.654  12.087 -0.1186 -0.2080 -0.0059
  349TIP3    H122462   6.382   4.579  12.030 -0.9049 -1.5149  1.7754
  349TIP3    H222463   6.334   4.640  12.159  0.6983  1.4380  1.0827
  350TIP3   OH222464   2.912   5.620  12.812  0.5530 -0.2792  0.0964
  350TIP3    H122465   2.949   5.532  12.805 -0.4818 -0.7438  0.2462
  350TIP3    H222466   2.822   5.606  12.841  0.9504  0.9496  2.0622
  351TIP3   OH222467   0.929   6.379  13.517  0.3860  0.0679  0.5278
  351TIP3    H122468   0.983   6.454  13.539 -0.3236  1.2141 -1.4768
  351TIP3    H222469   0.950   6.358  13.426 -2.4617  0.5736 -0.3503
  352TIP3   OH222470   1.978   1.383   5.397 -0.6723 -0.3775  0.2133
  352TIP3    H122471   1.963   1.344   5.311 -3.6410  1.3601 -0.1825
  352TIP3    H222472   1.950   1.315   5.459 -0.2378 -0.9653 -0.2218
  353TIP3   OH222473   4.591   1.786   6.219 -0.0280 -0.0368 -0.0103
  353TIP3    H122474   4.647   1.714   6.192  0.2716 -0.7201  2.2276
  353TIP3    H222475   4.578   1.773   6.313 -3.9507  0.0760 -0.3594
  354TIP3   OH222476   5.213   3.503   3.057 -0.0956  0.2342 -0.2312
  354TIP3    H122477   5.142   3.440   3.045 -0.7451  0.3119  2.5498
  354TIP3    H222478   5.293   3.450   3.052 -0.6245 -0.8685  1.9683
  355TIP3   OH222479   5.831   4.537   6.344  0.0406 -0.4861 -0.3989
  355TIP3    H122480   5.857   4.489   6.423  0.6916  2.5928  1.4022
  355TIP3    H222481   5.794   4.470   6.287  0.1112 -2.9730  2.2458
  356TIP3   OH222482   4.506   2.423  16.133 -0.1268 -0.2804 -0.1166
  356TIP3    H122483   4.432   2.400  16.189  0.4552 -0.1132  0.7509
  356TIP3    H222484   4.473   2.415  16.044 -1.5499  1.0370  0.2570
  357TIP3   OH222485   3.655   0.999   3.689  0.3850 -0.3480  0.5414
  357TIP3    H122486   3.627   0.913   3.720  1.0038  0.1917  2.7583
  357TIP3    H222487   3.648   0.993   3.594 -2.5565 -1.8025  0.7304
  358TIP3   OH222488   0.660   2.495   3.254  0.5280 -0.6940 -0.2595
  358TIP3    H122489   0.573   2.457   3.271  1.1945 -0.6330  4.8808
  358TIP3    H222490   0.709   2.424   3.213 -1.0600 -1.8961 -0.1850
  359TIP3   OH222491   2.562   3.147  15.453 -0.4591  0.1110 -0.3127
  359TIP3    H122492   2.626   3.130  15.522 -1.7348  0.0410  0.9059
  359TIP3    H222493   2.478   3.154  15.499 -1.1551  1.5818 -1.6936
  360TIP3   OH222494   5.249   0.772   1.751  0.4219 -0.2986  0.0522
  360TIP3    H122495   5.331   0.735   1.717 -0.1813 -1.3554 -0.2919
  360TIP3    H222496   5.243   0.858   1.709  1.2944 -0.2616 -0.0145
  361TIP3   OH222497   0.755   3.250  15.353 -0.2042 -0.0696 -0.2289
  361TIP3    H122498   0.849   3.234  15.338  0.1109  0.8018  0.7014
  361TIP3    H222499   0.725   3.174  15.403 -0.0584 -0.4842 -0.7672
  362TIP3   OH222500   1.214   0.977   3.477  0.0030 -0.1034 -0.1374
  362TIP3    H122501   1.126   0.965   3.439  0.5844 -0.7902 -1.3422
  362TIP3    H222502   1.254   1.045   3.422 -0.0807  0.8923  0.9944
  363TIP3   OH222503   1.412   1.932  13.739  0.1940 -0.2860 -0.0911
  363TIP3    H122504   1.456   2.008  13.778  0.2760 -0.4449  0.1203
  363TIP3    H222505   1.322   1.962  13.726  0.0882 -0.3353  0.4990
  364TIP3   OH222506   1.436   2.204   3.287  0.0692 -0.4286  0.7260
  364TIP3    H122507   1.422   2.123   3.238  1.9259  0.4280 -1.3748
  364TIP3    H222508   1.350   2.246   3.289 -0.6680 -1.9030  0.8284
  365TIP3   OH222509   0.107   1.608  15.010  0.0437 -0.0443  0.4675
  365TIP3    H122510   0.181   1.660  15.042  0.0439  0.1096  0.2189
  365TIP3    H222511   0.031   1.665  15.022 -0.0986 -0.3533  1.1044
  366TIP3   OH222512   6.630   3.597  16.805 -0.5498  0.5084  0.3690
  366TIP3    H122513   6.684   3.573  16.729 -0.0758  0.4416  0.7240
  366TIP3    H222514   6.647   3.690  16.817 -1.7572  0.8713 -0.5024
  367TIP3   OH222515   3.754   0.456  16.252  0.2125  0.3956 -0.1985
  367TIP3    H122516   3.726   0.533  16.302  0.7611  1.1566 -1.0383
  367TIP3    H222517   3.694   0.387  16.279 -1.4594  1.5666 -0.7441
  368TIP3   OH222518   0.462   1.828   4.519  0.4860  0.3821  1.0199
  368TIP3    H122519   0.464   1.733   4.532  1.9652  0.0167 -1.3382
  368TIP3    H222520   0.536   1.860   4.571 -0.5395  0.4013  2.5247
  369TIP3   OH222521   3.667   6.060  13.764 -0.2074 -0.0908 -0.6084
  369TIP3    H122522   3.703   6.002  13.832  1.4380  2.2843  0.7158
  369TIP3    H222523   3.626   6.001  13.701 -0.6022 -2.5248  1.7316
  370TIP3   OH222524   4.249   4.909  11.185 -0.7829 -0.1741 -0.2501
  370TIP3    H122525   4.246   4.985  11.243  1.3935 -0.1354 -0.1163
  370TIP3    H222526   4.273   4.836  11.242 -0.1521 -0.4292 -0.8346
  371TIP3   OH222527   6.389   1.516   1.641  0.3919  1.0459 -0.2811
  371TIP3    H122528   6.475   1.473   1.648 -0.1777 -0.3276 -1.2097
  371TIP3    H222529   6.398   1.574   1.566  0.9860  2.1501  0.6164
  372TIP3   OH222530   2.550   3.343  11.764  0.5470  0.0842  0.5309
  372TIP3    H122531   2.487   3.275  11.789 -0.6303  0.3830 -1.3770
  372TIP3    H222532   2.628   3.324  11.816 -1.3163  0.1931  3.6368
  373TIP3   OH222533   6.045   3.536  15.500 -0.0267  0.5582 -0.2778
  373TIP3    H122534   5.976   3.476  15.472  1.6359 -1.0719 -1.1395
  373TIP3    H222535   6.087   3.491  15.574  0.9100  0.8925 -0.5865
  374TIP3   OH222536   2.552   4.324  12.794  0.4315 -0.2865  0.1782
  374TIP3    H122537   2.587   4.384  12.860  0.7817  0.7167 -0.8898
  374TIP3    H222538   2.459   4.347  12.789 -0.1235 -1.8476  1.8353
  375TIP3   OH222539   2.654   6.669   6.355 -0.2753 -0.2688 -0.6035
  375TIP3    H122540   2.591   6.731   6.391 -0.4683 -0.2729 -0.9319
  375TIP3    H222541   2.608   6.586   6.354  0.1514 -0.5295  0.3130
  376TIP3   OH222542   5.329   1.810   2.195  0.2500 -0.6324  0.0332
  376TIP3    H122543   5.365   1.732   2.237  1.8693  0.1394  0.1596
  376TIP3    H222544   5.405   1.866   2.180 -0.9050  1.0732  0.2766
  377TIP3   OH222545   1.535   4.220  13.539 -0.0947 -0.3778 -0.3525
  377TIP3    H122546   1.475   4.165  13.489 -0.6257 -0.4464  0.3561
  377TIP3    H222547   1.598   4.159  13.578  0.3823 -0.3149 -1.0092
  378TIP3   OH222548   3.539   3.579   4.798 -0.1712  0.0552  0.5607
  378TIP3    H122549   3.611   3.532   4.756  0.0880 -1.5406  2.5967
  378TIP3    H222550   3.582   3.647   4.850 -0.4226  1.3982 -0.9286
  379TIP3   OH222551   5.247   4.396  13.411  0.1066  0.1017 -0.2712
  379TIP3    H122552   5.249   4.482  13.453  0.3008 -0.5417  1.0880
  379TIP3    H222553   5.156   4.386  13.382 -0.2670  0.1991  0.8215
  380TIP3   OH222554   6.479   1.749  17.114  0.1324 -0.2602 -0.4869
  380TIP3    H122555   6.423   1.775  17.186  2.2026  1.7977  0.5160
  380TIP3    H222556   6.500   1.657  17.131 -1.6598 -0.6313 -0.1013
  381TIP3   OH222557   0.972   0.208  16.603  0.0638  0.6133  0.6072
  381TIP3    H122558   0.895   0.174  16.647 -0.6286  2.6657  1.0913
  381TIP3    H222559   0.942   0.287  16.557  1.1021 -0.5107 -2.2652
  382TIP3   OH222560   5.298   0.644  17.156 -0.6507 -0.5675 -0.2954
  382TIP3    H122561   5.267   0.694  17.080 -1.2457 -1.3017 -0.5364
  382TIP3    H222562   5.292   0.706  17.229  0.7077  0.4125 -0.9684
  383TIP3   OH222563   4.223   4.902  13.674 -0.2988  0.1605 -0.0558
  383TIP3    H122564   4.235   4.812  13.646 -0.9806 -0.0335  0.2682
  383TIP3    H222565   4.309   4.927  13.710  0.2061  0.0010 -1.1103
  384TIP3   OH222566   0.863   3.793   2.021 -0.2756 -0.0031 -0.1936
  384TIP3    H122567   0.907   3.878   2.009 -1.1544  0.5662  0.5309
  384TIP3    H222568   0.790   3.812   2.079 -0.5379 -1.2541 -0.0976
  385TIP3   OH222569   1.433   6.153   0.757  0.7240  0.0024 -0.2978
  385TIP3    H122570   1.448   6.082   0.695  0.7489  0.0441 -0.3396
  385TIP3    H222571   1.465   6.231   0.712 -2.3437  0.6342 -1.6522
  386TIP3   OH222572   1.706   5.463  15.075 -0.2932 -1.0276  0.0311
  386TIP3    H122573   1.715   5.403  15.002  0.6180 -0.8163 -0.0402
  386TIP3    H222574   1.786   5.515  15.073 -0.8923 -0.0728  0.3235
  387TIP3   OH222575   1.902   3.701  11.283  0.4037  0.1517  0.1433
  387TIP3    H122576   1.935   3.618  11.247 -1.7282 -1.1991  1.0679
  387TIP3    H222577   1.965   3.767  11.254  0.9536 -1.4330 -2.5962
  388TIP3   OH222578   5.518   3.272   5.316 -0.2115  0.0472 -0.2146
  388TIP3    H122579   5.521   3.180   5.341  0.5618 -0.5008 -2.1450
  388TIP3    H222580   5.522   3.271   5.220 -0.9492  2.0661 -0.3223
  389TIP3   OH222581   4.262   1.209   0.752 -0.1149  0.5246 -0.3174
  389TIP3    H122582   4.290   1.211   0.661 -0.3458  1.2537 -0.3713
  389TIP3    H222583   4.331   1.160   0.797 -0.1961 -0.1838 -0.9420
  390TIP3   OH222584   6.739   5.739  16.467  0.1047 -0.3596  0.1363
  390TIP3    H122585   6.661   5.722  16.519 -0.5113  2.2910  0.2006
  390TIP3    H222586   6.791   5.799  16.519  1.1816 -0.4277 -0.8129
  391TIP3   OH222587   6.025   0.604   4.095  0.1211  0.3468 -0.5170
  391TIP3    H122588   5.979   0.646   4.023  0.4930  1.8905  0.1124
  391TIP3    H222589   6.112   0.644   4.094  0.1408  0.3700  0.7541
  392TIP3   OH222590   4.535   0.561  12.458  0.0962  0.4162  0.0830
  392TIP3    H122591   4.548   0.467  12.446  0.3351  0.5326 -0.6016
  392TIP3    H222592   4.465   0.567  12.523  2.8004 -0.2515  3.3543
  393TIP3   OH222593   6.576   3.127   0.156 -0.6257 -0.1674  0.4355
  393TIP3    H122594   6.648   3.076   0.118  0.6392  1.0228  1.1355
  393TIP3    H222595   6.581   3.212   0.112 -1.6892 -0.0894  0.4308
  394TIP3   OH222596   2.693   5.137   3.496  0.1700 -0.3416  0.5588
  394TIP3    H122597   2.756   5.178   3.556  1.8073 -2.3303  0.3415
  394TIP3    H222598   2.714   5.173   3.410 -1.4655  1.7030  0.9454
  395TIP3   OH222599   6.715   5.731   3.071  0.5072 -0.0644 -0.0603
  395TIP3    H122600   6.680   5.662   3.016 -0.9979  0.8601 -0.3329
  395TIP3    H222601   6.798   5.697   3.103  0.7376 -1.1991 -1.7413
  396TIP3   OH222602   3.335   4.436  12.425  0.1899 -0.1891 -0.1239
  396TIP3    H122603   3.260   4.470  12.473 -0.7882 -0.4471 -1.4094
  396TIP3    H222604   3.405   4.500  12.441 -0.2970  0.0840  1.0406
  397TIP3   OH222605   0.484   4.457   3.407 -0.6788 -0.2825 -0.4140
  397TIP3    H122606   0.517   4.413   3.485 -0.0295  0.3770 -0.3026
  397TIP3    H222607   0.558   4.509   3.375 -1.0555 -0.2282 -1.2393
  398TIP3   OH222608   1.075   5.041  14.176 -0.2323  0.0702  0.5770
  398TIP3    H122609   1.112   5.128  14.163  0.2684 -0.3750 -1.4129
  398TIP3    H222610   1.151   4.983  14.185 -0.5604 -0.1643  2.2183
  399TIP3   OH222611   0.149   3.982  13.102 -0.7483  0.0631  0.2247
  399TIP3    H122612   0.111   3.911  13.153 -2.3708  0.2989 -0.5493
  399TIP3    H222613   0.217   4.019  13.157 -0.9255 -1.1083  1.2665
  400TIP3   OH222614   2.254   1.558   4.310  0.0609  0.6918 -0.2739
  400TIP3    H122615   2.334   1.561   4.257  2.4071 -0.6600  2.8552
  400TIP3    H222616   2.241   1.648   4.338  1.1646  0.7641  0.0502
  401TIP3   OH222617   4.903   4.692  14.432 -0.6216  0.0544  0.3230
  401TIP3    H122618   4.979   4.689  14.490  0.6999  0.0111 -1.3002
  401TIP3    H222619   4.897   4.784  14.406  0.0334 -0.2182 -0.9170
  402TIP3   OH222620   5.782   1.215   5.071  0.5941  0.1875 -0.0737
  402TIP3    H122621   5.740   1.300   5.076 -0.0515 -0.0515 -1.2443
  402TIP3    H222622   5.723   1.156   5.117  0.3654  0.1197 -0.4544
  403TIP3   OH222623   0.950   0.565   0.200  0.2931 -0.4166 -0.2389
  403TIP3    H122624   0.894   0.640   0.222  0.6462  0.0913 -1.0185
  403TIP3    H222625   0.990   0.589   0.117  0.8579 -1.2346 -0.2126
  404TIP3   OH222626   5.628   5.463   1.740  0.0805  0.1697 -0.0351
  404TIP3    H122627   5.633   5.385   1.684  0.4349  0.4740 -0.4339
  404TIP3    H222628   5.626   5.536   1.678 -0.7270  0.4640  0.3161
  405TIP3   OH222629   5.919   0.112  15.358  0.4073  0.0996  0.4253
  405TIP3    H122630   5.913   0.125  15.263 -0.3765  2.0424  0.6822
  405TIP3    H222631   5.985   0.175  15.387 -1.6829  1.9253  1.5026
  406TIP3   OH222632   5.995   6.486  17.328  0.7599  0.4329 -0.1544
  406TIP3    H122633   5.959   6.434  17.256  1.1489  0.3537 -0.2932
  406TIP3    H222634   6.068   6.534  17.289  2.2587 -1.1144  0.6181
  407TIP3   OH222635   6.354   2.600  17.108 -0.0110  0.8971 -0.2235
  407TIP3    H122636   6.316   2.615  17.194 -0.2561 -0.3379 -0.0922
  407TIP3    H222637   6.283   2.562  17.057  0.8676 -1.0081 -0.1158
  408TIP3   OH222638   5.838   3.374  11.313  0.1721 -0.5697  0.1413
  408TIP3    H122639   5.797   3.319  11.246  0.1472  0.8161 -1.0115
  408TIP3    H222640   5.779   3.449  11.322  1.1314  0.1802  0.3358
  409TIP3   OH222641   1.663   2.082  17.344 -0.2501  0.3402  0.2328
  409TIP3    H122642   1.658   2.046  17.256 -0.8556 -0.2591  0.5050
  409TIP3    H222643   1.745   2.131  17.345  0.4935 -0.8489 -0.2123
  410TIP3   OH222644   3.118   4.451  14.533 -0.1093  0.2137 -0.5434
  410TIP3    H122645   3.074   4.412  14.457 -0.2796 -1.5111  0.3872
  410TIP3    H222646   3.208   4.465  14.504  0.5520 -2.9260 -0.3259
  411TIP3   OH222647   1.665   1.716  14.460 -0.1234 -0.7915 -0.3841
  411TIP3    H122648   1.656   1.650  14.392 -0.5374 -1.9835  0.7806
  411TIP3    H222649   1.598   1.781  14.440 -0.0049 -0.9460 -1.3038
  412TIP3   OH222650   0.126   4.740   1.377 -0.2884 -0.0347 -0.1311
  412TIP3    H122651   0.141   4.834   1.385 -3.0024  0.4355  0.4440
  412TIP3    H222652   0.132   4.707   1.467  1.1427 -0.5494 -0.3841
  413TIP3   OH222653   4.648   0.363   4.963 -0.1832 -0.2601 -0.1658
  413TIP3    H122654   4.719   0.427   4.967  0.7572 -1.1396 -1.7527
  413TIP3    H222655   4.643   0.327   5.052  0.6224  0.5685  0.2373
  414TIP3   OH222656   1.989   2.534  12.041 -0.1541 -0.0855  0.2700
  414TIP3    H122657   1.962   2.610  12.093  0.0892  0.0614  0.1800
  414TIP3    H222658   1.963   2.459  12.095 -1.8948  0.0156 -0.3728
  415TIP3   OH222659   5.813   1.212   4.368 -0.4705  0.2185  0.4264
  415TIP3    H122660   5.872   1.243   4.436  1.2084 -0.1856 -0.7687
  415TIP3    H222661   5.811   1.283   4.304 -1.1048  0.1344  0.3486
  416TIP3   OH222662   2.943   4.058   2.808  0.0066  0.0467 -0.1948
  416TIP3    H122663   2.885   4.128   2.780 -1.7456 -0.5573  1.6984
  416TIP3    H222664   2.896   3.977   2.784 -0.1935 -0.4523  1.6811
  417TIP3   OH222665   4.380   1.034   3.973  0.3055  0.8253 -0.3950
  417TIP3    H122666   4.356   0.950   3.935  0.0499  0.9334 -0.4707
  417TIP3    H222667   4.429   1.078   3.904  0.2495  0.8283 -0.4331
  418TIP3   OH222668   1.747   4.594   0.265 -0.5029  0.7204  0.1454
  418TIP3    H122669   1.776   4.611   0.355  1.4130  0.3907 -0.3465
  418TIP3    H222670   1.666   4.545   0.275  0.0327  0.0641  1.7268
  419TIP3   OH222671   4.751   3.827  11.590 -1.0853 -0.1308  0.1240
  419TIP3    H122672   4.782   3.820  11.500 -1.4699 -2.1288  0.0920
  419TIP3    H222673   4.705   3.911  11.593  2.0430  1.7912 -0.4708
  420TIP3   OH222674   4.762   4.068  15.805  0.2145 -0.5921  0.2467
  420TIP3    H122675   4.733   4.084  15.895  0.3855  1.0792  0.0305
  420TIP3    H222676   4.707   4.124  15.751  0.9691 -0.6224 -0.5734
  421TIP3   OH222677   1.865   1.051  17.271 -0.1803 -0.3909 -0.0420
  421TIP3    H122678   1.770   1.039  17.273 -0.4076  1.0549 -0.7792
  421TIP3    H222679   1.897   1.003  17.348 -1.6824  0.5341  1.2262
  422TIP3   OH222680   3.282   4.596  14.331 -0.2869  0.0404  0.5070
  422TIP3    H122681   3.191   4.580  14.306 -0.3380 -0.4999  1.0280
  422TIP3    H222682   3.314   4.658  14.265 -0.9877  0.1310  0.2417
  423TIP3   OH222683   3.762   6.129   1.368  0.0403 -0.4987  0.3566
  423TIP3    H122684   3.854   6.140   1.391  0.1339 -2.9447  1.3951
  423TIP3    H222685   3.722   6.091   1.446 -1.8952  0.5789 -0.0497
  424TIP3   OH222686   6.647   2.961   1.200 -0.4527 -0.0637 -0.4828
  424TIP3    H122687   6.619   2.906   1.127  0.4564  0.0460 -0.9217
  424TIP3    H222688   6.732   2.926   1.225  0.1405  1.1326 -0.7642
  425TIP3   OH222689   1.767   6.030  12.867  0.2340 -0.0380  0.0831
  425TIP3    H122690   1.779   6.055  12.959  2.3141 -0.1345 -0.1063
  425TIP3    H222691   1.828   5.958  12.854 -1.5507 -1.4488 -0.8659
  426TIP3   OH222692   3.117   1.630  13.674 -0.1538 -0.0752  0.0786
  426TIP3    H122693   3.144   1.606  13.763  1.5672  0.6986 -0.1959
  426TIP3    H222694   3.025   1.656  13.683 -0.1127 -0.3387  1.5600
  427TIP3   OH222695   2.154   1.016  15.009 -0.1346  0.0820 -0.2269
  427TIP3    H122696   2.245   1.045  15.012 -0.2954  1.1618 -2.7738
  427TIP3    H222697   2.102   1.096  15.019 -0.8034 -0.4467  0.6637
  428TIP3   OH222698   3.048   2.169   0.369 -0.6200  0.5076  0.0181
  428TIP3    H122699   3.004   2.231   0.312 -0.3456  0.3378 -0.3843
  428TIP3    H222700   2.999   2.087   0.359 -2.7050  1.2994  2.6337
  429TIP3   OH222701   2.223   1.665  13.649  0.1650  0.0715  0.4015
  429TIP3    H122702   2.300   1.619  13.615 -0.5191 -0.8052 -0.0254
  429TIP3    H222703   2.254   1.752  13.672  1.2681 -0.2563  0.1879
  430TIP3   OH222704   4.437   3.484   1.570 -0.5783 -0.0754  0.4880
  430TIP3    H122705   4.485   3.445   1.496  0.0241  2.1647 -0.3899
  430TIP3    H222706   4.432   3.577   1.549 -1.2731  0.4886  2.8184
  431TIP3   OH222707   2.363   1.601   3.216 -0.3393 -0.4482 -0.4824
  431TIP3    H122708   2.458   1.596   3.210 -0.3077  0.1752 -0.6159
  431TIP3    H222709   2.343   1.695   3.207 -0.9637 -0.5704 -0.4547
  432TIP3   OH222710   3.979   1.461   4.614  0.0047  0.3495  0.1199
  432TIP3    H122711   3.916   1.528   4.587  0.3912  0.9868  0.7405
  432TIP3    H222712   4.030   1.503   4.683 -0.5230 -0.9924  1.3763
  433TIP3   OH222713   6.192   3.627  16.519  0.2352 -0.1084  0.6951
  433TIP3    H122714   6.185   3.540  16.481  1.1681  0.0893  0.0476
  433TIP3    H222715   6.254   3.617  16.591  0.8763  0.1380  0.1946
  434TIP3   OH222716   1.800   1.545  13.013 -0.1513 -0.2128 -0.2311
  434TIP3    H122717   1.804   1.571  12.921  1.2233  2.3302  0.4769
  434TIP3    H222718   1.848   1.462  13.015  2.3205  1.0521 -1.4431
  435TIP3   OH222719   4.345   0.788   3.792  0.5962  0.2247  0.0385
  435TIP3    H122720   4.252   0.766   3.792  0.1914  1.8391 -0.0092
  435TIP3    H222721   4.355   0.852   3.722  1.9944 -0.8571 -0.7971
  436TIP3   OH222722   6.519   4.397   0.836  0.3449  0.5098  0.0015
  436TIP3    H122723   6.496   4.319   0.886  1.6641 -0.4273 -0.7996
  436TIP3    H222724   6.572   4.449   0.897 -1.2708  1.2597  0.8398
  437TIP3   OH222725   6.555   1.660  16.339  0.1706  0.5549 -0.2856
  437TIP3    H122726   6.478   1.664  16.282 -0.4178  0.6860  0.5082
  437TIP3    H222727   6.519   1.647  16.427  1.0926 -0.1952 -0.0059
  438TIP3   OH222728   3.034   6.412  13.939 -0.6354 -0.1679 -0.3667
  438TIP3    H122729   3.064   6.501  13.962 -0.3012  0.6593 -3.5263
  438TIP3    H222730   3.115   6.365  13.918 -0.9592 -0.5170 -0.8321
  439TIP3   OH222731   5.125   2.809   2.554  0.2214 -0.2128  0.3862
  439TIP3    H122732   5.194   2.865   2.519 -0.5902  0.4515 -0.1904
  439TIP3    H222733   5.050   2.825   2.498 -0.8869  0.2603  1.9434
  440TIP3   OH222734   3.665   2.578   2.844  0.0068 -0.4857  0.0096
  440TIP3    H122735   3.628   2.587   2.756 -1.2465 -0.4633  0.5196
  440TIP3    H222736   3.699   2.489   2.847 -0.0330 -0.5199 -0.4506
  441TIP3   OH222737   4.680   2.502  12.154  0.5913 -0.2028 -0.7955
  441TIP3    H122738   4.720   2.567  12.098 -1.5239 -0.1574 -2.3574
  441TIP3    H222739   4.586   2.523  12.154  0.2154 -1.5588  0.9470
  442TIP3   OH222740   6.208   4.300  14.278 -0.0584 -0.1251  0.1970
  442TIP3    H122741   6.143   4.350  14.229 -0.6211 -1.0501 -0.0440
  442TIP3    H222742   6.208   4.338  14.365 -0.5178  0.2587  0.0342
  443TIP3   OH222743   3.783   5.822   4.407  0.6070 -0.2991  0.4859
  443TIP3    H122744   3.863   5.803   4.358 -0.4782 -2.0019 -0.7477
  443TIP3    H222745   3.784   5.761   4.480 -0.9950 -2.6393 -1.2958
  444TIP3   OH222746   2.005   5.857  10.715  0.4066 -0.1121 -0.3139
  444TIP3    H122747   2.020   5.916  10.641  0.2149 -0.5474 -0.7075
  444TIP3    H222748   1.934   5.898  10.764  1.8040  1.1644  0.7133
  445TIP3   OH222749   2.996   2.376   1.292 -0.0565  0.0941  0.2457
  445TIP3    H122750   2.986   2.316   1.218  1.6369  0.8399 -0.6295
  445TIP3    H222751   2.997   2.319   1.369  4.1174 -1.4436 -0.6889
  446TIP3   OH222752   1.091   2.662   4.073  0.3831  0.3120 -0.0920
  446TIP3    H122753   1.182   2.633   4.065  0.8868  1.8968 -0.4896
  446TIP3    H222754   1.089   2.747   4.030 -1.1033  0.6861  0.6397
  447TIP3   OH222755   3.469   1.874  11.964 -0.5196 -0.3243 -0.0424
  447TIP3    H122756   3.417   1.907  12.037 -0.7403  2.3825 -1.2666
  447TIP3    H222757   3.414   1.888  11.887  1.8085  2.6486 -1.3902
  448TIP3   OH222758   2.682   3.766  15.428  0.0158 -0.2258  0.3810
  448TIP3    H122759   2.717   3.822  15.497  0.4336 -1.3095  1.0739
  448TIP3    H222760   2.699   3.815  15.347 -0.0960  0.8705  0.9917
  449TIP3   OH222761   0.273   3.446   4.874 -0.1524  0.5731  0.3478
  449TIP3    H122762   0.353   3.497   4.858  0.0363  0.0417 -0.4431
  449TIP3    H222763   0.278   3.422   4.967  0.9540 -0.0364  0.1464
  450TIP3   OH222764   2.454   6.222   1.120 -0.2696 -0.0653 -0.0682
  450TIP3    H122765   2.504   6.301   1.140  0.0813 -0.5072  0.8332
  450TIP3    H222766   2.520   6.158   1.095 -0.6063  0.1213 -1.5739
  451TIP3   OH222767   6.103   5.824   2.183  0.0032  0.8209 -0.0806
  451TIP3    H122768   6.090   5.733   2.155 -1.3339  1.1856 -0.7095
  451TIP3    H222769   6.026   5.844   2.235  0.1479  1.6866 -0.1861
  452TIP3   OH222770   6.643   6.691  16.043  0.3424 -0.2850  0.3639
  452TIP3    H122771   6.577   6.672  15.976 -1.5286 -1.2549  2.3730
  452TIP3    H222772   6.632   6.785  16.061  3.0987  0.8572 -2.8265
  453TIP3   OH222773   2.054   5.121   4.871 -0.3117  0.8767 -0.1901
  453TIP3    H122774   2.134   5.152   4.829  0.2877  0.3562  0.5291
  453TIP3    H222775   2.059   5.025   4.867 -0.1226  0.8003  1.2172
  454TIP3   OH222776   3.737   3.562  12.578  0.1312 -0.5263  0.3369
  454TIP3    H122777   3.822   3.533  12.546  0.5453 -0.6939  1.5401
  454TIP3    H222778   3.678   3.552  12.503  1.2712  0.1224 -0.6821
  455TIP3   OH222779   3.998   0.145   5.011  0.5830 -0.3452 -0.1457
  455TIP3    H122780   3.972   0.062   4.969  1.0101  0.2735 -1.7081
  455TIP3    H222781   4.079   0.169   4.966  0.7544  0.6525  0.6770
  456TIP3   OH222782   4.611   4.153   4.282 -0.3675 -0.4138  0.0118
  456TIP3    H122783   4.571   4.210   4.217 -3.3054 -1.0390  1.1205
  456TIP3    H222784   4.545   4.087   4.301  1.2009 -1.5434  2.0451
  457TIP3   OH222785   3.270   5.231   1.034 -0.0925 -0.0680  0.1520
  457TIP3    H122786   3.365   5.247   1.031 -0.1488  0.0192 -2.0348
  457TIP3    H222787   3.252   5.176   0.959 -1.8335  0.0623  0.4318
  458TIP3   OH222788   6.170   4.649  14.094  0.4373  0.0372  0.2533
  458TIP3    H122789   6.123   4.566  14.086  1.6629 -0.6286 -0.3704
  458TIP3    H222790   6.197   4.652  14.186 -0.1087  0.0422  0.4198
  459TIP3   OH222791   1.945   2.230   2.353 -0.0171 -0.0666  0.0650
  459TIP3    H122792   1.991   2.155   2.317 -0.4821 -0.7246  0.8250
  459TIP3    H222793   1.993   2.253   2.432  0.5288  0.8766 -0.5188
  460TIP3   OH222794   6.397   3.163   0.482  0.4624 -0.3989 -0.3554
  460TIP3    H122795   6.459   3.091   0.497  0.2572 -0.5428 -0.1929
  460TIP3    H222796   6.452   3.237   0.458  0.6322 -0.8235 -1.3441
  461TIP3   OH222797   4.413   0.401  16.754 -0.1092 -0.2469  0.1836
  461TIP3    H122798   4.343   0.465  16.742  0.0223 -0.3848 -1.7056
  461TIP3    H222799   4.368   0.322  16.785 -0.7039 -0.1175 -0.3157
  462TIP3   OH222800   2.902   3.234  11.311  0.2142  0.2343 -0.7633
  462TIP3    H122801   2.832   3.262  11.252  1.8684  1.0758 -2.4270
  462TIP3    H222802   2.857   3.215  11.394 -2.2082 -1.0369 -2.2521
  463TIP3   OH222803   4.733   6.122  12.465 -0.6085 -0.4273 -0.6305
  463TIP3    H122804   4.660   6.117  12.528 -1.6425  1.9299 -1.5217
  463TIP3    H222805   4.759   6.215  12.466  1.5271 -0.9615 -1.3319
  464TIP3   OH222806   5.558   0.056   4.654 -0.1011 -0.1892 -0.0354
  464TIP3    H122807   5.532   0.120   4.588  0.2929  0.7986  0.7458
  464TIP3    H222808   5.524   0.090   4.736  0.7515 -0.5978  0.5068
  465TIP3   OH222809   2.848   4.483   5.971 -0.4303  0.0559  0.2726
  465TIP3    H122810   2.882   4.560   6.017 -0.8710  0.2046  0.3474
  465TIP3    H222811   2.856   4.505   5.878  0.6855 -0.3384  0.2591
  466TIP3   OH222812   4.662   2.175  16.591 -0.8409 -0.1552  0.3997
  466TIP3    H122813   4.606   2.119  16.538  0.3825 -1.9591  0.9051
  466TIP3    H222814   4.725   2.115  16.631  0.2293  1.5361  1.3933
  467TIP3   OH222815   3.506   0.333   3.375  0.0847  0.4524 -0.0421
  467TIP3    H122816   3.519   0.254   3.427 -0.3696 -1.5766 -2.8042
  467TIP3    H222817   3.593   0.372   3.367  0.5218 -0.4211  0.3962
  468TIP3   OH222818   0.226   4.710   5.733  0.0664  0.1514  0.1559
  468TIP3    H122819   0.152   4.770   5.719  0.7298  0.8209 -0.6337
  468TIP3    H222820   0.303   4.763   5.713  0.6479 -1.1503 -1.2878
  469TIP3   OH222821   4.969   4.373   4.591 -0.6823  0.5436  0.9365
  469TIP3    H122822   4.969   4.467   4.604  2.0159  0.7815 -0.1122
  469TIP3    H222823   4.906   4.358   4.520 -0.0013  1.7793  0.0428
  470TIP3   OH222824   1.900   5.376   4.976  0.1341  0.3020 -0.4842
  470TIP3    H122825   1.975   5.320   4.992  0.4163  1.2331  1.8639
  470TIP3    H222826   1.921   5.423   4.895  2.5509  1.2146  0.5807
  471TIP3   OH222827   2.889   2.537   1.929  0.0449  0.3806 -0.2417
  471TIP3    H122828   2.970   2.506   1.970  0.5266  1.4198 -0.3585
  471TIP3    H222829   2.875   2.478   1.855 -0.6326 -1.2950  1.1750
  472TIP3   OH222830   2.353   2.768  15.511  0.1827  0.4168  0.1907
  472TIP3    H122831   2.445   2.756  15.490  0.5809 -0.0261  1.9773
  472TIP3    H222832   2.328   2.848  15.466  1.2598  0.1905 -0.8420
  473TIP3   OH222833   1.851   1.506   5.764  0.2093 -0.2530  0.4663
  473TIP3    H122834   1.849   1.557   5.683 -0.4600 -1.9834 -0.6671
  473TIP3    H222835   1.937   1.523   5.801  1.0173 -0.3548 -1.2667
  474TIP3   OH222836   3.529   6.025  15.401  0.3916  0.1930  0.0895
  474TIP3    H122837   3.512   6.094  15.465 -1.2192  0.2305 -0.3405
  474TIP3    H222838   3.456   5.964  15.411 -0.9060  1.0778 -2.8346
  475TIP3   OH222839   3.744   4.465  15.399  0.0997 -0.1082  0.6936
  475TIP3    H122840   3.777   4.400  15.461 -0.8895 -2.6469 -1.2420
  475TIP3    H222841   3.805   4.460  15.325  1.2617  2.8445  1.3060
  476TIP3   OH222842   0.636   2.795  13.805 -0.0438  0.2558 -0.2472
  476TIP3    H122843   0.544   2.812  13.826 -0.2553 -0.1467 -0.8631
  476TIP3    H222844   0.657   2.860  13.738 -0.3730 -0.7712 -1.3663
  477TIP3   OH222845   6.140   2.064  13.682  0.0816  0.1433  0.0231
  477TIP3    H122846   6.074   2.019  13.735  2.5138 -0.7337  2.5703
  477TIP3    H222847   6.223   2.044  13.725  1.7108  4.1969 -0.8077
  478TIP3   OH222848   1.719   6.034  12.441  0.1672  0.6590 -0.5108
  478TIP3    H122849   1.747   6.060  12.354  3.4256  0.5644  0.3850
  478TIP3    H222850   1.776   5.960  12.464  0.3157  1.4932  2.1849
  479TIP3   OH222851   3.275   2.713  12.064  0.5490  0.5599 -0.0141
  479TIP3    H122852   3.211   2.753  12.004 -0.9836 -0.9376  0.5306
  479TIP3    H222853   3.338   2.670  12.006  0.4607  1.1659 -0.5683
  480TIP3   OH222854   5.315   3.577   3.701 -0.5830 -0.1946  0.4284
  480TIP3    H122855   5.318   3.647   3.765  1.9036 -1.1106  1.4431
  480TIP3    H222856   5.223   3.571   3.676 -0.9008  3.5130  0.1048
  481TIP3   OH222857   6.059   2.977   1.118  0.1345 -0.1134 -0.0681
  481TIP3    H122858   6.110   2.899   1.137  0.4738  0.1845  0.2350
  481TIP3    H222859   6.087   3.003   1.030  1.2330  0.6177  0.4820
  482TIP3   OH222860   1.042   5.338  10.776 -0.3497  0.2067 -0.0920
  482TIP3    H122861   0.987   5.308  10.703  1.3642 -1.9399 -0.6173
  482TIP3    H222862   1.132   5.323  10.746  0.4705  1.2182  1.6912
  483TIP3   OH222863   2.128   2.620  11.639 -0.6971 -0.2075  0.2934
  483TIP3    H122864   2.044   2.612  11.684 -0.1554 -1.7994  1.0819
  483TIP3    H222865   2.106   2.613  11.546 -1.3113 -2.2656  0.5364
  484TIP3   OH222866   4.059   2.202  14.748  0.4428 -0.2458 -0.0653
  484TIP3    H122867   4.028   2.261  14.680  2.7304 -0.4268 -1.3798
  484TIP3    H222868   4.140   2.242  14.779 -0.1558 -0.5618  2.0729
  485TIP3   OH222869   4.920   4.360   1.491  0.5454 -0.1005 -0.3223
  485TIP3    H122870   4.960   4.420   1.554  0.5460  0.3312 -0.7295
  485TIP3    H222871   4.923   4.274   1.534  0.1696  0.2590  0.4314
  486TIP3   OH222872   4.049   5.520   2.098 -0.1272 -0.2710 -0.4101
  486TIP3    H122873   4.090   5.504   2.013 -2.7613  1.2186 -2.0867
  486TIP3    H222874   4.120   5.554   2.152  1.4813 -0.5672 -2.2037
  487TIP3   OH222875   0.978   4.881   5.864 -0.6388  0.0307  0.2501
  487TIP3    H122876   0.995   4.788   5.880 -1.5108 -0.1181  0.3590
  487TIP3    H222877   0.906   4.882   5.801 -0.5174  0.6388  0.1138
  488TIP3   OH222878   4.572   2.288   5.887  0.5809  0.0034 -0.0332
  488TIP3    H122879   4.641   2.278   5.953 -0.0131 -0.1155  0.5722
  488TIP3    H222880   4.496   2.319   5.935  0.6504  1.6998 -0.9397
  489TIP3   OH222881   1.908   3.395  11.154  0.4119  0.3006  0.3601
  489TIP3    H122882   1.990   3.346  11.162  0.7629  0.4555 -1.8276
  489TIP3    H222883   1.920   3.450  11.077 -1.1763  1.5075  0.9200
  490TIP3   OH222884   6.437   4.409   3.077  0.1441 -0.0007  1.0341
  490TIP3    H122885   6.373   4.338   3.086  0.5826 -0.2511  2.3122
  490TIP3    H222886   6.395   4.470   3.017 -1.5380  0.0919  2.2159
  491TIP3   OH222887   5.092   3.233   4.775 -0.3199  0.9851  0.1786
  491TIP3    H122888   5.145   3.185   4.839  0.9292  2.4127  0.2804
  491TIP3    H222889   5.023   3.273   4.828  0.3993  1.7238  0.5983
  492TIP3   OH222890   1.698   6.295   0.220 -0.0827  0.5000 -0.3345
  492TIP3    H122891   1.705   6.307   0.126  0.8341  3.9618  0.0450
  492TIP3    H222892   1.769   6.348   0.257  0.3010 -1.6161  2.3179
  493TIP3   OH222893   2.992   0.763   1.330  0.2694  0.3223 -0.1467
  493TIP3    H122894   3.073   0.742   1.375 -0.4248 -1.6192  0.3050
  493TIP3    H222895   2.964   0.680   1.291 -0.4718  1.3864 -2.0004
  494TIP3   OH222896   3.428   2.215  16.751 -0.1524 -0.1350 -0.7822
  494TIP3    H122897   3.473   2.300  16.748 -0.3409 -0.0563 -2.1809
  494TIP3    H222898   3.387   2.213  16.837 -0.0222  1.1365 -0.6610
  495TIP3   OH222899   1.037   4.749   3.469 -0.4708 -0.1473 -0.7156
  495TIP3    H122900   0.959   4.802   3.453 -1.4664 -1.5918 -0.7503
  495TIP3    H222901   1.028   4.674   3.411  1.3877  0.0649 -1.3570
  496TIP3   OH222902   4.643   2.026  15.605  0.4267  0.1948  0.0335
  496TIP3    H122903   4.665   2.090  15.537  0.5157 -0.1124 -0.2333
  496TIP3    H222904   4.727   1.996  15.638  0.4006 -0.1688 -0.2145
  497TIP3   OH222905   1.940   4.950   2.191  0.2320 -0.4298 -0.7312
  497TIP3    H122906   1.977   4.902   2.265 -0.5869 -0.4073 -0.3009
  497TIP3    H222907   1.999   4.931   2.118  1.4879  0.1573  0.0971
  498TIP3   OH222908   1.965   0.873   5.720  0.0193  0.1145 -0.0206
  498TIP3    H122909   1.916   0.947   5.754 -0.1733 -0.2691  0.5578
  498TIP3    H222910   2.056   0.903   5.719 -0.3633  1.5251 -2.9409
  499TIP3   OH222911   6.410   3.100   4.733  0.4013 -0.5051 -0.5539
  499TIP3    H122912   6.363   3.023   4.701 -0.4133 -1.2948  2.2621
  499TIP3    H222913   6.358   3.174   4.701 -1.7931 -1.3242  0.9029
  500TIP3   OH222914   3.832   6.425   3.773 -0.3846  0.0923  0.2763
  500TIP3    H122915   3.888   6.384   3.707 -0.8745 -1.1657  0.6046
  500TIP3    H222916   3.744   6.419   3.737 -0.6152 -0.3011  0.8845
  501TIP3   OH222917   0.142   2.903   1.318  0.0552  0.3709  0.4425
  501TIP3    H122918   0.236   2.915   1.302 -0.0462  1.5106  0.5959
  501TIP3    H222919   0.135   2.903   1.414  0.0264 -0.9368  0.4559
  502TIP3   OH222920   2.110   1.117  12.577  0.1436  0.0637  0.2996
  502TIP3    H122921   2.105   1.193  12.634  1.2673  0.5111 -0.1730
  502TIP3    H222922   2.142   1.046  12.633 -1.6204 -0.2870  0.9225
  503TIP3   OH222923   5.222   4.740   6.127  0.8416 -0.3618 -0.3996
  503TIP3    H122924   5.193   4.826   6.159  1.0920  0.1081 -1.3949
  503TIP3    H222925   5.303   4.723   6.175  2.4665  1.3890 -2.3162
  504TIP3   OH222926   6.095   1.703  16.799 -0.6544  0.6163 -0.4878
  504TIP3    H122927   6.136   1.623  16.831 -2.4365  0.8045  2.6818
  504TIP3    H222928   6.167   1.763  16.784  0.4911 -0.4342  0.5899
  505TIP3   OH222929   5.468   5.350   4.078  0.3513 -0.0244 -0.2800
  505TIP3    H122930   5.539   5.312   4.027  1.4860  0.5851  0.7789
  505TIP3    H222931   5.389   5.329   4.029  1.3821  0.6907 -2.3509
  506TIP3   OH222932   5.681   1.544   4.322 -0.4314  0.1318 -0.0539
  506TIP3    H122933   5.752   1.480   4.318 -0.4227  0.1538 -0.2595
  506TIP3    H222934   5.601   1.492   4.316 -0.4380  0.0962  0.2969
  507TIP3   OH222935   3.850   3.490   6.022  0.3151  0.3445 -0.2128
  507TIP3    H122936   3.852   3.543   6.102  0.3977  0.0794 -0.0395
  507TIP3    H222937   3.811   3.407   6.049  3.8924 -1.2954  0.5073
  508TIP3   OH222938   2.204   5.829   4.016 -0.4672  0.3655 -0.2656
  508TIP3    H122939   2.293   5.848   3.988 -0.0840 -1.3915 -0.3969
  508TIP3    H222940   2.150   5.844   3.938  0.2308 -1.9244 -1.2787
  509TIP3   OH222941   0.019   4.618   3.235 -0.1190 -0.0344 -0.5282
  509TIP3    H122942  -0.016   4.540   3.279  0.1948  0.3078  0.3576
  509TIP3    H222943   0.113   4.615   3.252  0.0229  0.0532 -1.2839
  510TIP3   OH222944   0.414   1.543  17.227 -0.0519  0.0941 -0.1479
  510TIP3    H122945   0.439   1.481  17.295 -1.2154  1.6193  1.7818
  510TIP3    H222946   0.343   1.594  17.266  0.8629  2.6669 -1.6094
  511TIP3   OH222947   1.213   1.347   1.401  0.4436  0.3890  0.1353
  511TIP3    H122948   1.280   1.311   1.342 -0.2794  0.3281 -0.6647
  511TIP3    H222949   1.165   1.410   1.347  0.4003  1.0827  0.9501
  512TIP3   OH222950   6.272   1.519  14.500  0.0861 -0.2680 -0.2569
  512TIP3    H122951   6.320   1.562  14.571  0.8759  1.5458 -1.7904
  512TIP3    H222952   6.325   1.442  14.479  0.2875 -0.3608  0.5577
  513TIP3   OH222953   2.952   3.814  12.497  0.3060  0.3599 -0.6400
  513TIP3    H122954   2.974   3.840  12.586  1.0611 -0.9057 -0.4346
  513TIP3    H222955   3.012   3.866  12.442  0.4764  0.4611 -0.3615
  514TIP3   OH222956   2.176   0.950  16.126  0.2229 -0.5995  0.1725
  514TIP3    H122957   2.237   0.880  16.105  0.6241  0.1334 -1.2321
  514TIP3    H222958   2.212   1.028  16.084  0.0405  0.5982  2.0757
  515TIP3   OH222959   1.695   3.067  14.495 -0.6220 -0.6514  0.2296
  515TIP3    H122960   1.636   3.054  14.569  0.7764 -1.2165  1.3012
  515TIP3    H222961   1.694   2.984  14.448 -1.6732 -0.2228 -0.5321
  516TIP3   OH222962   3.361   5.056   6.115 -0.7456  0.4581  0.3235
  516TIP3    H122963   3.279   5.034   6.160 -0.8858 -0.0254 -0.1498
  516TIP3    H222964   3.420   5.085   6.185 -1.5155  1.4334  0.5926
  517TIP3   OH222965   0.443   5.351  17.016  0.0030 -0.4756  0.5237
  517TIP3    H122966   0.436   5.444  16.995 -0.8548 -0.7573 -0.5168
  517TIP3    H222967   0.441   5.348  17.112  1.5745  0.6729  0.6244
  518TIP3   OH222968   5.300   4.127  15.875 -0.0722 -0.0084  0.4008
  518TIP3    H122969   5.392   4.138  15.899  0.1021 -0.2883 -0.1330
  518TIP3    H222970   5.262   4.076  15.947  0.4438 -0.8173  0.1111
  519TIP3   OH222971   5.247   2.627   6.303  0.2306  0.4747 -0.1759
  519TIP3    H122972   5.297   2.561   6.352  1.5428  2.2902  1.0887
  519TIP3    H222973   5.172   2.646   6.359 -1.5569 -1.5883 -1.6613
  520TIP3   OH222974   5.188   6.627   0.533 -0.1636  0.5953 -0.1517
  520TIP3    H122975   5.248   6.617   0.607  0.5112 -0.7610 -0.8425
  520TIP3    H222976   5.244   6.658   0.461 -0.3454 -0.2870 -0.6888
  521TIP3   OH222977   3.547   1.683  16.291 -0.0418  0.2722  0.8613
  521TIP3    H122978   3.465   1.727  16.314 -0.6224  1.2619 -2.5875
  521TIP3    H222979   3.614   1.750  16.302 -0.6711  1.6397 -2.4585
  522TIP3   OH222980   1.233   0.051   6.082  0.6868  0.0900  0.9031
  522TIP3    H122981   1.282  -0.020   6.041 -0.3242  0.2393 -0.6709
  522TIP3    H222982   1.144   0.041   6.048  0.5713  2.2291  0.4306
  523TIP3   OH222983   5.597   5.611   3.895  0.1164 -0.0207  0.5407
  523TIP3    H122984   5.560   5.524   3.884 -1.1824  0.6296 -0.4787
  523TIP3    H222985   5.523   5.666   3.919  0.5719  1.1415 -0.5929
  524TIP3   OH222986   0.373   1.998  13.654 -0.1008 -0.3184 -0.0800
  524TIP3    H122987   0.383   2.078  13.704 -0.3910 -0.0003 -0.5174
  524TIP3    H222988   0.462   1.974  13.627 -0.0006 -0.2163  0.1632
  525TIP3   OH222989   0.158   0.597  11.777  0.2212  0.2951 -0.2942
  525TIP3    H122990   0.151   0.544  11.698 -1.3712 -0.8679  0.5807
  525TIP3    H222991   0.247   0.580  11.810 -1.0416 -4.2696  1.5115
  526TIP3   OH222992   2.749   5.659  13.896  0.2424  0.1136 -0.1857
  526TIP3    H122993   2.811   5.586  13.900  0.8885  0.5937 -0.9247
  526TIP3    H222994   2.769   5.712  13.973 -0.5236 -0.6940  0.5930
  527TIP3   OH222995   5.514   4.776   6.020  0.0560 -0.1793 -0.1954
  527TIP3    H122996   5.469   4.844   6.070 -1.5793 -1.0731 -0.3983
  527TIP3    H222997   5.528   4.705   6.084  0.4949 -0.2130 -0.3255
  528TIP3   OH222998   5.915   5.705   1.606  0.6625 -0.1220  0.1071
  528TIP3    H122999   6.007   5.705   1.579  0.4808 -3.9542 -1.0168
  528TIP3    H223000   5.916   5.748   1.692  3.1490  1.5288 -0.6104
  529TIP3   OH223001   3.544   4.694  13.814  0.2957  0.2387 -0.2883
  529TIP3    H123002   3.464   4.747  13.807  0.1810  0.0548 -0.3714
  529TIP3    H223003   3.615   4.758  13.809  0.1734  0.3195 -1.0278
  530TIP3   OH223004   1.005   1.836   5.400 -0.3839  0.4654  0.1728
  530TIP3    H123005   1.039   1.924   5.415 -1.3287  0.6384  1.4247
  530TIP3    H223006   1.008   1.825   5.305 -1.9514  2.5458 -0.1725
  531TIP3   OH223007   4.989   4.609   5.115 -0.0965  0.9253 -0.0034
  531TIP3    H123008   4.968   4.611   5.209  0.6071  0.1987  0.1792
  531TIP3    H223009   5.028   4.695   5.097  0.3680  0.8301  0.5191
  532TIP3   OH223010   2.560   6.734   5.563 -0.0100 -0.4611  0.4090
  532TIP3    H123011   2.613   6.791   5.509  0.0074 -0.0991  0.8065
  532TIP3    H223012   2.474   6.735   5.521  0.3708 -1.3146 -0.4278
  533TIP3   OH223013   2.231   4.163   0.336  0.1935 -0.2904 -0.1937
  533TIP3    H123014   2.138   4.146   0.353  0.5925 -1.1275  1.3999
  533TIP3    H223015   2.276   4.084   0.366  1.4408  0.1557 -0.8117
  534TIP3   OH223016   1.158   0.226  11.125 -0.5267  0.4959 -0.6663
  534TIP3    H123017   1.191   0.300  11.075 -1.8293  1.8945  0.4283
  534TIP3    H223018   1.182   0.245  11.216  1.5214 -1.8329 -0.6153
  535TIP3   OH223019   0.673   1.764  16.731 -0.1856  0.6426  0.3804
  535TIP3    H123020   0.762   1.801  16.735  0.5809 -0.8497 -1.3024
  535TIP3    H223021   0.619   1.836  16.699  0.0959  1.9999  2.7360
  536TIP3   OH223022   2.736   6.337   3.057 -0.0353  0.0687  0.2843
  536TIP3    H123023   2.809   6.301   3.006 -0.6882  1.5029 -1.8197
  536TIP3    H223024   2.706   6.412   3.006 -2.0781  0.3812  1.8093
  537TIP3   OH223025   2.783   1.086  15.447 -0.1915 -0.3509  0.6627
  537TIP3    H123026   2.722   1.119  15.381  0.5742 -0.1084  0.0600
  537TIP3    H223027   2.729   1.071  15.524 -1.0768 -0.4616  0.0408
  538TIP3   OH223028   2.609   3.796  17.131  0.6229  0.0343  0.4031
  538TIP3    H123029   2.563   3.798  17.047  1.1339 -1.7360  0.0554
  538TIP3    H223030   2.543   3.822  17.195 -0.2202 -0.1849 -0.3619
  539TIP3   OH223031   2.320   4.050  15.734 -0.0109 -0.0399 -0.2842
  539TIP3    H123032   2.318   4.091  15.820 -2.6258 -0.1926 -0.1903
  539TIP3    H223033   2.361   3.965  15.748 -0.5351 -0.1166  0.8391
  540TIP3   OH223034   4.734   6.060  10.772 -0.6465 -0.5590  0.0140
  540TIP3    H123035   4.646   6.024  10.769 -1.8175  1.9389  1.2114
  540TIP3    H223036   4.728   6.132  10.835  1.6873  1.1469 -1.5386
  541TIP3   OH223037   6.427   0.075   2.916 -0.0825  0.0010 -0.2055
  541TIP3    H123038   6.354   0.095   2.856 -0.2879 -0.0718  0.0172
  541TIP3    H223039   6.401  -0.007   2.958 -0.3868  0.5340  0.6712
  542TIP3   OH223040   0.585   1.650   3.076  0.2279  0.6969  0.4680
  542TIP3    H123041   0.546   1.726   3.119 -0.6288  0.8642 -0.5573
  542TIP3    H223042   0.534   1.639   2.996 -0.3917 -1.6127  1.0838
  543TIP3   OH223043   2.950   2.345  12.303  0.3781 -0.4345 -0.1734
  543TIP3    H123044   2.962   2.317  12.212 -1.1368 -0.1754 -0.4671
  543TIP3    H223045   3.030   2.315  12.347  1.2556 -0.3408 -1.6257
  544TIP3   OH223046   5.455   4.954  14.479  0.1848 -0.3487 -0.8325
  544TIP3    H123047   5.532   5.000  14.445  1.6652 -1.8751  0.2557
  544TIP3    H223048   5.438   4.997  14.563  0.4374 -0.5920 -0.6534
  545TIP3   OH223049   5.143   0.534   3.977  0.0835  0.4400  0.3532
  545TIP3    H123050   5.219   0.499   4.024 -0.8086 -0.3339  1.2667
  545TIP3    H223051   5.088   0.458   3.961 -0.7494  1.0643  0.1806
  546TIP3   OH223052   5.387   5.317   6.219 -0.1434  0.5608 -0.1236
  546TIP3    H123053   5.385   5.368   6.138  1.4656  2.5862  1.0152
  546TIP3    H223054   5.472   5.274   6.218 -0.8224 -0.8311 -0.2850
  547TIP3   OH223055   5.969   2.639  11.231 -0.0745 -0.0400 -0.0913
  547TIP3    H123056   5.967   2.678  11.319 -0.5447  2.0856 -0.9850
  547TIP3    H223057   5.902   2.570  11.235  0.7774 -0.8562  1.5419
  548TIP3   OH223058   4.812   0.006  12.204  0.1219  0.0548 -0.2056
  548TIP3    H123059   4.874  -0.064  12.185 -0.5088 -0.9039  1.0834
  548TIP3    H223060   4.863   0.072  12.250  0.1414 -0.9660  1.3299
  549TIP3   OH223061   1.766   2.251   0.510  0.2565  0.1768 -0.2730
  549TIP3    H123062   1.797   2.208   0.590  0.1439  0.0596 -0.2927
  549TIP3    H223063   1.675   2.271   0.527 -0.1521 -1.0409 -0.8620
  550TIP3   OH223064   5.511   5.156   3.205  0.5044 -0.1819 -0.5864
  550TIP3    H123065   5.507   5.190   3.295  1.7201 -0.6033 -0.3521
  550TIP3    H223066   5.520   5.062   3.215  0.7623 -0.2209 -1.1415
  551TIP3   OH223067   2.758   3.111   2.607 -0.2166  0.5580 -0.3928
  551TIP3    H123068   2.751   3.051   2.533  0.1545  2.1849 -1.8124
  551TIP3    H223069   2.773   3.196   2.567  1.2941  1.3071  1.6092
  552TIP3   OH223070   6.438   3.639   5.969  0.0799  0.3726 -0.4909
  552TIP3    H123071   6.363   3.678   6.014 -0.9098 -0.4678 -1.3482
  552TIP3    H223072   6.505   3.631   6.036 -0.5668  1.2372  0.2742
  553TIP3   OH223073   4.773   2.357   1.744  0.1628  0.5321  0.2522
  553TIP3    H123074   4.803   2.423   1.805  0.1298  1.2570 -0.5029
  553TIP3    H223075   4.677   2.364   1.746  0.1604  0.5269  0.1438
  554TIP3   OH223076   4.148   2.343   2.996 -0.3317 -0.4534  0.9835
  554TIP3    H123077   4.094   2.418   2.969  0.5484  0.0427  0.5469
  554TIP3    H223078   4.201   2.323   2.919  1.0889 -0.0426  1.8201
  555TIP3   OH223079   1.639   2.460   4.238  0.8453  0.5248  0.4639
  555TIP3    H123080   1.573   2.513   4.282  2.0299  2.1096  0.3971
  555TIP3    H223081   1.679   2.408   4.308 -0.0421 -0.0051  0.5924
  556TIP3   OH223082   2.310   3.194   5.128 -0.7036 -0.0132 -0.3368
  556TIP3    H123083   2.249   3.266   5.148 -2.0361 -1.0421 -0.5392
  556TIP3    H223084   2.382   3.236   5.082  0.2218  1.7244  2.4347
  557TIP3   OH223085   2.648   0.870  12.270  0.6233  0.1001  0.6500
  557TIP3    H123086   2.608   0.931  12.208  0.1675  0.0512  0.8882
  557TIP3    H223087   2.573   0.831  12.316  0.7463 -2.1206 -0.8538
  558TIP3   OH223088   1.748   0.158   0.792  0.1579  1.0698  0.0408
  558TIP3    H123089   1.674   0.150   0.732  1.6424 -0.9565 -1.6556
  558TIP3    H223090   1.713   0.134   0.877 -1.0114 -0.5568 -0.8493
  559TIP3   OH223091   4.323   1.191   5.299  0.4245 -0.6693  0.4822
  559TIP3    H123092   4.290   1.123   5.240 -3.3773  0.2961  1.2355
  559TIP3    H223093   4.389   1.236   5.247  0.2191 -2.4480 -1.4915
  560TIP3   OH223094   5.815   1.297  14.743  0.2615  0.1421  0.2806
  560TIP3    H123095   5.877   1.294  14.816  0.0667 -0.0667  0.4413
  560TIP3    H223096   5.777   1.385  14.747 -1.0254 -0.4092  1.5232
  561TIP3   OH223097   3.902   2.275   1.524  0.5279 -0.5586 -0.2698
  561TIP3    H123098   3.842   2.258   1.597  0.2387 -0.7018 -0.5398
  561TIP3    H223099   3.989   2.254   1.559  0.5581  0.7409  0.4847
  562TIP3   OH223100   1.529   1.839  16.043 -0.1115  0.5802 -0.3948
  562TIP3    H123101   1.500   1.930  16.036  0.8922  0.8385 -1.6171
  562TIP3    H223102   1.448   1.788  16.050 -0.6500  1.6239  1.3486
  563TIP3   OH223103   0.457   0.168  11.074 -0.2306 -0.2623  0.9306
  563TIP3    H123104   0.521   0.104  11.042 -0.7802  0.5651 -2.0890
  563TIP3    H223105   0.401   0.186  10.999 -0.4735  3.3198  1.7744
  564TIP3   OH223106   4.243   2.617  16.049 -0.0540 -0.9060  0.0514
  564TIP3    H123107   4.254   2.610  16.144 -0.4194 -2.1111  0.0316
  564TIP3    H223108   4.277   2.703  16.026  2.9644 -1.7573  0.8535
  565TIP3   OH223109   4.857   6.326  11.814 -0.2040  0.2017 -0.1761
  565TIP3    H123110   4.921   6.317  11.743  1.6472 -1.7219  1.5697
  565TIP3    H223111   4.795   6.255  11.800  0.4198 -0.4596  0.3253
  566TIP3   OH223112   6.564   1.400  17.375  0.0216 -0.0051 -0.1051
  566TIP3    H123113   6.481   1.432  17.412 -0.2863 -1.2387  0.3084
  566TIP3    H223114   6.549   1.307  17.359  1.3380 -0.2508 -0.0196
  567TIP3   OH223115   6.405   4.164   5.797 -0.5495 -0.2221 -0.1589
  567TIP3    H123116   6.494   4.134   5.776 -0.6468 -0.2053 -0.6221
  567TIP3    H223117   6.370   4.192   5.712  0.1391  2.8436  0.4444
  568TIP3   OH223118   2.630   0.259   2.823  0.0554 -0.3070 -0.4183
  568TIP3    H123119   2.717   0.239   2.857 -0.8344 -3.2999  0.4556
  568TIP3    H223120   2.625   0.208   2.742  0.2081  2.4628 -2.2918
  569TIP3   OH223121   1.683   6.160  14.642 -0.3055  0.2012 -0.3629
  569TIP3    H123122   1.637   6.078  14.622  0.7780 -0.2799 -1.0214
  569TIP3    H223123   1.624   6.228  14.611 -0.0598 -0.4408 -2.4363
  570TIP3   OH223124   1.000   5.083  15.829 -0.5100 -0.5598  0.2297
  570TIP3    H123125   1.081   5.084  15.881 -0.7474  0.7343  0.6259
  570TIP3    H223126   0.974   5.175  15.825 -1.5419 -0.8741 -0.5673
  571TIP3   OH223127   2.841   0.012  15.907  0.3058  0.0330 -0.1733
  571TIP3    H123128   2.767  -0.029  15.951 -0.1760  0.0817 -0.9358
  571TIP3    H223129   2.803   0.082  15.855  1.2563  2.9204  2.6642
  572TIP3   OH223130   1.894   6.408   3.340 -0.2852  0.4737  0.4519
  572TIP3    H123131   1.867   6.325   3.300  0.3599  1.5524 -2.4949
  572TIP3    H223132   1.835   6.419   3.414 -0.5244 -2.4796  0.8425
  573TIP3   OH223133   4.071   1.405  12.662  0.1301  0.3641  0.5576
  573TIP3    H123134   4.086   1.339  12.729  0.7040 -0.4240 -0.3178
  573TIP3    H223135   4.104   1.486  12.700  0.6226 -0.1111  1.1592
  574TIP3   OH223136   5.810   4.492  14.658 -0.3411 -0.0167 -0.3977
  574TIP3    H123137   5.718   4.490  14.632 -0.0141 -2.7088 -1.6926
  574TIP3    H223138   5.819   4.422  14.723  0.4844  1.3578  1.0332
  575TIP3   OH223139   4.920   2.994   2.799  0.0176  0.6177  0.1884
  575TIP3    H123140   5.013   3.013   2.806  0.2124 -0.2549  0.0199
  575TIP3    H223141   4.879   3.080   2.789  1.0907  0.8961 -3.0655
  576TIP3   OH223142   2.403   3.845  17.324 -0.3953  0.1938  0.0212
  576TIP3    H123143   2.371   3.935  17.326  0.9697  0.7093  2.0471
  576TIP3    H223144   2.352   3.799  17.391  1.4738  0.5264  1.8158
  577TIP3   OH223145   3.282   3.645  10.873 -0.4899  0.8081 -0.0266
  577TIP3    H123146   3.273   3.551  10.892 -1.9390  1.0735  0.7554
  577TIP3    H223147   3.192   3.678  10.876  0.0738  2.3545  0.4163
  578TIP3   OH223148   1.895   1.267  16.872  0.5201 -0.2058  0.4120
  578TIP3    H123149   1.869   1.242  16.961 -0.9244  1.3350  0.4845
  578TIP3    H223150   1.897   1.185  16.823  0.2375 -0.9464  1.6195
  579TIP3   OH223151   4.071   5.358   0.344 -0.1681  0.1202 -0.1771
  579TIP3    H123152   4.049   5.372   0.436  0.7554 -0.3249  0.1315
  579TIP3    H223153   4.140   5.292   0.347 -0.4517 -0.2286 -1.2254
  580TIP3   OH223154   2.520   2.645  15.101 -0.4733 -0.0705  0.2531
  580TIP3    H123155   2.547   2.598  15.022 -1.1588 -1.2095  0.6786
  580TIP3    H223156   2.425   2.648  15.096 -0.6199 -1.3565  1.6863
  581TIP3   OH223157   1.450   4.031  14.796  0.0631  0.0325  0.0350
  581TIP3    H123158   1.546   4.030  14.792  0.1152  1.5056  0.2327
  581TIP3    H223159   1.427   3.954  14.849  1.3685  1.6654  3.2436
  582TIP3   OH223160   6.364   1.383  11.697 -0.3613 -0.7758 -0.2818
  582TIP3    H123161   6.332   1.429  11.619  2.8691  0.6568 -0.9207
  582TIP3    H223162   6.422   1.315  11.663  0.6226 -0.5128  0.8104
  583TIP3   OH223163   1.041   5.658  17.367 -0.6929  0.2124 -0.1447
  583TIP3    H123164   1.052   5.701  17.451 -0.1306  0.7839 -0.5019
  583TIP3    H223165   0.954   5.619  17.371 -1.0541  1.0433  0.3496
  584TIP3   OH223166   0.185   3.665  12.118  0.3192 -0.1952  0.4110
  584TIP3    H123167   0.237   3.643  12.195  0.7420  0.3177  0.2836
  584TIP3    H223168   0.157   3.581  12.083 -2.2861 -0.4066  2.6905
  585TIP3   OH223169   3.514   3.113  14.177 -0.1722 -0.0862 -0.5588
  585TIP3    H123170   3.436   3.062  14.158  1.1909 -2.1010 -1.1230
  585TIP3    H223171   3.534   3.094  14.268  0.9255 -1.5050 -1.0543
  586TIP3   OH223172   3.383   4.334   4.875 -0.4912 -0.2497 -0.6714
  586TIP3    H123173   3.469   4.323   4.835 -1.0485 -0.6532 -1.7863
  586TIP3    H223174   3.393   4.298   4.963  0.0518 -1.8347 -1.3467
  587TIP3   OH223175   0.749   6.675  17.227 -0.8619 -0.6564  0.2625
  587TIP3    H123176   0.817   6.610  17.208 -0.5065 -0.5002  0.9707
  587TIP3    H223177   0.686   6.629  17.282 -1.7479 -1.0230 -0.9860
  588TIP3   OH223178   3.403   4.042  12.186  0.1317 -0.0995  0.1274
  588TIP3    H123179   3.369   4.104  12.122 -1.5890 -0.1172  0.9611
  588TIP3    H223180   3.496   4.034  12.166 -0.1835  0.5936 -1.7592
  589TIP3   OH223181   0.463   1.880   0.023 -0.1493 -0.4169  0.0292
  589TIP3    H123182   0.550   1.877  -0.016 -0.8361  1.7099 -1.8489
  589TIP3    H223183   0.470   1.822   0.100  2.8378 -0.4394 -0.1258
  590TIP3   OH223184   5.864   0.880   0.811  0.4915 -0.4239 -0.4161
  590TIP3    H123185   5.899   0.819   0.876  1.4150 -1.9511 -2.2454
  590TIP3    H223186   5.935   0.943   0.796 -0.5627  1.3834  1.6803
  591TIP3   OH223187   3.875   1.366  12.043 -0.5788 -0.0420  0.3625
  591TIP3    H123188   3.900   1.459  12.044 -1.9744  0.3901 -0.8418
  591TIP3    H223189   3.874   1.340  12.135 -2.4713  1.8227  0.9421
  592TIP3   OH223190   0.722   5.612   3.469  0.3490 -0.3830  0.7647
  592TIP3    H123191   0.721   5.707   3.461  1.9889 -0.1865  2.2023
  592TIP3    H223192   0.658   5.592   3.536 -0.5460 -0.3880 -0.0712
  593TIP3   OH223193   5.808   1.725   4.942 -0.0595 -0.2564 -0.0294
  593TIP3    H123194   5.859   1.793   4.984 -0.6820  0.8471 -0.9886
  593TIP3    H223195   5.746   1.772   4.886  1.1554 -1.6123 -2.7051
  594TIP3   OH223196   6.116   5.104   2.909  0.2210  0.4774  0.1504
  594TIP3    H123197   6.150   5.193   2.918 -2.8231  1.7759  0.0888
  594TIP3    H223198   6.024   5.111   2.936 -0.2127 -2.5856 -0.2130
  595TIP3   OH223199   0.434   3.516   1.287 -0.1814  0.2576  0.0027
  595TIP3    H123200   0.432   3.536   1.193 -0.3452 -0.7651 -0.2199
  595TIP3    H223201   0.416   3.600   1.329  0.2616  0.8041 -0.8677
  596TIP3   OH223202   0.780   2.390  16.143 -0.1713  0.2409  0.0968
  596TIP3    H123203   0.832   2.407  16.222  1.3886 -0.9001 -0.6158
  596TIP3    H223204   0.767   2.295  16.144 -1.9678  0.4622  0.0422
  597TIP3   OH223205   2.937   6.603   3.547  0.0183 -0.6542 -0.5115
  597TIP3    H123206   3.020   6.636   3.580  0.0702 -0.2308 -1.0621
  597TIP3    H223207   2.958   6.516   3.511 -0.0218 -1.0799  0.4654
  598TIP3   OH223208   1.226   5.825  15.491  0.4116  0.1205 -0.1404
  598TIP3    H123209   1.179   5.850  15.411  0.3523 -0.7800 -0.4052
  598TIP3    H223210   1.318   5.824  15.465  0.3696 -0.4627 -0.2949
  599TIP3   OH223211   4.102   4.996   6.269  0.1377  0.1591 -0.3885
  599TIP3    H123212   4.012   5.029   6.258 -0.2395 -0.9192 -0.6374
  599TIP3    H223213   4.114   4.991   6.364  0.0381  0.5669 -0.3518
  600TIP3   OH223214   1.825   5.483  16.806  0.4913 -0.6911  0.7951
  600TIP3    H123215   1.882   5.450  16.737 -0.1375  0.1719 -0.1668
  600TIP3    H223216   1.813   5.576  16.784 -1.4549 -0.8934  0.8280
  601TIP3   OH223217   6.480   2.390   5.097  0.3970  0.1246  0.0475
  601TIP3    H123218   6.527   2.379   5.180 -0.3342  0.2492  0.4827
  601TIP3    H223219   6.391   2.414   5.123  0.6038  1.9684 -0.7891
  602TIP3   OH223220   2.635   2.824  11.954 -0.3440  0.7245 -0.2359
  602TIP3    H123221   2.629   2.730  11.940 -2.2414  0.8318 -0.3460
  602TIP3    H223222   2.625   2.862  11.867  0.0075  1.0500 -0.1379
  603TIP3   OH223223   6.182   2.684  14.957 -0.1657  0.0400 -0.1769
  603TIP3    H123224   6.087   2.683  14.951 -0.2045  0.2138  0.3898
  603TIP3    H223225   6.212   2.687  14.866 -0.7259  3.3208 -0.3474
  604TIP3   OH223226   0.563   5.873  14.741 -0.3781  0.5521 -0.2669
  604TIP3    H123227   0.645   5.916  14.765  0.5943 -1.0927 -0.5267
  604TIP3    H223228   0.541   5.819  14.817 -0.6918  0.2342 -0.5786
  605TIP3   OH223229   1.726   3.155  11.767 -0.2899  0.0034 -0.5403
  605TIP3    H123230   1.755   3.100  11.840 -1.4907  0.2741  0.1832
  605TIP3    H223231   1.752   3.243  11.792 -0.9204  0.1305 -0.2940
  606TIP3   OH223232   1.669   2.200   5.735 -0.3447 -0.6384  0.5627
  606TIP3    H123233   1.652   2.280   5.784  0.4022 -0.7178  0.9568
  606TIP3    H223234   1.679   2.228   5.644  0.8399 -0.1692  0.8341
  607TIP3   OH223235   4.310   5.854   4.870  0.4949  0.0072  0.6021
  607TIP3    H123236   4.232   5.804   4.894  0.6620 -0.7953 -0.4741
  607TIP3    H223237   4.275   5.932   4.827  0.2715 -0.2626  0.2840
  608TIP3   OH223238   2.057   1.464   1.486  0.8804 -0.2374 -0.7194
  608TIP3    H123239   1.994   1.444   1.555 -0.3404  0.2430 -1.6566
  608TIP3    H223240   2.116   1.389   1.484  1.2670 -0.0396  1.1690
  609TIP3   OH223241   5.826   1.071   3.073  0.1603  0.5296 -0.1124
  609TIP3    H123242   5.794   1.161   3.080 -0.0918  0.5623 -1.4038
  609TIP3    H223243   5.771   1.030   3.006  0.3536 -0.5547  0.3586
  610TIP3   OH223244   3.378   4.120  13.376 -0.3061 -0.3273 -0.8717
  610TIP3    H123245   3.340   4.035  13.354 -1.3737 -0.3952  1.0414
  610TIP3    H223246   3.319   4.156  13.442  2.2164  0.1572  1.2619
  611TIP3   OH223247   2.352   1.007   1.709  0.1053 -0.1010 -0.2558
  611TIP3    H123248   2.367   0.916   1.685 -0.5558 -0.1065 -0.6574
  611TIP3    H223249   2.266   1.028   1.674 -0.0883  0.4465  0.5054
  612TIP3   OH223250   1.339   4.064   4.653  0.5021  0.4166  0.5017
  612TIP3    H123251   1.268   4.001   4.642  0.3640  0.7864 -0.8793
  612TIP3    H223252   1.365   4.087   4.564  1.6755  1.0525  0.9888
  613TIP3   OH223253   5.458   3.341   0.828 -0.3108 -0.2207 -0.4589
  613TIP3    H123254   5.401   3.275   0.868  1.0232 -0.3555  1.3131
  613TIP3    H223255   5.540   3.295   0.811  0.6747  0.9805  0.9047
  614TIP3   OH223256   5.290   4.138  17.009 -0.7061 -0.2087  0.1547
  614TIP3    H123257   5.348   4.109  17.079  1.2811  1.1957 -0.8130
  614TIP3    H223258   5.257   4.223  17.039  0.2214  0.4399 -0.6004
  615TIP3   OH223259   4.257   6.481   6.701 -0.1204  0.1973 -0.0240
  615TIP3    H123260   4.226   6.498   6.790  0.1019 -1.1258  0.3307
  615TIP3    H223261   4.219   6.396   6.678 -0.7538  0.8445 -1.4806
  616TIP3   OH223262   6.659   2.032  14.495  0.0824  0.5240  0.1495
  616TIP3    H123263   6.613   2.026  14.579  0.6934  1.8291  0.6048
  616TIP3    H223264   6.615   2.104  14.450  0.1309  0.1977 -0.4320
  617TIP3   OH223265   3.657   0.443   0.928  0.1807  0.2137  0.5402
  617TIP3    H123266   3.713   0.465   1.003  0.1587  0.0892  0.5936
  617TIP3    H223267   3.655   0.347   0.927  1.3260  0.1742 -0.4694
  618TIP3   OH223268   0.781   5.974   0.691 -0.2174 -0.0203  0.2355
  618TIP3    H123269   0.863   5.969   0.641  0.7860  1.0522  1.6683
  618TIP3    H223270   0.724   6.030   0.639 -0.8837 -2.3859 -1.7883
  619TIP3   OH223271   0.897   3.761   4.030 -0.2245 -0.1029  0.1158
  619TIP3    H123272   0.861   3.801   4.109 -1.4981 -0.2494 -0.3749
  619TIP3    H223273   0.959   3.827   3.998 -0.1100  0.2005  0.9251
  620TIP3   OH223274   0.100   2.723   5.790 -0.2596  0.2102 -0.0902
  620TIP3    H123275   0.194   2.722   5.772 -0.4137  1.6699 -1.1621
  620TIP3    H223276   0.094   2.755   5.880  0.2848 -0.5028  0.2097
  621TIP3   OH223277   1.932   2.707  13.541 -0.1456 -0.0216 -0.2723
  621TIP3    H123278   1.915   2.623  13.584 -2.0600  0.4462 -0.0156
  621TIP3    H223279   1.891   2.772  13.598 -0.0746  0.9246 -1.2634
  622TIP3   OH223280   3.235   1.301  10.974  0.2700  0.1672  0.4258
  622TIP3    H123281   3.254   1.252  10.894  0.2995  0.3516  0.3204
  622TIP3    H223282   3.143   1.325  10.966  0.2677  0.1675  0.4548
  623TIP3   OH223283   4.324   6.589  16.822 -0.3307 -0.1045 -0.3159
  623TIP3    H123284   4.303   6.626  16.908  0.0874  0.3507 -0.4085
  623TIP3    H223285   4.405   6.541  16.835 -0.7350 -0.7901 -0.2573
  624TIP3   OH223286   0.402   4.358  11.724 -0.3233 -0.8018  0.7399
  624TIP3    H123287   0.438   4.285  11.774  0.2253 -0.9578  0.1245
  624TIP3    H223288   0.435   4.436  11.769  1.5845 -0.9289 -0.3328
  625TIP3   OH223289   0.466   1.407   5.586 -0.3760  0.3444 -0.0512
  625TIP3    H123290   0.384   1.453   5.570 -1.3763 -1.4331 -0.2650
  625TIP3    H223291   0.524   1.435   5.515 -1.4693  0.1429 -1.0533
  626TIP3   OH223292   1.846   4.741   1.071  0.3968 -0.0388 -0.2002
  626TIP3    H123293   1.850   4.719   0.978 -1.1008  0.3956 -0.4061
  626TIP3    H223294   1.861   4.658   1.116 -1.1651 -0.7350 -0.8851
  627TIP3   OH223295   4.117   2.648  15.400  0.7166 -0.3661 -0.0454
  627TIP3    H123296   4.045   2.616  15.454  1.3294 -1.4215  0.1743
  627TIP3    H223297   4.075   2.682  15.321 -0.1913  1.1084  1.0114
  628TIP3   OH223298   3.265   3.744   3.662  0.6010 -0.1981 -0.0698
  628TIP3    H123299   3.353   3.711   3.680 -0.1146 -1.0996  2.1576
  628TIP3    H223300   3.209   3.699   3.725 -1.4977  0.3002 -1.4620
  629TIP3   OH223301   6.696   1.407  12.497  0.3388  0.0090 -0.1833
  629TIP3    H123302   6.678   1.417  12.404  0.7091  0.5473 -0.2029
  629TIP3    H223303   6.783   1.367  12.501  0.4248  0.2015 -0.0717
  630TIP3   OH223304   5.474   4.927  11.798 -0.7965 -0.3823 -0.6504
  630TIP3    H123305   5.415   4.939  11.872  0.3070 -0.0939  0.2136
  630TIP3    H223306   5.506   5.015  11.778  2.9809 -0.9147  2.0435
  631TIP3   OH223307   1.075   2.252   5.110 -0.2283 -0.2507 -0.5332
  631TIP3    H123308   1.065   2.335   5.156  0.8804  0.3860 -1.3863
  631TIP3    H223309   1.074   2.186   5.179 -1.6587  0.3963  0.1212
  632TIP3   OH223310   4.124   4.229   3.023  0.4886 -0.2586  0.1584
  632TIP3    H123311   4.097   4.283   2.949  1.1155 -1.1546 -0.7515
  632TIP3    H223312   4.051   4.234   3.084  0.4717  1.4722  0.0390
  633TIP3   OH223313   0.222   6.050   0.179  0.2557  0.5185  0.4427
  633TIP3    H123314   0.196   5.993   0.252  1.3258 -0.9914 -0.3154
  633TIP3    H223315   0.312   6.076   0.200  0.5341  0.1572 -0.2842
  634TIP3   OH223316   4.381   3.310   5.422 -0.2685  0.5488 -0.2705
  634TIP3    H123317   4.448   3.357   5.374 -1.7283  2.5083 -0.4934
  634TIP3    H223318   4.333   3.377   5.471 -1.4890 -0.8756  0.6244
  635TIP3   OH223319   2.279   5.671  10.309 -0.4372  0.3034  0.1729
  635TIP3    H123320   2.245   5.760  10.322 -0.1625  0.2874  1.0323
  635TIP3    H223321   2.223   5.634  10.240 -1.5205  0.6218  0.8548
  636TIP3   OH223322   0.295   1.722   1.509 -0.2355 -0.4172 -0.3859
  636TIP3    H123323   0.269   1.636   1.544  1.5169 -0.5970  0.6053
  636TIP3    H223324   0.251   1.785   1.566 -1.5475 -0.6333 -1.1294
  637TIP3   OH223325   1.220   5.216   3.177  0.1259  0.1732 -0.5532
  637TIP3    H123326   1.310   5.184   3.185  0.2393  0.7245  0.6317
  637TIP3    H223327   1.179   5.192   3.260 -0.5109  0.8925 -0.6489
  638TIP3   OH223328   1.791   3.751   0.820 -0.0737  0.2330 -0.3926
  638TIP3    H123329   1.849   3.749   0.896 -0.7684  1.9649  0.2452
  638TIP3    H223330   1.841   3.710   0.749  0.4852 -1.6989  1.0274
  639TIP3   OH223331   2.903   6.349   5.079  0.4482  0.5283  0.2308
  639TIP3    H123332   2.922   6.352   5.172  2.7064 -1.5782 -0.0480
  639TIP3    H223333   2.976   6.396   5.038  0.7937 -0.6319 -0.5473
  640TIP3   OH223334   5.999   3.768   5.861 -0.2091 -0.5995 -0.2040
  640TIP3    H123335   5.925   3.810   5.905  0.1444  0.1651 -0.3326
  640TIP3    H223336   6.052   3.840   5.828 -0.6701 -1.1415 -2.2621
  641TIP3   OH223337   2.820   4.879   5.086 -0.6243 -0.2278  0.8883
  641TIP3    H123338   2.791   4.968   5.108 -1.6571 -0.2607 -0.2302
  641TIP3    H223339   2.873   4.852   5.161  1.1661  1.9660  0.5295
  642TIP3   OH223340   0.044   0.294  17.026 -0.2433  0.4596 -0.2070
  642TIP3    H123341  -0.036   0.303  16.975 -0.7346 -0.3452  0.3872
  642TIP3    H223342   0.047   0.372  17.080 -0.0739  0.9924 -0.9708
  643TIP3   OH223343   5.046   1.611   4.391  0.5814 -0.0290 -0.7201
  643TIP3    H123344   4.970   1.554   4.401 -0.0339  0.8751 -0.1051
  643TIP3    H223345   5.084   1.586   4.307 -0.3808 -0.5044 -1.0279
  644TIP3   OH223346   3.950   6.256  15.236  0.2244 -0.0263 -0.3068
  644TIP3    H123347   4.001   6.188  15.281  2.1709  1.4192 -0.2062
  644TIP3    H223348   3.861   6.246  15.271  0.7788 -1.5729  0.7722
  645TIP3   OH223349   4.320   5.547  11.860  0.8658  0.3030  0.6780
  645TIP3    H123350   4.242   5.592  11.891 -1.5982 -2.7737 -0.5155
  645TIP3    H223351   4.339   5.481  11.927  0.5099 -0.9709 -0.4275
  646TIP3   OH223352   1.262   4.603   6.170 -0.4566 -0.0465  0.4233
  646TIP3    H123353   1.280   4.556   6.251 -1.2349  0.7527  1.0859
  646TIP3    H223354   1.167   4.600   6.161 -0.7235  2.7411  1.3776
  647TIP3   OH223355   2.282   5.300   2.505 -0.3772 -0.1384 -0.6431
  647TIP3    H123356   2.253   5.213   2.479 -0.9033  0.0689 -0.7519
  647TIP3    H223357   2.377   5.290   2.518 -0.4250 -0.7125 -0.6948
  648TIP3   OH223358   0.281   1.053  14.377 -0.2627  0.0607  0.0080
  648TIP3    H123359   0.201   1.092  14.411  1.1230  2.4514  0.6968
  648TIP3    H223360   0.321   1.122  14.324  1.6479 -0.8673  0.1672
  649TIP3   OH223361   0.356   3.469  17.250  0.9203  0.0804 -0.8341
  649TIP3    H123362   0.270   3.427  17.257  0.3000  1.3202 -0.8017
  649TIP3    H223363   0.352   3.520  17.169  1.0512  1.3577 -0.0673
  650TIP3   OH223364   1.346   3.867   1.079  0.5250  0.2044  0.0622
  650TIP3    H123365   1.346   3.899   1.169  0.8186  1.6305 -0.4236
  650TIP3    H223366   1.423   3.810   1.074  1.3137  1.2227  0.3556
  651TIP3   OH223367   1.992   0.012  12.204  0.0836 -0.4257 -0.3674
  651TIP3    H123368   1.994   0.085  12.264  0.0587 -1.1911  0.5899
  651TIP3    H223369   2.078   0.011  12.162  0.5744 -0.6703  0.6296
  652TIP3   OH223370   5.645   0.409   2.478  0.2492  0.2055 -0.2268
  652TIP3    H123371   5.612   0.496   2.502  2.8062  1.1339  0.2593
  652TIP3    H223372   5.653   0.413   2.383 -1.9807 -0.4594 -0.4978
  653TIP3   OH223373   1.754   4.749  13.748  0.5784  0.1192  0.4564
  653TIP3    H123374   1.703   4.734  13.669  0.0318  2.2138  0.3587
  653TIP3    H223375   1.699   4.806  13.802  1.8362  0.4904  1.4035
  654TIP3   OH223376   2.242   0.059   3.294 -0.0959 -0.2798  0.8849
  654TIP3    H123377   2.232   0.110   3.374 -1.1313  0.0112  0.5919
  654TIP3    H223378   2.191  -0.021   3.310  0.6602 -0.7513  0.9531
  655TIP3   OH223379   1.430   0.179  13.453  0.2936  0.8695 -0.4377
  655TIP3    H123380   1.468   0.165  13.367 -0.5165 -1.7638 -0.4664
  655TIP3    H223381   1.500   0.154  13.514  0.2967  1.0462 -0.3681
  656TIP3   OH223382   3.623   2.043   5.650  0.3092  0.2225  0.5522
  656TIP3    H123383   3.697   2.031   5.590 -0.0141  0.5653  0.0878
  656TIP3    H223384   3.613   1.957   5.691  0.2122 -0.1589 -0.2492
  657TIP3   OH223385   0.043   6.689   0.452  0.1499 -0.0505  0.2671
  657TIP3    H123386   0.101   6.647   0.388 -2.8575 -5.2240  0.3976
  657TIP3    H223387  -0.025   6.730   0.399 -0.5752 -1.5045  0.0136
  658TIP3   OH223388   4.647   1.040  15.842  0.5314  0.0375 -0.2576
  658TIP3    H123389   4.719   1.068  15.786  1.2562  3.0163  1.8718
  658TIP3    H223390   4.569   1.083  15.805  0.4619 -0.4526 -0.6780
  659TIP3   OH223391   2.367   2.540  11.777 -0.0855  0.1559  0.2652
  659TIP3    H123392   2.297   2.550  11.711 -0.2133 -0.6713  0.2619
  659TIP3    H223393   2.322   2.504  11.853  0.5171 -1.4922 -0.1250
  660TIP3   OH223394   6.639   0.362   3.598  0.0492 -0.3466 -0.3420
  660TIP3    H123395   6.574   0.322   3.541 -0.7278  1.5587 -0.8917
  660TIP3    H223396   6.694   0.414   3.538 -0.2701  1.0299  0.5063
  661TIP3   OH223397   2.815   2.362  12.714  0.3949 -0.0341  0.5293
  661TIP3    H123398   2.745   2.335  12.773 -0.0165 -1.8606 -0.6851
  661TIP3    H223399   2.880   2.293  12.721  1.3657  0.8529  0.4736
  662TIP3   OH223400   4.331   6.401   3.238 -0.1790  0.4997 -0.3327
  662TIP3    H123401   4.273   6.474   3.217 -0.3411  0.0300 -1.6415
  662TIP3    H223402   4.407   6.415   3.181  0.7583  0.8037  0.9573
  663TIP3   OH223403   6.468   4.822  17.314  0.2138  0.3120  0.0590
  663TIP3    H123404   6.437   4.775  17.392 -1.1369  0.0779 -0.5820
  663TIP3    H223405   6.411   4.790  17.243 -0.5616  2.6684 -0.4689
  664TIP3   OH223406   3.568   1.231  12.251 -0.5621  0.0077  0.0374
  664TIP3    H123407   3.548   1.159  12.311  0.9312  0.1538  0.7572
  664TIP3    H223408   3.561   1.191  12.164 -0.0714 -0.9348  0.4104
  665TIP3   OH223409   1.803   4.686  12.381 -0.0497 -0.0030  0.0395
  665TIP3    H123410   1.893   4.697  12.410 -0.0436  1.3555 -0.4257
  665TIP3    H223411   1.809   4.669  12.287 -0.3642  4.2440 -0.9143
  666TIP3   OH223412   3.915   2.963  14.362 -0.4884  0.3859  0.4899
  666TIP3    H123413   3.905   2.884  14.310  3.7497  0.0906 -0.2784
  666TIP3    H223414   3.923   2.933  14.452  1.1608 -0.1690  0.1936
  667TIP3   OH223415   6.728   5.299   2.303  0.3168 -0.5749 -0.2762
  667TIP3    H123416   6.696   5.359   2.370  3.4809  0.0932  0.8000
  667TIP3    H223417   6.729   5.351   2.223  1.0797  0.1695  0.2085
  668TIP3   OH223418   2.630   3.372  11.506 -0.1795  0.1226 -0.0194
  668TIP3    H123419   2.616   3.365  11.601  0.1023 -0.7810 -0.0330
  668TIP3    H223420   2.679   3.453  11.495 -1.5175  1.0365  0.4560
  669TIP3   OH223421   1.594   4.522  15.871 -0.4899  0.4249  0.3819
  669TIP3    H123422   1.601   4.616  15.851  1.4588 -0.1106 -1.8500
  669TIP3    H223423   1.550   4.484  15.795  0.1287 -0.6639  0.5468
  670TIP3   OH223424   3.184   3.327   0.263 -0.3056 -0.2798 -0.1214
  670TIP3    H123425   3.205   3.233   0.257 -1.9469 -0.6215 -0.8070
  670TIP3    H223426   3.090   3.330   0.277  0.0353  1.2246  2.4140
  671TIP3   OH223427   1.435   5.607  14.213 -0.3164 -0.3025  0.7323
  671TIP3    H123428   1.499   5.542  14.184 -0.2829  0.9637 -2.4019
  671TIP3    H223429   1.372   5.556  14.264  0.0446 -2.7355 -1.0383
  672TIP3   OH223430   4.243   1.546   2.007  0.3934 -0.2709 -0.2429
  672TIP3    H123431   4.221   1.453   1.997 -0.6187 -0.0965  0.2946
  672TIP3    H223432   4.293   1.550   2.088 -1.4255 -0.0678  0.9153
  673TIP3   OH223433   5.779   5.676   2.458 -0.5457 -0.1022 -0.5735
  673TIP3    H123434   5.799   5.769   2.444  1.9995 -0.4842 -0.1031
  673TIP3    H223435   5.808   5.633   2.378  1.9881 -0.8470  0.6286
  674TIP3   OH223436   1.982   4.596   1.610  0.5650 -0.1794 -0.4721
  674TIP3    H123437   1.888   4.603   1.626  0.8443  0.9998  0.8222
  674TIP3    H223438   1.993   4.625   1.519 -0.2090  0.9647 -0.2295
  675TIP3   OH223439   0.680   6.475  12.539  0.2666 -0.2098  0.5902
  675TIP3    H123440   0.766   6.466  12.580  0.9855 -2.6117 -1.2117
  675TIP3    H223441   0.699   6.508  12.451 -0.5301 -1.5380 -0.1088
  676TIP3   OH223442   1.673   2.137   1.796 -0.2921 -0.0503 -0.2228
  676TIP3    H123443   1.748   2.085   1.823 -0.3122 -0.2693 -0.5844
  676TIP3    H223444   1.710   2.219   1.765 -0.3006  0.4047  0.9240
  677TIP3   OH223445   0.792   4.021   5.082  0.2235 -0.2632  0.5434
  677TIP3    H123446   0.872   3.977   5.112  0.4373  0.7207  1.4643
  677TIP3    H223447   0.823   4.098   5.034 -0.1057  1.6266  3.1567
  678TIP3   OH223448   0.166   5.533  14.828  0.1371 -0.3794  0.3360
  678TIP3    H123449   0.101   5.468  14.856  0.0774 -1.2269 -1.6372
  678TIP3    H223450   0.206   5.495  14.750  2.2259  0.6432  0.8451
  679TIP3   OH223451   3.600   1.073   5.529 -0.4482  0.2673 -0.4743
  679TIP3    H123452   3.506   1.061   5.516 -0.2555 -0.4977 -1.3126
  679TIP3    H223453   3.637   0.984   5.524  0.3088  0.5503 -0.1091
  680TIP3   OH223454   0.951   0.391  12.265  0.3891  0.6323  0.1309
  680TIP3    H123455   1.005   0.451  12.212  0.8144  1.1927  1.1595
  680TIP3    H223456   1.008   0.365  12.337  0.5131 -1.7594 -0.7545
  681TIP3   OH223457   2.563   4.711   3.792 -0.3142  0.6717 -0.0337
  681TIP3    H123458   2.583   4.802   3.772 -0.8776  1.4285  2.5508
  681TIP3    H223459   2.544   4.672   3.707 -0.9428  3.1722 -1.1373
  682TIP3   OH223460   4.305   0.450   5.752 -0.6084  0.4994 -0.1343
  682TIP3    H123461   4.301   0.545   5.765 -0.9408  0.2227  2.1433
  682TIP3    H223462   4.217   0.426   5.723 -0.5918  0.8334 -0.4823
  683TIP3   OH223463   4.263   5.191   3.021 -0.3975  0.1246  0.6418
  683TIP3    H123464   4.334   5.184   3.085 -0.3581  0.4597  0.6368
  683TIP3    H223465   4.308   5.210   2.938 -0.4455 -0.3329  0.5104
  684TIP3   OH223466   1.806   3.597   1.262  0.3573  0.4563 -0.3665
  684TIP3    H123467   1.736   3.645   1.306 -0.3292  0.4968 -1.4625
  684TIP3    H223468   1.870   3.664   1.239  0.1862  0.5974 -0.4336
  685TIP3   OH223469   0.247   1.213  12.800 -0.1743  0.9002 -0.5108
  685TIP3    H123470   0.249   1.142  12.737 -0.1751  0.3272  0.1280
  685TIP3    H223471   0.296   1.284  12.758  1.5764 -0.1467 -0.3295
  686TIP3   OH223472   4.255   0.240   5.183  0.0050  0.2855 -0.4356
  686TIP3    H123473   4.295   0.200   5.106 -0.0379  1.4480 -1.0771
  686TIP3    H223474   4.180   0.184   5.203 -0.2505  0.2225 -1.5221
  687TIP3   OH223475   1.992   6.273  12.932 -0.2059 -0.5000  0.4587
  687TIP3    H123476   1.999   6.278  12.837 -1.3810 -0.5735  0.3476
  687TIP3    H223477   2.082   6.270  12.963  0.1859 -0.9889 -0.6762
  688TIP3   OH223478   1.375   5.223  14.842  0.5424  0.7625  0.0368
  688TIP3    H123479   1.285   5.222  14.810 -0.0460 -0.2694  1.6160
  688TIP3    H223480   1.386   5.139  14.886  2.0314  1.1800  0.5276
  689TIP3   OH223481   6.235   2.178   1.373  0.4806 -0.2637 -0.0387
  689TIP3    H123482   6.237   2.163   1.467  1.2645  0.5002  0.0708
  689TIP3    H223483   6.226   2.091   1.335  0.6540 -0.6158  0.7197
  690TIP3   OH223484   4.087   5.054  16.958 -0.6784  0.7065  0.0461
  690TIP3    H123485   4.162   5.099  16.997  0.7751 -1.1884 -0.4408
  690TIP3    H223486   4.115   4.963  16.950 -3.3674 -0.2448  0.6331
  691TIP3   OH223487   6.179   1.327   1.564  0.3725 -0.1134 -0.0720
  691TIP3    H123488   6.182   1.298   1.473 -0.6273 -0.2343 -0.0686
  691TIP3    H223489   6.234   1.406   1.566 -1.4699  1.2659 -1.2919
  692TIP3   OH223490   1.039   3.061   1.074 -0.2585 -0.0820 -0.1032
  692TIP3    H123491   1.127   3.067   1.111 -0.1086 -0.4338 -0.3951
  692TIP3    H223492   0.981   3.061   1.150  0.1125 -2.5678  0.2917
  693TIP3   OH223493   1.523   1.851   2.082 -0.0845 -0.5077 -0.3573
  693TIP3    H123494   1.480   1.766   2.092  0.4701 -0.5788  2.1615
  693TIP3    H223495   1.598   1.833   2.024  0.6792 -2.0344  1.0237
  694TIP3   OH223496   5.758   4.341   0.164  0.5880 -0.3162  0.0589
  694TIP3    H123497   5.704   4.397   0.219  0.4351  2.9656 -3.0415
  694TIP3    H223498   5.843   4.338   0.208 -0.1153  0.3648  1.5040
  695TIP3   OH223499   5.216   0.608   0.410  0.1982 -0.2535  0.3645
  695TIP3    H123500   5.262   0.650   0.482  0.4184 -0.8157  0.5530
  695TIP3    H223501   5.203   0.518   0.438 -0.6549 -0.2062  0.1394
  696TIP3   OH223502   3.780   5.168   4.373  0.7866  0.4698  0.1203
  696TIP3    H123503   3.759   5.137   4.461 -0.5017 -0.9091 -0.6222
  696TIP3    H223504   3.695   5.186   4.333  1.2886 -0.0247 -1.2172
  697TIP3   OH223505   5.315   3.674   2.424  0.0221 -0.2251 -0.0122
  697TIP3    H123506   5.230   3.663   2.467 -0.4399 -0.6809 -1.0093
  697TIP3    H223507   5.320   3.767   2.404  0.1964 -0.0242  0.9184
  698TIP3   OH223508   5.248   0.499  11.469 -0.0573 -0.3558  1.1832
  698TIP3    H123509   5.228   0.559  11.398 -0.0122  0.7083  2.0455
  698TIP3    H223510   5.163   0.464  11.496 -0.2152  0.2424  1.4670
  699TIP3   OH223511   0.236   0.213  12.947  0.3511 -0.5032  0.6287
  699TIP3    H123512   0.205   0.191  12.859 -0.0673 -1.4674  1.0065
  699TIP3    H223513   0.310   0.154  12.962 -0.7950 -1.7517  1.6590
  700TIP3   OH223514   3.627   4.607   5.168  0.8283  0.3883 -0.1362
  700TIP3    H123515   3.606   4.513   5.170 -0.2907  0.6417  0.6786
  700TIP3    H223516   3.675   4.623   5.249 -0.8574  0.9087  0.8092
  701TIP3   OH223517   0.162   2.978  16.322 -0.1432 -0.0564 -0.4392
  701TIP3    H123518   0.248   3.017  16.339  0.5909 -0.5518 -2.5897
  701TIP3    H223519   0.099   3.047  16.344  0.9056  0.8993 -0.3223
  702TIP3   OH223520   2.389   2.708  13.319 -0.5630 -0.1439 -0.2386
  702TIP3    H123521   2.357   2.733  13.406 -0.6246 -2.9699  0.6273
  702TIP3    H223522   2.315   2.662  13.278 -0.1509  0.1379 -1.3555
  703TIP3   OH223523   1.911   2.410   3.011 -0.5768 -0.2393 -0.0352
  703TIP3    H123524   1.926   2.435   3.102 -0.3812  2.7923 -0.8170
  703TIP3    H223525   1.818   2.389   3.007 -0.5240 -0.7074  0.8935
  704TIP3   OH223526   4.440   6.621   4.717 -0.7270 -0.6617 -0.1463
  704TIP3    H123527   4.350   6.601   4.692 -0.7302  0.4274 -1.0922
  704TIP3    H223528   4.450   6.715   4.699  0.7370 -0.8652 -0.5243
  705TIP3   OH223529   0.804   1.248   0.320 -0.7413 -0.1198  0.0063
  705TIP3    H123530   0.745   1.317   0.350 -0.7539  0.1472 -0.6144
  705TIP3    H223531   0.849   1.286   0.245  0.6992 -0.0886  0.8435
  706TIP3   OH223532   4.424   2.996   4.743  0.1131 -0.0743 -0.0628
  706TIP3    H123533   4.475   2.922   4.779 -0.3447 -0.4824 -0.2429
  706TIP3    H223534   4.482   3.035   4.677  1.2221  1.0769  1.5236
  707TIP3   OH223535   1.829   0.403  15.990  0.4285  0.2444  0.0903
  707TIP3    H123536   1.839   0.404  15.895  2.0649  0.7290  0.2458
  707TIP3    H223537   1.912   0.436  16.024  0.3326 -1.0654  1.7408
  708TIP3   OH223538   6.173   6.204  12.701 -0.6906  0.8788  0.0102
  708TIP3    H123539   6.223   6.283  12.677 -1.3682  1.2877 -0.0844
  708TIP3    H223540   6.166   6.208  12.796  2.2911 -0.9200  0.4247
  709TIP3   OH223541   3.968   5.726   3.299  0.7112  0.1546 -0.4419
  709TIP3    H123542   3.895   5.692   3.248  1.2872 -0.4546 -0.8878
  709TIP3    H223543   3.956   5.821   3.300 -0.1538  0.0529 -0.3846
  710TIP3   OH223544   1.472   3.187  14.860  0.3468  0.0211 -0.0805
  710TIP3    H123545   1.432   3.247  14.797  2.2475  0.5058 -0.9039
  710TIP3    H223546   1.553   3.230  14.886  0.1398 -0.6936  1.8821
  711TIP3   OH223547   5.280   6.144  12.479 -0.2690 -0.2640 -0.2310
  711TIP3    H123548   5.356   6.162  12.535 -0.9357 -0.5064  0.7809
  711TIP3    H223549   5.216   6.105  12.538 -1.5292  0.7978 -0.8590
  712TIP3   OH223550   3.778   0.872   6.057  0.5676 -0.2859 -0.3635
  712TIP3    H123551   3.830   0.803   6.014 -1.4521 -1.5728 -0.8863
  712TIP3    H223552   3.754   0.835   6.142  0.5475  0.3103 -0.1042
  713TIP3   OH223553   3.956   5.400   3.295 -0.5876 -0.7800 -0.0731
  713TIP3    H123554   3.963   5.445   3.379 -1.0893 -3.0349  1.2542
  713TIP3    H223555   3.905   5.459   3.240 -1.8614 -0.0353  1.8067
  714TIP3   OH223556   0.180   1.509  16.137  0.8217 -0.4003  0.0422
  714TIP3    H123557   0.103   1.487  16.190  0.0418  0.9533 -0.4787
  714TIP3    H223558   0.145   1.560  16.065  2.3453  1.3441  0.4712
  715TIP3   OH223559   4.187   5.733   1.274 -0.0637  0.2531 -0.3240
  715TIP3    H123560   4.148   5.820   1.278 -4.4698 -1.4786  3.6036
  715TIP3    H223561   4.137   5.686   1.207 -1.2675 -0.5127  1.0493
  716TIP3   OH223562   6.364   5.107   2.759 -0.3884 -0.2786  0.2776
  716TIP3    H123563   6.299   5.143   2.699 -0.6577 -2.1142 -0.5822
  716TIP3    H223564   6.388   5.181   2.815 -1.0039  1.1909 -1.3082
  717TIP3   OH223565   2.050   3.733  16.863  0.5447 -0.0917 -0.8285
  717TIP3    H123566   2.127   3.742  16.806  0.0439  1.5525 -1.2725
  717TIP3    H223567   2.036   3.638  16.868  1.9217 -0.3736 -1.6467
  718TIP3   OH223568   3.108   2.778  11.840  0.5594  0.2212  0.3266
  718TIP3    H123569   3.109   2.857  11.786  1.2205 -0.6073 -0.9335
  718TIP3    H223570   3.019   2.773  11.874 -0.7454 -0.6236 -2.9076
  719TIP3   OH223571   5.821   5.009  13.132  0.5912  0.3813  0.1629
  719TIP3    H123572   5.780   5.074  13.189 -1.6887 -0.3083 -0.6022
  719TIP3    H223573   5.811   4.926  13.179 -0.5465 -0.0601 -0.8302
  720TIP3   OH223574   2.054   5.470  15.125 -0.4647  0.2101  0.2785
  720TIP3    H123575   1.995   5.546  15.126 -3.0744 -1.6618 -0.3738
  720TIP3    H223576   2.083   5.463  15.034 -1.0495 -0.0997  0.1042
  721TIP3   OH223577   4.939   5.289  17.296 -0.3741  0.1745  0.3617
  721TIP3    H123578   4.870   5.337  17.341 -1.9251 -1.3770 -0.2343
  721TIP3    H223579   4.914   5.291  17.204 -1.8875 -3.6495  0.5033
  722TIP3   OH223580   5.573   4.117  12.732  0.6987 -0.2228 -0.7056
  722TIP3    H123581   5.661   4.083  12.744  0.6270 -0.5299 -1.0230
  722TIP3    H223582   5.521   4.041  12.704  0.2206 -0.1568 -0.0194
  723TIP3   OH223583   1.268   5.254   1.948 -0.3769  0.0512 -0.0729
  723TIP3    H123584   1.257   5.311   2.024 -1.3253  0.2781 -0.3633
  723TIP3    H223585   1.204   5.286   1.884  0.6464  0.0908 -1.1082
  724TIP3   OH223586   1.788   2.462  13.318  0.2761  0.1685 -0.2918
  724TIP3    H123587   1.819   2.540  13.273 -0.8158 -0.1111 -1.6217
  724TIP3    H223588   1.757   2.404  13.248  1.0500 -1.4687  0.6490
  725TIP3   OH223589   5.685   2.055  17.288  0.0443 -0.1944 -0.0934
  725TIP3    H123590   5.751   1.986  17.288  2.2232  1.7244  1.2517
  725TIP3    H223591   5.730   2.131  17.250 -1.2719  1.2416  1.0734
  726TIP3   OH223592   3.141   5.180  11.724 -0.2410  0.5846  0.5983
  726TIP3    H123593   3.175   5.224  11.802 -3.9471  1.8420  1.7005
  726TIP3    H223594   3.129   5.089  11.750 -2.4430  1.2009  1.9994
  727TIP3   OH223595   5.531   3.991   2.059 -0.0706  0.0905 -0.1391
  727TIP3    H123596   5.451   4.032   2.092 -0.5082  0.1909 -1.2958
  727TIP3    H223597   5.505   3.948   1.978  1.6304  2.8578 -2.3522
  728TIP3   OH223598   4.046   6.378  14.986 -0.1373  0.4722  0.3528
  728TIP3    H123599   4.020   6.346  15.073 -1.6304  1.5616  0.3405
  728TIP3    H223600   3.990   6.330  14.925  0.0495  0.5928  0.0866
  729TIP3   OH223601   6.685   5.624  17.353  0.0707  0.1456 -0.5151
  729TIP3    H123602   6.622   5.694  17.371 -0.5946 -0.4909 -0.3152
  729TIP3    H223603   6.631   5.551  17.323  0.4469 -1.1746  1.7949
  730TIP3   OH223604   3.640   3.778   5.515  0.1257 -0.2852  0.4232
  730TIP3    H123605   3.597   3.734   5.588 -0.4843  0.0617  0.2781
  730TIP3    H223606   3.639   3.714   5.444  1.7832 -1.0704  1.0455
  731TIP3   OH223607   4.877   6.382  15.575  0.2509 -0.6366 -0.6343
  731TIP3    H123608   4.825   6.308  15.606 -0.5787  0.0069 -0.4463
  731TIP3    H223609   4.895   6.362  15.483 -0.3906 -0.8432 -0.7227
  732TIP3   OH223610   4.524   3.257   3.344  0.4551  0.9074  0.5893
  732TIP3    H123611   4.494   3.345   3.366 -0.7573  0.9218 -0.9775
  732TIP3    H223612   4.554   3.264   3.253 -1.2183 -0.6241 -0.1424
  733TIP3   OH223613   1.451   3.969  16.522 -0.6130 -0.1652  0.5381
  733TIP3    H123614   1.400   4.032  16.470 -0.8875  0.0639  1.0705
  733TIP3    H223615   1.528   4.018  16.550  0.1209 -0.6338 -0.6086
  734TIP3   OH223616   5.338   6.377   6.377  0.0284  0.7091  0.0685
  734TIP3    H123617   5.251   6.401   6.346 -1.3183 -0.9004  2.3409
  734TIP3    H223618   5.331   6.284   6.401  3.3441 -0.5545 -2.8741
  735TIP3   OH223619   5.891   1.931  12.103 -0.2562  0.4394 -0.0874
  735TIP3    H123620   5.918   1.990  12.033  0.3685  0.1646 -0.0814
  735TIP3    H223621   5.940   1.850  12.088  0.1386  0.4835  0.8437
  736TIP3   OH223622   1.181   5.420  13.341 -0.3125  0.2532  0.7078
  736TIP3    H123623   1.142   5.483  13.401  1.0536  1.9218 -0.0781
  736TIP3    H223624   1.113   5.404  13.275 -0.5713  1.1439  0.7511
  737TIP3   OH223625   3.422   0.682   4.731  0.4512  0.5112  0.3444
  737TIP3    H123626   3.362   0.714   4.799 -0.6485  1.9182 -1.1726
  737TIP3    H223627   3.364   0.658   4.659  1.5022 -2.0995  0.2732
  738TIP3   OH223628   5.817   5.532  14.757  0.7047 -0.2528  0.7282
  738TIP3    H123629   5.843   5.476  14.683 -0.1181  0.0556  0.1916
  738TIP3    H223630   5.822   5.621  14.723 -0.7615 -0.1625  0.6710
  739TIP3   OH223631   1.358   0.510   1.535  0.0548 -0.7150  0.3252
  739TIP3    H123632   1.385   0.510   1.627  0.0791 -1.1679  0.3163
  739TIP3    H223633   1.297   0.584   1.529 -1.1938 -1.6392  1.0765
  740TIP3   OH223634   5.015   3.967  12.301  0.6119  0.0083 -0.1906
  740TIP3    H123635   5.080   3.923  12.246  0.4212  0.0170 -0.4262
  740TIP3    H223636   4.944   3.903  12.311 -0.0290  0.5326 -1.1923
  741TIP3   OH223637   4.737   1.500   5.022  0.7136 -0.1383 -0.4545
  741TIP3    H123638   4.746   1.440   4.948  0.3334 -0.1429 -0.4951
  741TIP3    H223639   4.798   1.466   5.088  0.7227 -0.3891 -0.5924
  742TIP3   OH223640   5.385   6.254   2.974 -0.0463 -0.3438 -0.4875
  742TIP3    H123641   5.349   6.336   2.943 -1.4340 -1.1563 -1.1229
  742TIP3    H223642   5.461   6.238   2.918 -1.4831 -0.9100 -2.3920
  743TIP3   OH223643   1.861   1.208   0.597 -0.2593 -0.4194 -0.4409
  743TIP3    H123644   1.767   1.198   0.611 -0.4939  2.3528  0.5145
  743TIP3    H223645   1.869   1.254   0.513  0.1122  0.9927  0.3434
  744TIP3   OH223646   0.026   0.108   3.343 -0.0259  0.1578 -0.8208
  744TIP3    H123647   0.107   0.121   3.392  0.5086  0.0992 -1.6903
  744TIP3    H223648   0.011   0.191   3.298 -0.8391  0.4166 -0.1088
  745TIP3   OH223649   2.644   2.711  13.200 -0.0155  0.2650 -0.0924
  745TIP3    H123650   2.681   2.799  13.191 -0.9799  0.7962  0.9848
  745TIP3    H223651   2.567   2.722  13.256  0.0841 -1.3230  0.4206
  746TIP3   OH223652   0.158   4.445  12.688  0.6583  0.3136 -0.7385
  746TIP3    H123653   0.214   4.370  12.708  0.3694  0.2005 -0.3209
  746TIP3    H223654   0.143   4.486  12.773 -2.4142 -1.4373 -0.2742
  747TIP3   OH223655   0.742   3.546  10.540  0.1032  0.0189 -0.0804
  747TIP3    H123656   0.806   3.601  10.494  0.1127 -0.4080 -0.5904
  747TIP3    H223657   0.660   3.559  10.492  0.1907 -0.6915 -0.4432
  748TIP3   OH223658   5.762   3.924   5.640 -0.1183  0.0193  0.1444
  748TIP3    H123659   5.802   3.854   5.589 -0.4940  0.8674 -1.3918
  748TIP3    H223660   5.676   3.937   5.599 -0.8017  0.1387  1.5751
  749TIP3   OH223661   4.766   5.496  17.357 -0.4332  0.1575 -0.4281
  749TIP3    H123662   4.692   5.507  17.416 -1.1763 -1.3290 -1.0301
  749TIP3    H223663   4.813   5.579  17.362 -1.0363  0.4454  1.4483
  750TIP3   OH223664   3.080   0.294  16.474 -0.7503 -0.2845  0.0221
  750TIP3    H123665   3.078   0.389  16.486  3.4798 -0.0509  0.2302
  750TIP3    H223666   3.148   0.264  16.534 -1.2554 -3.3475 -0.7869
  751TIP3   OH223667   3.495   5.538  12.897 -0.0209 -0.2240  0.1398
  751TIP3    H123668   3.429   5.572  12.957 -0.2579 -0.5585  0.0754
  751TIP3    H223669   3.512   5.449  12.929  2.1398  0.6409  1.5874
  752TIP3   OH223670   2.164   2.020  12.347 -1.3224 -0.4579  0.8366
  752TIP3    H123671   2.250   1.979  12.343 -0.4069  1.3968  0.3880
  752TIP3    H223672   2.103   1.953  12.316  0.3067 -0.9371 -1.5722
  753TIP3   OH223673   2.955   3.071   1.169  0.3596  0.1809 -0.0007
  753TIP3    H123674   2.872   3.046   1.210 -0.1924 -0.4808 -1.4352
  753TIP3    H223675   2.934   3.151   1.121  1.2218  1.4637  1.6525
  754TIP3   OH223676   2.767   5.009  10.567 -0.2784  0.3085  0.0996
  754TIP3    H123677   2.759   5.103  10.554 -0.7891  0.5617  1.9598
  754TIP3    H223678   2.861   4.991  10.559 -0.4560  0.1939 -4.4565
  755TIP3   OH223679   2.363   2.753   4.691  0.1325  0.1654 -0.2879
  755TIP3    H123680   2.381   2.682   4.630 -0.5380  1.7516 -2.4553
  755TIP3    H223681   2.435   2.815   4.679 -2.0945  2.5388 -2.8005
  756TIP3   OH223682   2.849   4.144   2.379  0.6854  0.5432 -0.7836
  756TIP3    H123683   2.778   4.187   2.332 -0.8412  1.0422  1.7847
  756TIP3    H223684   2.842   4.177   2.468  2.1561 -1.8366  0.3183
  757TIP3   OH223685   6.010   6.575   4.204  0.4036  0.3260  0.2453
  757TIP3    H123686   6.103   6.596   4.204  1.1883 -2.5709 -0.6886
  757TIP3    H223687   6.005   6.486   4.239 -1.7206 -0.4650 -1.7558
  758TIP3   OH223688   5.235   6.142  12.819 -0.4175  0.3246  0.0491
  758TIP3    H123689   5.321   6.154  12.778  0.0446 -1.6084  0.3752
  758TIP3    H223690   5.175   6.130  12.746 -0.1417  0.1235 -0.1476
  759TIP3   OH223691   3.302   1.592   2.689  0.4088 -0.3286 -0.1063
  759TIP3    H123692   3.318   1.650   2.763 -2.0005  0.1754  0.1037
  759TIP3    H223693   3.381   1.599   2.636  0.9639  1.6777  0.8741
  760TIP3   OH223694   6.094   0.293  16.106 -0.3425 -0.0529 -0.5464
  760TIP3    H123695   6.181   0.275  16.141 -0.7064 -0.4032  0.2192
  760TIP3    H223696   6.110   0.339  16.024  0.5476  0.5513 -0.0513
  761TIP3   OH223697   0.692   5.883  14.109 -0.1248  0.4212 -0.3058
  761TIP3    H123698   0.759   5.880  14.177  0.7819  1.6342 -1.1119
  761TIP3    H223699   0.711   5.807  14.054  0.1168  0.3328 -0.1042
  762TIP3   OH223700   5.539   2.273  13.610  0.1732  0.5624  0.1557
  762TIP3    H123701   5.607   2.286  13.544  0.2393  0.5998  0.2303
  762TIP3    H223702   5.533   2.178  13.621 -0.2130  0.5322 -0.2920
  763TIP3   OH223703   2.664   3.436  17.010  0.2338  0.6077  0.4370
  763TIP3    H123704   2.664   3.473  17.098  1.6083  2.4233 -0.2746
  763TIP3    H223705   2.572   3.441  16.983  0.1196  2.0762  0.9811
  764TIP3   OH223706   3.295   5.258   2.979  0.2819 -0.1402  0.3484
  764TIP3    H123707   3.336   5.240   3.063  0.1431  1.0601  0.6935
  764TIP3    H223708   3.205   5.282   3.001  1.0647  3.4524  0.2558
  765TIP3   OH223709   2.713   2.987   1.277  0.1372 -0.4217 -1.0765
  765TIP3    H123710   2.716   2.897   1.308 -1.1334  0.0096  0.4069
  765TIP3    H223711   2.622   3.001   1.250  0.0156  0.7484 -0.1495
  766TIP3   OH223712   2.286   2.199  11.831  0.0560  0.3209  1.1120
  766TIP3    H123713   2.272   2.282  11.877 -2.2209  0.4287  0.3049
  766TIP3    H223714   2.290   2.223  11.738  1.1264 -0.3012  0.9782
  767TIP3   OH223715   3.829   6.384  17.272  0.1759 -0.1191  0.2168
  767TIP3    H123716   3.831   6.477  17.294 -3.7079 -0.1173  1.1910
  767TIP3    H223717   3.750   6.351  17.313  1.2137 -3.8428 -0.4254
  768TIP3   OH223718   2.485   0.597  14.324  0.1953 -0.4328 -0.2390
  768TIP3    H123719   2.512   0.517  14.279 -0.5618 -0.5934 -0.4263
  768TIP3    H223720   2.543   0.602  14.400 -0.1994 -1.5335  0.1560
  769TIP3   OH223721   0.539   3.906  11.341 -0.6284 -0.0004 -0.2158
  769TIP3    H123722   0.558   3.998  11.321 -0.9978 -0.4239 -2.8487
  769TIP3    H223723   0.624   3.866  11.356 -0.3840  0.5556 -0.0972
  770TIP3   OH223724   0.285   2.161  11.518  0.1212 -0.4868  0.6312
  770TIP3    H123725   0.254   2.072  11.505  0.7573 -0.4273 -2.1075
  770TIP3    H223726   0.353   2.172  11.451  0.2404  1.9596  1.0597
  771TIP3   OH223727   4.148   2.001   4.397  0.1295  0.2689 -0.1346
  771TIP3    H123728   4.195   1.982   4.315  0.1403  1.2383 -0.3621
  771TIP3    H223729   4.168   2.093   4.416 -0.3660  0.2253  0.6352
  772TIP3   OH223730   2.488   3.332   2.821  0.1052 -0.2634  0.2665
  772TIP3    H123731   2.455   3.338   2.910 -0.5721 -0.5288  0.0399
  772TIP3    H223732   2.582   3.351   2.829 -0.0939  0.4671  0.9183
  773TIP3   OH223733   3.728   3.978   0.137 -0.2840  0.3035  0.7074
  773TIP3    H123734   3.685   3.919   0.199  3.1202  0.2874  3.3750
  773TIP3    H223735   3.740   4.059   0.187  0.6622  1.0823 -0.7240
  774TIP3   OH223736   4.577   3.841   1.271  0.4429  1.1504  0.1535
  774TIP3    H123737   4.626   3.891   1.206 -0.0203  0.2738 -0.9127
  774TIP3    H223738   4.599   3.749   1.252 -0.4516  0.8259  0.6118
  775TIP3   OH223739   2.660   1.142   0.128  0.4097  0.3093  0.0864
  775TIP3    H123740   2.667   1.092   0.047  0.2420 -0.3630  0.4877
  775TIP3    H223741   2.587   1.103   0.175  0.4706  0.7334  0.5460
  776TIP3   OH223742   2.183   4.616   1.044  0.7183  0.4385  0.2563
  776TIP3    H123743   2.263   4.567   1.060 -0.0867 -1.0388 -0.0248
  776TIP3    H223744   2.189   4.692   1.100  1.9955 -0.0194  0.7653
  777TIP3   OH223745   4.204   0.696   4.608  0.2528  0.5550  0.1005
  777TIP3    H123746   4.135   0.661   4.551  0.2206  1.3317 -0.3496
  777TIP3    H223747   4.170   0.683   4.697  0.9612 -2.0834  0.0763
  778TIP3   OH223748   5.769   3.717  16.762  0.0928 -0.3322 -0.2530
  778TIP3    H123749   5.732   3.641  16.807  0.8688 -0.1204  0.7932
  778TIP3    H223750   5.810   3.681  16.683 -1.4693 -0.6893 -0.9425
  779TIP3   OH223751   3.871   6.625  14.248 -0.3214 -0.3653  0.8600
  779TIP3    H123752   3.938   6.573  14.205 -1.8306 -1.9459  0.3045
  779TIP3    H223753   3.856   6.699  14.189  1.9165  0.8610  1.7084
  780TIP3   OH223754   3.729   5.602   1.342 -0.0076 -0.2567  0.1985
  780TIP3    H123755   3.699   5.670   1.281 -2.4251  0.6740  2.2400
  780TIP3    H223756   3.659   5.537   1.341  0.0929 -0.4134  1.6445
  781TIP3   OH223757   0.438   4.550   0.934 -0.4579  0.1468 -0.2187
  781TIP3    H123758   0.353   4.514   0.908 -0.9029  0.2915  0.9569
  781TIP3    H223759   0.484   4.476   0.975 -0.2506  0.2134 -0.3303
  782TIP3   OH223760   1.331   1.776   2.832  0.3561  0.1437 -0.2800
  782TIP3    H123761   1.268   1.743   2.896  0.7517  1.1727  0.6734
  782TIP3    H223762   1.326   1.714   2.759  1.7861 -2.6345  1.7880
  783TIP3   OH223763   5.073   3.433   3.905 -0.1447  0.2237 -0.6491
  783TIP3    H123764   5.046   3.518   3.870  1.2693  1.0682  0.2149
  783TIP3    H223765   4.991   3.382   3.911 -0.9963  1.4676 -1.2812
  784TIP3   OH223766   3.330   3.511   2.675 -0.0752 -0.1651 -0.2502
  784TIP3    H123767   3.262   3.569   2.710  1.5516  1.0737  1.0157
  784TIP3    H223768   3.303   3.423   2.701 -1.3225  0.2737 -0.0080
  785TIP3   OH223769   4.687   6.617  12.910  0.4432 -0.3780 -0.0389
  785TIP3    H123770   4.742   6.590  12.984 -1.0902 -1.6672  0.6953
  785TIP3    H223771   4.738   6.685  12.865  1.8729 -0.3256  1.5716
  786TIP3   OH223772   0.559   0.905  13.791  0.1721 -0.1119  0.1524
  786TIP3    H123773   0.618   0.830  13.803 -1.1404 -1.0436  1.0865
  786TIP3    H223774   0.512   0.886  13.710  1.5783  0.9707 -0.9697
  787TIP3   OH223775   1.891   2.710   1.393 -0.3557 -0.2392  0.2875
  787TIP3    H123776   1.848   2.698   1.308  1.5787 -0.0394 -0.7632
  787TIP3    H223777   1.904   2.805   1.400  1.5589 -0.4291 -0.2946
  788TIP3   OH223778   4.799   6.711  16.581 -0.2893  0.0062  0.0566
  788TIP3    H123779   4.787   6.708  16.486  1.7681 -0.2619 -0.2345
  788TIP3    H223780   4.877   6.765  16.594 -0.7097  0.2964  1.6334
  789TIP3   OH223781   3.657   2.153   2.604  0.2205 -0.6635  0.3490
  789TIP3    H123782   3.623   2.234   2.566  0.4964 -0.4840  0.4784
  789TIP3    H223783   3.692   2.104   2.530  0.6223 -0.3813  0.3445
  790TIP3   OH223784   3.218   0.868  13.177  0.3954 -0.1991 -0.8470
  790TIP3    H123785   3.180   0.873  13.265 -0.6992 -0.3840 -1.2905
  790TIP3    H223786   3.211   0.776  13.154 -1.3175  0.1619 -1.9496
  791TIP3   OH223787   0.544   6.074  14.488  0.2375  0.3481  0.0658
  791TIP3    H123788   0.616   6.028  14.444  0.7547  2.6832 -1.7320
  791TIP3    H223789   0.577   6.091  14.577  1.5942  0.6512 -0.4717
  792TIP3   OH223790   2.981   5.882   2.292  0.6585  0.0827  0.1046
  792TIP3    H123791   3.049   5.934   2.336  0.8733  1.1066 -1.3790
  792TIP3    H223792   3.017   5.793   2.291  1.6209  0.4559  0.0783
  793TIP3   OH223793   2.940   2.255  13.939 -0.4537 -0.0222 -0.2463
  793TIP3    H123794   2.868   2.207  13.898  0.3419 -1.1895 -0.3316
  793TIP3    H223795   2.897   2.320  13.994 -1.6797 -2.0707  1.4162
  794TIP3   OH223796   5.215   3.399  14.819  0.3970  0.2395  0.2469
  794TIP3    H123797   5.209   3.311  14.782  0.0494  0.5045 -0.3506
  794TIP3    H223798   5.237   3.454  14.744  2.1385  0.4604  0.8766
  795TIP3   OH223799   5.481   6.057  16.365 -0.1120  0.2096  0.9212
  795TIP3    H123800   5.560   6.108  16.383 -0.1229  0.8009 -0.5625
  795TIP3    H223801   5.462   6.013  16.447  0.4130  1.9212  2.0188
  796TIP3   OH223802   0.161   1.772  12.225 -0.4484 -0.5615  0.1747
  796TIP3    H123803   0.185   1.780  12.133 -1.3662 -2.7349 -0.3317
  796TIP3    H223804   0.242   1.746  12.269  0.4392  2.2689  0.3702
  797TIP3   OH223805   5.430   0.568  14.052 -0.4018  0.1417 -0.5606
  797TIP3    H123806   5.445   0.505  13.981 -0.2882  0.9647 -1.2887
  797TIP3    H223807   5.467   0.526  14.129 -2.0384 -1.5342 -0.5920
  798TIP3   OH223808   0.519   3.115   5.054 -0.4953  0.8318  0.1416
  798TIP3    H123809   0.428   3.092   5.073 -1.3042  1.9867 -1.9945
  798TIP3    H223810   0.525   3.208   5.075  0.4018  0.6395  0.8218
  799TIP3   OH223811   5.965   4.387  16.898 -0.2754  0.0735  0.0083
  799TIP3    H123812   5.925   4.308  16.935  0.3853 -0.3999 -0.2497
  799TIP3    H223813   5.897   4.425  16.843 -0.0460 -1.3292 -1.3247
  800TIP3   OH223814   6.735   1.090  13.628  0.3314 -0.3977  0.0045
  800TIP3    H123815   6.641   1.088  13.613  0.2008 -2.0481  0.7480
  800TIP3    H223816   6.757   0.999  13.652  2.2365 -0.2399 -0.9452
  801TIP3   OH223817   1.619   6.240   3.674 -0.0560 -0.7196  0.1032
  801TIP3    H123818   1.619   6.175   3.744  2.0929 -0.2394  0.6339
  801TIP3    H223819   1.711   6.264   3.664 -0.7996  3.0432  0.7006
  802TIP3   OH223820   5.663   1.239  15.340 -0.3926 -0.3680  0.4609
  802TIP3    H123821   5.745   1.198  15.313 -0.8022  0.0077 -1.4537
  802TIP3    H223822   5.612   1.167  15.379  1.4405 -0.2772  3.3426
  803TIP3   OH223823   3.088   6.729  14.974  0.1884 -0.0420 -0.5689
  803TIP3    H123824   3.133   6.724  15.058 -1.3263 -1.6429  0.1924
  803TIP3    H223825   3.110   6.816  14.940  1.4864  0.3149  1.0816
  804TIP3   OH223826   2.332   4.269   3.662 -0.1358  0.1591  0.5770
  804TIP3    H123827   2.420   4.264   3.625  0.3448  1.4430  1.4717
  804TIP3    H223828   2.309   4.179   3.685  0.0431 -0.5062 -1.6418
  805TIP3   OH223829   4.649   0.254   3.685 -0.7482  0.0691  0.4360
  805TIP3    H123830   4.686   0.177   3.643  2.0765  0.3814  2.0695
  805TIP3    H223831   4.618   0.223   3.770  0.4702  0.6890  1.1317
  806TIP3   OH223832   5.984   5.814  12.151 -0.6587  0.0488 -1.0747
  806TIP3    H123833   5.995   5.720  12.161 -1.7218 -0.3179 -2.8327
  806TIP3    H223834   5.949   5.825  12.062  0.5227  2.1978 -1.3446
  807TIP3   OH223835   3.766   6.476   0.193 -0.1460 -0.4157 -0.2992
  807TIP3    H123836   3.834   6.519   0.140  0.3402 -0.3042  0.4083
  807TIP3    H223837   3.812   6.446   0.271 -0.5715 -1.8280 -0.5592
  808TIP3   OH223838   1.611   4.786   5.197 -0.3891  0.1164 -0.0423
  808TIP3    H123839   1.590   4.846   5.268 -0.7636 -0.0093 -0.0437
  808TIP3    H223840   1.658   4.714   5.240 -0.1634  0.2881 -0.0024
  809TIP3   OH223841   3.729   5.867  15.316 -0.0988 -0.3280  0.0769
  809TIP3    H123842   3.685   5.938  15.362 -0.8132 -0.1515 -0.8416
  809TIP3    H223843   3.675   5.852  15.238  1.1149 -0.5366 -0.7547
  810TIP3   OH223844   1.920   4.160  15.488 -0.2596  0.3536  0.0830
  810TIP3    H123845   1.880   4.198  15.567 -0.4138 -0.1707  0.2627
  810TIP3    H223846   1.973   4.087  15.522  0.3120  0.6186 -0.2218
  811TIP3   OH223847   0.930   6.646   4.407 -0.0259 -0.7515 -0.3794
  811TIP3    H123848   0.895   6.557   4.402 -3.0076  0.2996 -0.2763
  811TIP3    H223849   0.885   6.685   4.483  2.3386  0.4251  0.5069
  812TIP3   OH223850   2.597   3.229  14.209  0.2930  0.2122  0.1071
  812TIP3    H123851   2.517   3.223  14.157  0.6858 -1.4715 -0.3795
  812TIP3    H223852   2.581   3.171  14.284  1.7141 -1.7345 -0.9997
  813TIP3   OH223853   0.971   5.105  10.964 -0.0403 -0.7188 -0.2288
  813TIP3    H123854   1.025   5.170  10.919 -0.3944 -0.5273 -0.3849
  813TIP3    H223855   0.899   5.087  10.903  0.1336 -1.3679 -0.2467
  814TIP3   OH223856   0.853   0.868   3.892 -0.3196 -0.3236 -0.7349
  814TIP3    H123857   0.847   0.773   3.905  0.1409 -0.4025 -1.0761
  814TIP3    H223858   0.877   0.902   3.978 -1.6728 -0.3860 -0.3110
  815TIP3   OH223859   1.599   0.977   4.636 -0.7784  0.0267 -0.2574
  815TIP3    H123860   1.507   0.987   4.614 -0.7649 -0.8531 -0.7382
  815TIP3    H223861   1.608   0.887   4.666 -0.3160  0.4834  1.0375
  816TIP3   OH223862   3.322   5.247   1.590  0.3417  0.6010  0.0244
  816TIP3    H123863   3.301   5.230   1.498 -0.3605 -0.0238  0.2977
  816TIP3    H223864   3.368   5.168   1.619 -2.0773 -0.5143  1.0284
  817TIP3   OH223865   3.992   2.365  14.310  0.3755 -0.8853  0.7384
  817TIP3    H123866   4.010   2.340  14.401 -0.5136 -1.7094  0.7028
  817TIP3    H223867   3.996   2.282  14.262  0.4939 -0.4991  0.0805
  818TIP3   OH223868   2.369   4.323  15.626  0.1851 -0.0080 -0.7131
  818TIP3    H123869   2.297   4.338  15.564  1.3035  1.3629 -1.7316
  818TIP3    H223870   2.356   4.232  15.655 -0.5474 -0.6202 -2.7481
  819TIP3   OH223871   0.457   2.318  17.238 -0.2183 -0.3180 -0.2494
  819TIP3    H123872   0.424   2.258  17.305 -2.8737  1.5595  0.2728
  819TIP3    H223873   0.529   2.364  17.281 -0.7026 -0.4213  0.6958
  820TIP3   OH223874   1.168   0.497   4.702 -0.4094 -0.3073  0.0466
  820TIP3    H123875   1.191   0.409   4.731  0.3511 -0.4618 -0.9698
  820TIP3    H223876   1.249   0.548   4.712 -0.1658 -0.3260 -1.5650
  821TIP3   OH223877   0.547   2.256   3.111 -0.7751  0.1357 -0.0204
  821TIP3    H123878   0.451   2.256   3.121 -0.7103  1.2636  0.7992
  821TIP3    H223879   0.578   2.192   3.175 -0.9064  0.7798  0.6965
  822TIP3   OH223880   1.912   2.389   3.698  0.3446  0.2667  0.7238
  822TIP3    H123881   1.849   2.456   3.725  0.3491 -0.3848  2.5164
  822TIP3    H223882   1.943   2.418   3.612 -0.4618  1.9705  0.9626
  823TIP3   OH223883   4.584   5.432  13.203  0.0499 -0.0179  0.0344
  823TIP3    H123884   4.500   5.461  13.238  0.2485 -1.2893  1.6826
  823TIP3    H223885   4.648   5.489  13.246  0.2018 -0.7436  0.7895
  824TIP3   OH223886   0.679   6.103  16.382 -0.0745 -0.5434  0.7118
  824TIP3    H123887   0.588   6.121  16.405 -0.5163 -2.1506  0.3955
  824TIP3    H223888   0.708   6.039  16.448  0.4807 -0.8276  0.2021
  825TIP3   OH223889   4.433   2.231   5.623  0.1253  0.4099  0.8636
  825TIP3    H123890   4.476   2.190   5.698 -0.5138 -0.3218  0.8440
  825TIP3    H223891   4.434   2.163   5.555  0.1253  0.8451  0.4199
  826TIP3   OH223892   6.636   4.659  13.896  0.5875 -0.1856  0.3602
  826TIP3    H123893   6.616   4.681  13.805 -2.6290 -1.5922  0.6058
  826TIP3    H223894   6.565   4.698  13.946 -0.1786 -3.1031  1.7486
  827TIP3   OH223895   4.329   1.420   3.893  0.1736 -0.5492 -0.4486
  827TIP3    H123896   4.247   1.371   3.890 -0.1901 -0.0055  0.2047
  827TIP3    H223897   4.316   1.483   3.964  0.5644  0.5807 -1.3519
  828TIP3   OH223898   2.316   3.272   1.588  0.6749  0.1592 -0.0363
  828TIP3    H123899   2.299   3.187   1.548  1.1335 -0.8786  1.8475
  828TIP3    H223900   2.269   3.334   1.533 -1.8858 -1.5888 -0.0297
  829TIP3   OH223901   1.986   5.595  12.032 -0.1902 -0.3301 -0.6347
  829TIP3    H123902   2.078   5.621  12.030  0.0814 -1.2063 -0.2216
  829TIP3    H223903   1.939   5.671  12.066  0.6784 -0.6207  1.3396
  830TIP3   OH223904   3.353   4.419  16.232 -1.2534 -0.0235  0.0349
  830TIP3    H123905   3.437   4.422  16.278 -1.1713  2.4587 -0.1846
  830TIP3    H223906   3.292   4.385  16.298 -0.9597  2.5827  1.7822
  831TIP3   OH223907   2.217   4.056   1.793  0.2431 -0.2410 -0.0243
  831TIP3    H123908   2.231   4.017   1.707  1.2334 -0.9892  0.4553
  831TIP3    H223909   2.239   3.986   1.855  0.8953  0.7036  0.8422
  832TIP3   OH223910   3.373   5.863   3.379  0.6913 -0.0072  0.2227
  832TIP3    H123911   3.298   5.818   3.419 -1.6598  2.4103 -1.1715
  832TIP3    H223912   3.441   5.857   3.446 -2.1451  1.5195  3.6119
  833TIP3   OH223913   5.057   6.716   5.491  0.8252  0.0456 -0.1874
  833TIP3    H123914   5.085   6.803   5.522  0.5668  0.6759 -1.6411
  833TIP3    H223915   5.095   6.655   5.554 -1.3695  1.3106  2.6304
  834TIP3   OH223916   6.100   0.313  10.513  0.2761  0.6006 -0.1682
  834TIP3    H123917   6.092   0.408  10.522 -0.5430  0.6545 -1.2570
  834TIP3    H223918   6.173   0.290  10.570  0.2525  1.8343  0.3934
  835TIP3   OH223919   5.650   2.285   1.016  0.3172  0.6227 -0.2376
  835TIP3    H123920   5.590   2.350   0.981  0.1881  0.7613  0.2321
  835TIP3    H223921   5.673   2.230   0.941 -2.8511 -1.4034  0.0968
  836TIP3   OH223922   1.896   1.870  11.104  0.6837  0.1902  0.3502
  836TIP3    H123923   1.842   1.792  11.113 -1.6449  1.6058 -0.3755
  836TIP3    H223924   1.873   1.925  11.179 -0.2653  1.5410 -0.8592
  837TIP3   OH223925   2.166   2.294   4.959  0.1498 -0.6812  0.5087
  837TIP3    H123926   2.123   2.209   4.964 -2.3163  0.4132 -0.4511
  837TIP3    H223927   2.203   2.297   4.871 -1.3077 -0.1318 -0.1154
  838TIP3   OH223928   2.762   4.717  12.566 -0.2251 -0.6488  0.0969
  838TIP3    H123929   2.821   4.741  12.638  2.1776  1.4706 -2.3338
  838TIP3    H223930   2.687   4.774  12.577  0.4154  0.1308  0.5830
  839TIP3   OH223931   0.912   2.538  13.292  0.1548  0.1102  0.1102
  839TIP3    H123932   0.927   2.447  13.267  0.5247  0.3045 -0.3994
  839TIP3    H223933   0.996   2.565  13.331 -0.1642  0.0427  0.8645
  840TIP3   OH223934   4.798   2.215   4.167  0.5715  0.1114  0.3091
  840TIP3    H123935   4.783   2.122   4.186 -0.0771  0.0150 -0.5897
  840TIP3    H223936   4.720   2.259   4.201  0.9401  0.3582  0.8579
  841TIP3   OH223937   5.350   3.539  12.534 -0.0206 -0.1866  0.3236
  841TIP3    H123938   5.318   3.611  12.480  0.4571 -0.3395 -0.1735
  841TIP3    H223939   5.370   3.579  12.619 -0.4678  0.1158  0.2893
  842TIP3   OH223940   2.827   1.767  15.275  0.1292  0.6763  0.6128
  842TIP3    H123941   2.752   1.778  15.217  0.6643 -0.0567 -0.2337
  842TIP3    H223942   2.825   1.674  15.299 -0.9141  1.2237  2.9397
  843TIP3   OH223943   1.328   1.326  14.308 -0.1391 -0.4442 -0.2482
  843TIP3    H123944   1.355   1.330  14.400 -0.5897 -2.7535  0.0675
  843TIP3    H223945   1.232   1.327  14.312 -0.1629 -0.8827 -0.6468
  844TIP3   OH223946   4.332   6.413  10.766  0.4951 -0.8538 -0.0740
  844TIP3    H123947   4.246   6.372  10.759  0.5481 -1.0077  0.1823
  844TIP3    H223948   4.336   6.474  10.692  0.2163 -0.9387 -0.1576
  845TIP3   OH223949   0.251   0.931   4.113 -0.4055 -0.7106 -0.7067
  845TIP3    H123950   0.227   0.878   4.189  1.1821  0.0616  0.3787
  845TIP3    H223951   0.217   0.881   4.038 -0.4495 -2.4006  0.3778
  846TIP3   OH223952   3.130   3.411   3.475 -0.1984  0.0497 -0.6442
  846TIP3    H123953   3.108   3.502   3.491 -2.4458 -0.6580  0.7609
  846TIP3    H223954   3.076   3.361   3.537  0.0889 -2.2872 -2.1230
  847TIP3   OH223955   5.228   1.221   2.987  0.3099  0.7750  0.2467
  847TIP3    H123956   5.165   1.171   2.934  1.3454 -1.8093  1.2988
  847TIP3    H223957   5.173   1.276   3.043 -1.2121 -2.3168  2.0354
  848TIP3   OH223958   3.456   5.982   5.556  0.0629  0.1930 -0.1558
  848TIP3    H123959   3.382   5.922   5.561  0.1566 -0.0250 -1.1469
  848TIP3    H223960   3.531   5.927   5.531  0.7834  0.2488  1.7521
  849TIP3   OH223961   3.360   1.588   4.126  0.1121  0.2059  0.0951
  849TIP3    H123962   3.392   1.671   4.089 -1.3941  0.1184 -1.5540
  849TIP3    H223963   3.270   1.606   4.151  0.7863 -0.0337  3.0137
  850TIP3   OH223964   2.090   1.353   4.295 -0.5604  0.8478  0.4198
  850TIP3    H123965   2.032   1.379   4.367  1.2530 -1.4768  2.9319
  850TIP3    H223966   2.163   1.414   4.300 -1.0575  1.5310 -0.3967
  851TIP3   OH223967   2.588   6.200  13.871 -0.6650  0.2156 -0.1830
  851TIP3    H123968   2.525   6.191  13.799  1.8873 -0.4526 -2.4825
  851TIP3    H223969   2.620   6.111  13.886 -0.9311  0.3982  1.6191
  852TIP3   OH223970   3.126   1.038   6.034  0.5882  0.0613  0.0093
  852TIP3    H123971   3.047   1.019   5.983  0.2894  0.5161  0.2956
  852TIP3    H223972   3.099   1.030   6.125  1.3440 -1.6505  0.1292
  853TIP3   OH223973   5.325   1.395  12.470  0.1092  0.3695 -0.0905
  853TIP3    H123974   5.279   1.473  12.440  0.7161  2.1734  3.2292
  853TIP3    H223975   5.402   1.389  12.414 -0.5825  1.3974 -1.1921
  854TIP3   OH223976   6.384   6.234   0.962 -0.3340 -0.1665 -0.3280
  854TIP3    H123977   6.334   6.186   0.896  1.0971 -0.6380 -1.1078
  854TIP3    H223978   6.460   6.179   0.980 -1.2665 -0.6665  2.6746
  855TIP3   OH223979   2.041   5.171   3.384 -0.0421  0.2929  0.1269
  855TIP3    H123980   1.958   5.130   3.407  0.7281 -0.9011  0.8816
  855TIP3    H223981   2.057   5.235   3.453 -0.4953  0.7948 -0.2215
  856TIP3   OH223982   1.104   2.251  16.314  0.3197  0.0420  0.0290
  856TIP3    H123983   1.151   2.296  16.384 -0.1575  0.2103  0.2448
  856TIP3    H223984   1.101   2.315  16.242  1.3115 -0.3321 -0.3694
  857TIP3   OH223985   1.670   3.615  16.506 -0.2881  0.4400  0.0967
  857TIP3    H123986   1.666   3.521  16.491  1.9535  0.3925 -0.7033
  857TIP3    H223987   1.592   3.636  16.557  0.3631 -2.2448  2.3909
  858TIP3   OH223988   1.327   5.647  17.054  1.1033  0.2539  0.0771
  858TIP3    H123989   1.279   5.665  17.134  2.4288  0.4202  0.8685
  858TIP3    H223990   1.278   5.692  16.985 -0.5097 -0.5863  0.6450
  859TIP3   OH223991   4.022   3.176  12.877 -0.3167 -0.0784  1.0258
  859TIP3    H123992   4.026   3.264  12.839  2.4764 -0.7434 -0.4855
  859TIP3    H223993   4.102   3.169  12.930 -1.2610 -1.2170  2.3940
  860TIP3   OH223994   2.195   2.571   5.083  0.0096  0.2172 -0.0603
  860TIP3    H123995   2.142   2.598   5.158  0.1967 -1.9175  0.9026
  860TIP3    H223996   2.145   2.501   5.042  0.3359  0.7504 -1.4418
  861TIP3   OH223997   1.602   1.674  11.709 -0.3959 -0.2212  0.4696
  861TIP3    H123998   1.517   1.696  11.670 -0.7553 -2.8721 -0.4602
  861TIP3    H223999   1.580   1.639  11.795  0.0833  1.9036  1.5258
  862TIP3   OH224000   0.536   2.736   0.015  0.2321 -0.3333  0.1552
  862TIP3    H124001   0.575   2.754   0.101 -0.0703  1.0523  0.0260
  862TIP3    H224002   0.445   2.764   0.024  0.5648  1.2608 -1.0362
  863TIP3   OH224003   0.846   2.625  11.064 -0.3682 -0.1797 -0.1273
  863TIP3    H124004   0.845   2.696  11.001 -0.9374  0.1764  0.2775
  863TIP3    H224005   0.777   2.647  11.127 -1.1505 -1.5175 -0.4823
  864TIP3   OH224006   6.521   3.729  15.882  0.0950  0.2884 -0.2460
  864TIP3    H124007   6.445   3.702  15.933 -0.0611  0.7520 -0.2266
  864TIP3    H224008   6.567   3.648  15.861 -1.0769 -0.1332 -1.3186
  865TIP3   OH224009   3.970   6.629  11.373  0.2309  0.0638  0.1740
  865TIP3    H124010   3.939   6.597  11.288 -0.4807  1.2946 -0.0534
  865TIP3    H224011   4.041   6.689  11.352  0.5392 -0.1899  0.4928
  866TIP3   OH224012   2.291   2.244   5.235  0.2372 -0.0999  0.0009
  866TIP3    H124013   2.361   2.179   5.226  2.0587  1.7003  0.3845
  866TIP3    H224014   2.249   2.244   5.149  1.8323 -0.0563 -0.8312
  867TIP3   OH224015   4.030   3.900  12.292  0.0275 -0.2716 -0.7433
  867TIP3    H124016   3.938   3.923  12.302  0.2709  0.3252  0.1248
  867TIP3    H224017   4.030   3.804  12.284 -0.7013 -0.2367 -1.2714
  868TIP3   OH224018   3.873   1.300   2.742 -0.3736 -0.0594  0.4174
  868TIP3    H124019   3.903   1.217   2.705 -0.2205 -0.3778  1.2325
  868TIP3    H224020   3.815   1.337   2.675  1.1601  0.1695 -0.8367
  869TIP3   OH224021   0.007   6.552  14.872  0.5278  0.0388  0.0738
  869TIP3    H124022  -0.042   6.479  14.836 -0.8048  1.5596 -1.3979
  869TIP3    H224023   0.087   6.556  14.818 -0.0882  0.5151 -0.8367
  870TIP3   OH224024   0.139   6.118  11.550 -0.4621 -0.8622  0.0378
  870TIP3    H124025   0.197   6.153  11.618 -1.9916 -0.9297  1.4364
  870TIP3    H224026   0.107   6.035  11.587 -0.3780 -1.5114 -1.3087
  871TIP3   OH224027   4.406   2.064   2.264  0.2434 -0.0966  0.2226
  871TIP3    H124028   4.407   2.160   2.263  0.4507 -0.0979 -0.1779
  871TIP3    H224029   4.423   2.041   2.355  1.3874  0.2495  0.1137
  872TIP3   OH224030   3.367   3.254   4.234 -0.0113  0.0987  0.0701
  872TIP3    H124031   3.290   3.271   4.181  0.3633 -2.7880 -1.5771
  872TIP3    H224032   3.339   3.189   4.298  1.1793 -1.7744 -1.2001
  873TIP3   OH224033   1.340   2.525   5.590  0.1296 -0.5324 -0.6077
  873TIP3    H124034   1.297   2.501   5.671 -0.1688 -0.6907 -0.8091
  873TIP3    H224035   1.268   2.545   5.530  0.3287  2.3067 -0.0341
  874TIP3   OH224036   6.015   6.580  15.454 -0.1771  0.1672  0.0617
  874TIP3    H124037   5.933   6.574  15.406 -0.5208 -0.1581  0.6719
  874TIP3    H224038   6.061   6.655  15.415  0.0447 -0.7254 -1.4865
  875TIP3   OH224039   5.900   1.852   5.381  0.0947 -0.5624 -0.5201
  875TIP3    H124040   5.869   1.889   5.464 -0.7017 -2.0936 -0.0895
  875TIP3    H224041   5.823   1.852   5.325  0.9868  1.9549 -1.8947
  876TIP3   OH224042   2.877   5.937  14.619  0.3634 -0.0891 -0.4091
  876TIP3    H124043   2.801   5.882  14.597  0.1579  0.8662 -2.2990
  876TIP3    H224044   2.839   6.015  14.659  0.6999 -1.5206  3.0291
  877TIP3   OH224045   6.670   3.808  14.134  0.0750  0.3036 -0.1472
  877TIP3    H124046   6.663   3.885  14.079 -1.1221  0.7452  0.5797
  877TIP3    H224047   6.753   3.768  14.109  0.0098  1.0000 -1.5777
  878TIP3   OH224048   0.787   2.267   3.872 -0.2896  0.3248  0.5390
  878TIP3    H124049   0.813   2.286   3.782  0.7488  2.3944  1.2109
  878TIP3    H224050   0.866   2.284   3.924 -0.8400 -0.9201  1.8491
  879TIP3   OH224051   1.343   0.664   3.306  0.5884  0.0238  0.2221
  879TIP3    H124052   1.350   0.574   3.273  2.0961  0.3992 -0.5545
  879TIP3    H224053   1.318   0.716   3.230  0.0923  0.3410  0.5895
  880TIP3   OH224054   1.618   2.555  13.518  0.3195 -0.5284 -0.1103
  880TIP3    H124055   1.685   2.548  13.450  0.6983  1.2574  0.0433
  880TIP3    H224056   1.666   2.578  13.597 -0.5170  1.7827 -0.2090
  881TIP3   OH224057   1.480   2.518   3.252  0.6730 -0.3749 -0.5570
  881TIP3    H124058   1.406   2.549   3.304  0.9840  0.6885 -0.7302
  881TIP3    H224059   1.525   2.456   3.309 -0.1527 -0.7889 -0.3279
  882TIP3   OH224060   6.041   4.949  14.517 -0.2321 -0.9584  0.3912
  882TIP3    H124061   6.127   4.907  14.517  0.1087 -0.3117  1.4768
  882TIP3    H224062   6.059   5.042  14.499 -0.9327 -1.1438 -1.5373
  883TIP3   OH224063   3.805   1.598   4.332 -0.1468 -0.4379 -0.3849
  883TIP3    H124064   3.743   1.641   4.272  0.7519  0.4004 -0.7387
  883TIP3    H224065   3.787   1.505   4.322 -2.7092 -0.1803  1.0047
  884TIP3   OH224066   5.375   4.906   5.728 -0.1517  0.0527 -0.3627
  884TIP3    H124067   5.436   4.832   5.730 -0.5608 -0.3632 -1.8726
  884TIP3    H224068   5.289   4.866   5.712 -0.3132  0.8697 -1.6727
  885TIP3   OH224069   0.095   4.642   5.200  0.4012 -0.5051 -0.2083
  885TIP3    H124070   0.138   4.687   5.273  0.6269  1.1571 -1.3031
  885TIP3    H224071   0.044   4.572   5.242  1.4538 -0.3610  1.4186
  886TIP3   OH224072   2.905   0.821  12.663  0.2468 -0.2460  0.2242
  886TIP3    H124073   2.863   0.789  12.743 -0.1811  0.5824  0.3398
  886TIP3    H224074   2.983   0.868  12.694 -0.2304  0.5743  0.2068
  887TIP3   OH224075   0.048   1.799  17.130 -0.0648 -0.7577 -0.2532
  887TIP3    H124076   0.001   1.802  17.213 -0.4184  1.3510 -0.4671
  887TIP3    H224077   0.124   1.743  17.148 -2.3230 -3.9172  0.2021
  888TIP3   OH224078   3.038   3.372   0.809  0.1814  0.1628 -0.1978
  888TIP3    H124079   3.127   3.340   0.821  0.2818  0.6307  0.3227
  888TIP3    H224080   3.028   3.381   0.714  1.0283  1.0668 -0.2086
  889TIP3   OH224081   1.785   5.221   2.122 -0.3994  0.1466  0.5855
  889TIP3    H124082   1.726   5.180   2.059 -0.3326 -2.1877  1.9499
  889TIP3    H224083   1.732   5.289   2.164 -1.2424 -0.0696 -0.1100
  890TIP3   OH224084   2.559   2.679   3.644 -0.2747 -0.0091 -0.7489
  890TIP3    H124085   2.517   2.724   3.570  1.0463  0.1156 -1.4470
  890TIP3    H224086   2.494   2.684   3.714 -1.3026  0.4521 -1.6875
  891TIP3   OH224087   0.158   0.839   2.966 -0.4287 -0.0734  0.3538
  891TIP3    H124088   0.150   0.842   2.871 -0.0755 -0.8995  0.2866
  891TIP3    H224089   0.101   0.767   2.993 -1.2760  0.7682  0.8700
  892TIP3   OH224090   0.956   2.999  16.046  0.5317 -0.4785  0.2571
  892TIP3    H124091   0.930   2.990  16.138  0.1570  1.4725  0.4015
  892TIP3    H224092   0.906   3.075  16.015  0.8801 -0.9212 -1.4792
  893TIP3   OH224093   1.782   4.549   4.528 -0.6211 -0.3997 -0.3221
  893TIP3    H124094   1.759   4.485   4.596 -0.4948  0.2932  0.3847
  893TIP3    H224095   1.706   4.607   4.523  0.1546  0.7583  0.6813
  894TIP3   OH224096   1.864   3.894  14.595 -0.1207  0.1217 -0.0189
  894TIP3    H124097   1.815   3.908  14.514 -1.2736  0.0639  0.6455
  894TIP3    H224098   1.942   3.846  14.568 -0.4127  0.2323 -1.1058
  895TIP3   OH224099   6.728   4.433  17.100 -0.0055 -0.3650  0.1740
  895TIP3    H124100   6.787   4.452  17.173  3.1020  0.7928 -2.4344
  895TIP3    H224101   6.692   4.518  17.075  1.0604 -0.3066 -1.2555
  896TIP3   OH224102   2.453   0.276  12.519  0.4311 -0.1879 -0.0114
  896TIP3    H124103   2.510   0.314  12.453  0.2914 -0.3905 -0.2510
  896TIP3    H224104   2.501   0.285  12.601  0.3306  0.6402 -0.0392
  897TIP3   OH224105   1.482   4.356  12.008 -0.1117  0.4685  0.2116
  897TIP3    H124106   1.473   4.376  12.102  1.2799  0.0811  0.4496
  897TIP3    H224107   1.520   4.269  12.006 -0.5288  0.3060 -0.7351
  898TIP3   OH224108   2.983   4.599  11.011  0.0652 -0.2161 -0.2870
  898TIP3    H124109   2.922   4.525  11.010  1.3269 -1.2935 -0.3855
  898TIP3    H224110   2.998   4.616  11.104 -1.9731  1.4654 -0.1945
  899TIP3   OH224111   3.437   5.650  13.387 -0.4367  0.5704  0.2611
  899TIP3    H124112   3.420   5.588  13.458 -0.3519  1.1425  0.7836
  899TIP3    H224113   3.476   5.597  13.318  1.0564  0.2949  1.2726
  900TIP3   OH224114   0.096   0.030  17.235  0.3896  0.6972  0.0970
  900TIP3    H124115   0.165   0.086  17.271  0.9755  1.7500 -2.3939
  900TIP3    H224116   0.032   0.091  17.199 -0.1045 -0.2541 -0.6838
  901TIP3   OH224117   5.494   4.137   3.644  0.5576 -0.4588 -0.3148
  901TIP3    H124118   5.421   4.190   3.678  0.0719 -1.1083 -0.3278
  901TIP3    H224119   5.520   4.083   3.718 -0.2320 -1.5834 -0.8255
  902TIP3   OH224120   3.072   5.728   0.574  0.5296  0.0450 -0.1982
  902TIP3    H124121   3.086   5.822   0.565  0.5803  0.0119 -0.4647
  902TIP3    H224122   3.151   5.697   0.619  1.1774 -0.0874 -1.3920
  903TIP3   OH224123   6.509   3.160  17.221  0.0996 -0.7361  0.4850
  903TIP3    H124124   6.480   3.157  17.312  2.1787  1.5672  1.3764
  903TIP3    H224125   6.502   3.253  17.197  3.6201 -0.4748 -0.1246
  904TIP3   OH224126   5.948   6.389  14.648 -0.0632  0.5444 -0.2713
  904TIP3    H124127   5.924   6.430  14.730 -0.2854  0.4119 -0.2687
  904TIP3    H224128   6.026   6.337  14.668 -0.2477  0.3353 -0.0935
  905TIP3   OH224129   6.398   0.803  12.213 -0.0092  0.0801 -0.4122
  905TIP3    H124130   6.344   0.782  12.136  0.3024 -0.7264 -0.4180
  905TIP3    H224131   6.443   0.884  12.189 -1.6865  1.1480 -0.1628
  906TIP3   OH224132   1.837   0.147  14.577 -0.2627  0.0822 -0.6405
  906TIP3    H124133   1.896   0.073  14.565 -0.1291  0.2561 -1.0483
  906TIP3    H224134   1.791   0.156  14.493 -0.8223 -0.0130 -0.3508
  907TIP3   OH224135   6.655   5.675   2.621  0.4706 -0.0233 -0.2458
  907TIP3    H124136   6.561   5.690   2.609  0.3262 -0.6864  0.0297
  907TIP3    H224137   6.684   5.747   2.676  0.2247  0.4556 -0.7278
  908TIP3   OH224138   5.840   3.064   3.569 -0.3698  0.2292 -0.4178
  908TIP3    H124139   5.783   2.995   3.600  0.5107  0.0733  0.9439
  908TIP3    H224140   5.865   3.037   3.481 -0.1461 -1.1311  0.0381
  909TIP3   OH224141   3.918   1.513   0.225  0.3340  0.2018 -0.0705
  909TIP3    H124142   3.889   1.481   0.310  2.0855  1.3291  1.0425
  909TIP3    H224143   3.880   1.601   0.218  0.2085  0.1196 -0.4429
  910TIP3   OH224144   0.636   0.977   4.552  0.0839  0.3000 -0.3721
  910TIP3    H124145   0.562   1.000   4.608  0.8987  1.4605  0.2813
  910TIP3    H224146   0.605   0.904   4.499 -1.3902  0.5075  0.1662
  911TIP3   OH224147   5.730   1.611  12.389  0.2959  0.0812  0.0404
  911TIP3    H124148   5.715   1.528  12.344 -0.5100  0.1086  0.2501
  911TIP3    H224149   5.667   1.612  12.461  0.5122  0.7357  0.2325
  912TIP3   OH224150   2.293   6.621   5.782 -0.2469 -0.1393  0.1383
  912TIP3    H124151   2.233   6.617   5.707 -1.1836 -0.9213  0.9073
  912TIP3    H224152   2.261   6.695   5.834 -0.3838 -0.3764  0.3989
  913TIP3   OH224153   0.461   2.979   0.886  0.8378  0.3317 -0.2577
  913TIP3    H124154   0.463   2.885   0.865  1.0307  0.8733 -3.0815
  913TIP3    H224155   0.372   3.006   0.862  1.6792  1.3838 -2.4847
  914TIP3   OH224156   2.445   3.073  14.389 -0.6320  0.4717 -0.7338
  914TIP3    H124157   2.362   3.030  14.366 -0.3495 -0.0506 -0.7858
  914TIP3    H224158   2.467   3.038  14.475  0.6189 -1.0400 -1.6214
  915TIP3   OH224159   0.385   3.061  17.049  0.1201 -0.1291 -0.1264
  915TIP3    H124160   0.298   3.080  17.084  0.7840 -0.2670  1.7225
  915TIP3    H224161   0.402   2.970  17.074  0.3099 -0.5249 -1.5982
  916TIP3   OH224162   4.709   3.551  13.748  0.0659 -0.4707  0.2935
  916TIP3    H124163   4.754   3.614  13.805 -1.5406  2.3258 -1.2855
  916TIP3    H224164   4.638   3.516  13.802 -0.2276  0.6322  0.6583
  917TIP3   OH224165   0.769   6.693   3.384  0.2999 -0.3426 -0.5233
  917TIP3    H124166   0.777   6.711   3.291 -0.6484  0.9418 -0.3691
  917TIP3    H224167   0.833   6.751   3.426 -0.2955  0.1419 -0.2754
  918TIP3   OH224168   0.851   2.196   1.384  0.6608  0.0002 -0.0905
  918TIP3    H124169   0.799   2.217   1.306  0.1127  0.5979  0.4215
  918TIP3    H224170   0.786   2.190   1.454  1.0696 -1.1805  0.2144
  919TIP3   OH224171   5.473   3.987   4.813 -0.8046 -0.3853 -0.0828
  919TIP3    H124172   5.459   3.892   4.812 -1.6986 -0.3184  2.1001
  919TIP3    H224173   5.385   4.025   4.811 -0.4454  0.4590 -1.5721
  920TIP3   OH224174   3.964   2.485   4.402  0.0004  0.2315 -0.6672
  920TIP3    H124175   4.032   2.483   4.335 -0.4739 -0.3438 -1.1465
  920TIP3    H224176   3.916   2.403   4.390 -0.8133  0.6557 -0.3900
  921TIP3   OH224177   5.073   5.241   1.061 -0.0631  0.1695 -0.2526
  921TIP3    H124178   4.984   5.210   1.044 -0.4268  0.5880  0.8145
  921TIP3    H224179   5.087   5.310   0.997 -1.2081  1.3626  0.7360
  922TIP3   OH224180   1.971   6.025   0.351 -0.1993 -0.4893 -0.2421
  922TIP3    H124181   2.000   5.966   0.281 -0.2487  1.9947 -2.5069
  922TIP3    H224182   2.052   6.068   0.380 -0.3823 -0.4318  0.1731
  923TIP3   OH224183   5.444   5.205   0.695  0.0237 -0.0760 -0.1319
  923TIP3    H124184   5.498   5.141   0.647 -0.9495 -0.6665 -0.4650
  923TIP3    H224185   5.364   5.212   0.643  0.3688  1.9357 -0.4627
  924TIP3   OH224186   5.275   5.154   4.954  0.0621 -0.3107  0.2922
  924TIP3    H124187   5.254   5.097   4.881 -0.3150 -0.7765  0.7536
  924TIP3    H224188   5.190   5.182   4.988  0.2400  0.5105  0.0902
  925TIP3   OH224189   0.975   5.086  12.156  0.1146 -0.0013 -0.1580
  925TIP3    H124190   0.896   5.079  12.103 -0.1835  1.4074  0.0633
  925TIP3    H224191   0.947   5.132  12.235  1.1459  0.4507 -0.0447
  926TIP3   OH224192   2.282   3.106  16.720 -0.3281  0.7349 -0.4463
  926TIP3    H124193   2.228   3.085  16.644 -1.4569  2.7965 -0.3000
  926TIP3    H224194   2.308   3.198  16.707  0.4097  0.7872  1.0874
  927TIP3   OH224195   3.041   3.606   0.136 -0.2976 -0.6656  0.3137
  927TIP3    H124196   3.137   3.602   0.140 -0.3412 -2.1987  0.4850
  927TIP3    H224197   3.022   3.633   0.046  0.2952  1.7026  0.8439
  928TIP3   OH224198   3.047   5.382   4.399 -0.7515 -0.0277  0.0308
  928TIP3    H124199   3.043   5.318   4.470 -2.6669  1.7523  1.6734
  928TIP3    H224200   3.015   5.334   4.322  1.4171 -2.0117  0.2724
  929TIP3   OH224201   3.370   1.617   5.537 -0.0870 -0.0417 -0.1612
  929TIP3    H124202   3.319   1.540   5.561 -0.2449 -0.0353 -0.4716
  929TIP3    H224203   3.339   1.686   5.596 -0.1935 -0.1263 -0.1183
  930TIP3   OH224204   6.268   6.402  13.446 -0.0090 -0.5651  0.0889
  930TIP3    H124205   6.287   6.310  13.430  2.1930 -0.3763  1.2622
  930TIP3    H224206   6.332   6.449  13.392  0.4314  0.2254  1.2720
  931TIP3   OH224207   0.870   6.672   4.148  0.3139  0.2864  0.3035
  931TIP3    H124208   0.896   6.661   4.239 -1.0787  1.0947  0.8278
  931TIP3    H224209   0.914   6.751   4.119  0.2163  0.4080  0.4896
  932TIP3   OH224210   3.622   1.848  15.988 -0.0655  0.3273 -0.4464
  932TIP3    H124211   3.650   1.939  15.991  1.2098 -0.0421 -0.7011
  932TIP3    H224212   3.644   1.813  16.074  0.0454  0.0960 -0.5666
  933TIP3   OH224213   2.647   0.812   3.134  0.6823 -0.4526  0.1565
  933TIP3    H124214   2.710   0.779   3.071  1.3828  0.3203  0.4356
  933TIP3    H224215   2.615   0.734   3.179  0.3396 -0.9915 -0.9845
  934TIP3   OH224216   4.489   5.345  16.079  0.1845  0.1052  0.3987
  934TIP3    H124217   4.472   5.371  16.169 -2.1021  0.4316 -0.0760
  934TIP3    H224218   4.487   5.427  16.029  0.6175 -0.1619 -0.0712
  935TIP3   OH224219   2.972   2.201   4.267 -0.5555  0.2984 -0.1294
  935TIP3    H124220   2.910   2.128   4.274  0.4217 -0.4607  0.8223
  935TIP3    H224221   3.016   2.187   4.183  0.2622 -0.7405  0.4480
  936TIP3   OH224222   1.152   3.094  15.685 -1.0463  0.0750  0.9596
  936TIP3    H124223   1.170   3.184  15.655  1.8619 -1.4728 -2.7710
  936TIP3    H224224   1.229   3.071  15.738  0.7516 -1.5689 -2.0885
  937TIP3   OH224225   3.051   2.415   6.492  0.1856 -0.5003  0.3790
  937TIP3    H124226   3.082   2.501   6.518  0.5302  0.1448 -1.9063
  937TIP3    H224227   3.079   2.357   6.562  0.8258  1.0828  1.4956
  938TIP3   OH224228   3.619   6.696  16.479 -0.1977  0.2954 -0.6222
  938TIP3    H124229   3.532   6.655  16.476  0.3481 -0.8949 -0.7792
  938TIP3    H224230   3.680   6.622  16.472  0.8371  1.0195  0.4000
  939TIP3   OH224231   4.377   6.457  13.363 -0.3388  0.6846 -0.1222
  939TIP3    H124232   4.416   6.478  13.278  0.0521  1.0370  0.1415
  939TIP3    H224233   4.364   6.542  13.405  3.6390  0.4474  2.0469
  940TIP3   OH224234   6.612   5.652   4.190  0.2152 -0.0957 -0.4912
  940TIP3    H124235   6.577   5.733   4.226 -1.1124 -1.2186  0.8926
  940TIP3    H224236   6.556   5.632   4.116  0.6068  0.2964 -0.8953
  941TIP3   OH224237   2.611   5.764   6.280  0.3696 -0.3181 -0.3683
  941TIP3    H124238   2.566   5.792   6.360  1.1666  0.5466 -0.2067
  941TIP3    H224239   2.540   5.740   6.220 -0.4339  2.1605 -0.5481
  942TIP3   OH224240   3.139   2.876   2.560  0.1921  0.2193  0.4900
  942TIP3    H124241   3.167   2.911   2.645  1.5598  0.1010  0.1241
  942TIP3    H224242   3.068   2.934   2.532 -0.7769 -0.1786  2.0270
  943TIP3   OH224243   4.985   4.957   0.600  0.0938 -0.3082 -0.0949
  943TIP3    H124244   4.971   4.913   0.516  0.6908 -0.9886  0.1633
  943TIP3    H224245   4.985   5.050   0.577  1.1830 -0.5026 -1.0002
  944TIP3   OH224246   6.529   2.909  13.924  0.8781 -0.8515 -0.1533
  944TIP3    H124247   6.463   2.900  13.856  1.0809 -1.0985 -0.3154
  944TIP3    H224248   6.565   2.821  13.935 -0.1508 -1.1392  1.2762
  945TIP3   OH224249   2.360   3.054  14.649  0.1841 -0.0650 -0.0349
  945TIP3    H124250   2.297   3.102  14.703 -2.3549 -2.0602 -0.9854
  945TIP3    H224251   2.359   2.965  14.685  1.9130 -0.3352 -0.5850
  946TIP3   OH224252   4.118   6.605  15.957  0.1552 -0.1529  0.1196
  946TIP3    H124253   4.093   6.623  16.048  0.1097 -0.6442  0.2099
  946TIP3    H224254   4.142   6.690  15.921 -0.8724  0.2209  0.2690
  947TIP3   OH224255   2.605   4.420  12.261 -0.0679  0.3424  0.4521
  947TIP3    H124256   2.625   4.393  12.171  1.7631 -1.4205  1.3179
  947TIP3    H224257   2.514   4.450  12.257 -0.0406  0.3140 -1.9767
  948TIP3   OH224258   5.468   6.099  13.154  0.0235  0.0490  0.3710
  948TIP3    H124259   5.508   6.027  13.105  2.1875  0.7332  0.9839
  948TIP3    H224260   5.541   6.159  13.171 -1.1568  1.0561  2.2232
  949TIP3   OH224261   6.714   1.756  16.571  0.1285  0.4127  0.0258
  949TIP3    H124262   6.808   1.737  16.572 -0.1520 -1.0182  0.5630
  949TIP3    H224263   6.693   1.764  16.478  0.6573  0.0778 -0.1296
  950TIP3   OH224264   6.148   5.286  11.842  0.2195  0.3664  0.2517
  950TIP3    H124265   6.056   5.312  11.839  0.3222  0.7493  0.3776
  950TIP3    H224266   6.173   5.277  11.750 -0.4117 -1.4525  0.2138
  951TIP3   OH224267   1.022   1.806   6.093  0.0116  0.2716  0.1855
  951TIP3    H124268   0.964   1.859   6.148  1.3077  0.0496  1.8911
  951TIP3    H224269   1.071   1.870   6.041 -1.1676  0.4952 -0.6881
  952TIP3   OH224270   0.612   2.279   2.849  0.1181  0.0293 -0.1244
  952TIP3    H124271   0.579   2.204   2.800  1.1562  1.0962 -2.6565
  952TIP3    H224272   0.579   2.267   2.938  0.3099 -3.4069 -0.4120
  953TIP3   OH224273   4.385   3.728  16.735 -0.6685  0.0445  0.4847
  953TIP3    H124274   4.476   3.755  16.725 -0.3464 -1.3160 -0.6227
  953TIP3    H224275   4.337   3.780  16.670 -1.1987  2.7244  2.8290
  954TIP3   OH224276   4.957   1.007  17.301 -0.3535 -0.1190 -0.7023
  954TIP3    H124277   5.036   0.952  17.299 -1.5519 -1.9704  0.1690
  954TIP3    H224278   4.981   1.081  17.358  0.9581 -0.3020 -0.9869
  955TIP3   OH224279   2.092   2.066  16.449 -0.1642  0.5535 -0.2715
  955TIP3    H124280   2.139   2.144  16.480  1.4097  0.0597 -1.2871
  955TIP3    H224281   2.099   2.004  16.522  2.1746 -0.0570 -0.9231
  956TIP3   OH224282   0.479   1.906   1.425  0.1769 -0.1090  0.8194
  956TIP3    H124283   0.409   1.862   1.473 -0.5031  0.5267  0.4349
  956TIP3    H224284   0.494   1.987   1.474  1.1774 -0.5762  1.3240
  957TIP3   OH224285   3.516   6.351   6.659 -0.2535  0.1072 -0.2931
  957TIP3    H124286   3.433   6.308   6.680 -0.0802 -0.0575  0.0642
  957TIP3    H224287   3.573   6.331   6.733  0.8551 -1.7574 -1.5445
  958TIP3   OH224288   3.166   5.944   1.857  0.5348 -0.2083  0.3023
  958TIP3    H124289   3.200   5.855   1.868 -0.5329 -0.7438 -0.5165
  958TIP3    H224290   3.077   5.931   1.824  0.1369  1.1650  0.7980
  959TIP3   OH224291   4.046   4.513  11.515  0.8961 -0.2762  0.1301
  959TIP3    H124292   4.013   4.431  11.476  0.6432 -1.1195  1.9821
  959TIP3    H224293   4.039   4.577  11.444 -0.8158 -1.3908 -0.8098
  960TIP3   OH224294   6.084   2.162   4.929  0.4283  0.2927 -0.5090
  960TIP3    H124295   6.160   2.123   4.971 -1.2283 -0.8421  1.6550
  960TIP3    H224296   6.085   2.254   4.956  1.7783  0.6874 -1.7523
  961TIP3   OH224297   0.529   0.963  13.013  0.1550  0.7563  0.3282
  961TIP3    H124298   0.541   1.057  13.002  0.3383  0.5909 -1.1717
  961TIP3    H224299   0.438   0.947  12.986  0.3409  0.4294 -0.1346
  962TIP3   OH224300   6.138   2.182  13.037 -0.3031  0.2143  0.0982
  962TIP3    H124301   6.114   2.205  13.127 -0.3303  0.4117  0.0398
  962TIP3    H224302   6.234   2.176  13.039 -0.3022  0.2411  0.1338
  963TIP3   OH224303   4.519   6.505  16.272 -0.2160 -0.0420 -0.3110
  963TIP3    H124304   4.611   6.478  16.278 -1.1024 -3.3100  0.3565
  963TIP3    H224305   4.518   6.573  16.205  2.4266 -1.3160 -1.7813
  964TIP3   OH224306   3.350   0.498   3.116  0.3683  0.0074  0.2461
  964TIP3    H124307   3.374   0.521   3.026 -1.6591 -0.1253 -0.3817
  964TIP3    H224308   3.359   0.580   3.164 -1.4694  0.8847 -0.7846
  965TIP3   OH224309   3.230   6.088   6.092  0.3375 -0.3693  0.0615
  965TIP3    H124310   3.199   6.177   6.078  2.2071  0.1561 -0.9860
  965TIP3    H224311   3.163   6.048   6.149 -1.4721  1.0998 -0.9235
  966TIP3   OH224312   2.044   2.315  12.791  0.2579  0.1496 -0.1109
  966TIP3    H124313   2.073   2.387  12.848  0.4211  0.6739 -0.8346
  966TIP3    H224314   1.998   2.255  12.849 -1.7754  1.8834  0.1854
  967TIP3   OH224315   1.734   3.037  15.621  0.1808  0.0628  0.3105
  967TIP3    H124316   1.817   3.012  15.662  1.2683 -0.6473 -2.0899
  967TIP3    H224317   1.743   3.130  15.604  0.6032 -0.0425 -0.0887
  968TIP3   OH224318   4.138   4.466  16.484 -0.5761  0.2806  0.2021
  968TIP3    H124319   4.126   4.560  16.498  0.7199  0.8568 -1.9949
  968TIP3    H224320   4.050   4.429  16.489 -0.9545  1.3172  2.6572
  969TIP3   OH224321   3.907   6.584  14.732  0.1974  0.3303  0.3594
  969TIP3    H124322   3.969   6.656  14.728  1.4295 -0.7309 -0.5837
  969TIP3    H224323   3.849   6.598  14.657  1.5226 -0.5344 -0.9073
  970TIP3   OH224324   5.646   3.363  12.347  0.0065  0.0771  0.3489
  970TIP3    H124325   5.644   3.401  12.435  1.0729  1.3294 -0.1350
  970TIP3    H224326   5.585   3.417  12.296 -2.1710 -1.8668  0.7161
  971TIP3   OH224327   3.480   5.954   2.719 -0.1971 -0.3140  0.3447
  971TIP3    H124328   3.535   5.891   2.765 -1.3027 -0.8225  1.0095
  971TIP3    H224329   3.496   6.037   2.765  1.6847  0.0914 -0.8816
  972TIP3   OH224330   2.955   2.315  14.395  0.7016  0.2219 -0.3612
  972TIP3    H124331   2.902   2.236  14.398  0.9325  0.0614 -0.4514
  972TIP3    H224332   2.950   2.351  14.484  1.2491 -0.3315 -0.0990
  973TIP3   OH224333   3.964   4.163  13.671 -0.0234  0.0057 -0.4179
  973TIP3    H124334   3.981   4.101  13.601  2.7056  0.7271 -0.4770
  973TIP3    H224335   3.996   4.247  13.638  0.0507  0.6392  1.1602
  974TIP3   OH224336   6.234   1.352  11.931  0.3101  0.2691 -0.3414
  974TIP3    H124337   6.282   1.393  11.859  0.3252 -1.3110 -1.2624
  974TIP3    H224338   6.226   1.260  11.906 -0.6296 -0.1007  1.1819
  975TIP3   OH224339   2.595   6.358   3.905  0.3751 -0.2605  0.1985
  975TIP3    H124340   2.658   6.413   3.858  0.5200  0.6005  1.3512
  975TIP3    H224341   2.622   6.268   3.885 -0.5729  0.0079 -2.6660
  976TIP3   OH224342   5.478   1.993   3.852  0.2769 -0.6611  0.2154
  976TIP3    H124343   5.453   2.062   3.914  0.5007  1.7860 -2.2470
  976TIP3    H224344   5.395   1.961   3.817  0.1744  1.2281 -1.4740
  977TIP3   OH224345   5.651   5.589  12.146 -0.5980  0.0053  0.3842
  977TIP3    H124346   5.654   5.580  12.051  2.3041 -0.0698  0.4060
  977TIP3    H224347   5.607   5.673  12.161  0.1447  0.6774 -1.0757
  978TIP3   OH224348   6.706   0.667   0.368 -0.0379 -0.1470  0.8015
  978TIP3    H124349   6.633   0.727   0.380  0.5722  1.0019 -0.7376
  978TIP3    H224350   6.781   0.725   0.351  0.5826 -1.3131 -0.6722
  979TIP3   OH224351   1.375   3.816  16.074 -0.0824  0.4947 -0.6384
  979TIP3    H124352   1.314   3.833  16.146  0.2688  1.2860 -0.5187
  979TIP3    H224353   1.459   3.800  16.117  0.2487  1.5043 -0.8821
  980TIP3   OH224354   0.758   6.052   4.791  0.0296  0.1754  0.4864
  980TIP3    H124355   0.826   6.116   4.768 -0.2028  0.8545  1.6158
  980TIP3    H224356   0.690   6.064   4.725 -0.7448  2.2495  1.6135
  981TIP3   OH224357   0.112   2.825  12.501  0.1754  0.0481 -0.1434
  981TIP3    H124358   0.033   2.808  12.553  0.1526  1.7791  0.4240
  981TIP3    H224359   0.146   2.737  12.481 -0.6038 -0.6985  1.5688
  982TIP3   OH224360   4.626   0.903   3.621 -0.6464  0.2782 -0.1516
  982TIP3    H124361   4.627   0.812   3.649  0.5113  0.7461  1.4798
  982TIP3    H224362   4.714   0.917   3.583 -0.7916  0.7379 -0.3311
  983TIP3   OH224363   5.765   6.042   0.146 -0.3009  0.3918 -1.0217
  983TIP3    H124364   5.792   6.058   0.237  1.6118 -1.9303 -1.0800
  983TIP3    H224365   5.810   6.110   0.096  0.1921  0.5289 -0.4179
  984TIP3   OH224366   0.871   6.265  14.209 -0.2869 -0.0705 -0.5696
  984TIP3    H124367   0.935   6.222  14.265 -0.6077  1.7935  1.3845
  984TIP3    H224368   0.793   6.276  14.265 -0.5371  2.0840 -1.2440
  985TIP3   OH224369   2.545   6.279  13.408 -0.7834  0.3932  0.4113
  985TIP3    H124370   2.563   6.329  13.329 -0.9484 -0.1849  0.0053
  985TIP3    H224371   2.631   6.263  13.447 -0.6776  0.3783  0.1701
  986TIP3   OH224372   1.959   2.297   4.707  0.2367  0.0812  0.0882
  986TIP3    H124373   2.041   2.248   4.705  0.4174  0.1782  2.4307
  986TIP3    H224374   1.974   2.370   4.647  1.2210 -0.8221 -0.8090
  987TIP3   OH224375   5.111   6.322  17.302  0.1022 -0.5346  0.1483
  987TIP3    H124376   5.110   6.413  17.273 -1.1377 -0.8369 -0.9069
  987TIP3    H224377   5.144   6.324  17.391  1.1639  0.8122 -0.2511
  988TIP3   OH224378   5.929   6.568   0.576 -0.2896  0.6883 -0.4610
  988TIP3    H124379   5.907   6.543   0.486 -2.5554  2.1460 -0.3996
  988TIP3    H224380   5.980   6.648   0.567  0.1359  0.4186 -0.4602
  989TIP3   OH224381   4.863   0.300   5.915  0.1568  0.3443  0.2449
  989TIP3    H124382   4.770   0.291   5.935 -0.2952  0.5544 -1.5824
  989TIP3    H224383   4.885   0.389   5.942  0.4515 -0.4516  2.8346
  990TIP3   OH224384   4.924   5.735   5.525  0.0578  0.0166 -0.1818
  990TIP3    H124385   4.918   5.696   5.438 -0.4294  1.7585 -0.9571
  990TIP3    H224386   5.015   5.766   5.531  0.6178 -1.6343  0.6592
  991TIP3   OH224387   3.657   0.277  13.913 -0.0195 -0.4128  0.0155
  991TIP3    H124388   3.716   0.209  13.945 -0.1667 -0.6246 -0.1666
  991TIP3    H224389   3.695   0.306  13.830  2.3871  2.6476  1.9804
  992TIP3   OH224390   3.555   5.077   6.361  0.1849 -0.1112  0.1898
  992TIP3    H124391   3.482   5.132   6.390  0.6612  0.5688  0.1027
  992TIP3    H224392   3.538   4.992   6.403 -0.0430  0.3721  1.1042
  993TIP3   OH224393   4.422   6.128  16.134  0.1568 -0.1288  0.3579
  993TIP3    H124394   4.384   6.210  16.164  0.3987  0.1275 -0.0201
  993TIP3    H224395   4.348   6.069  16.120 -0.1017  0.3420 -0.3124
  994TIP3   OH224396   5.680   2.056  11.001 -0.0124 -0.5185  0.1120
  994TIP3    H124397   5.754   2.030  11.056  0.0403  0.7989  0.6958
  994TIP3    H224398   5.610   1.996  11.024  0.1249 -0.2177  1.3738
  995TIP3   OH224399   2.920   1.019  14.436 -0.1043  0.3601 -0.2884
  995TIP3    H124400   2.878   0.990  14.354  0.2057 -0.6293 -0.1075
  995TIP3    H224401   2.857   0.995  14.504  0.2391 -0.0961 -0.1215
  996TIP3   OH224402   1.815   4.439  12.102  0.0928 -0.1424  0.0854
  996TIP3    H124403   1.884   4.504  12.098  0.8314 -0.9156  0.0013
  996TIP3    H224404   1.746   4.480  12.153  0.5389  0.7070  0.0134
  997TIP3   OH224405   3.650   6.281   2.155 -0.3352 -0.3263  0.1709
  997TIP3    H124406   3.654   6.188   2.179 -0.0106 -0.4634 -0.4021
  997TIP3    H224407   3.737   6.314   2.174  0.0837 -0.5526 -1.2551
  998TIP3   OH224408   0.291   2.350  13.604 -0.0733 -0.0464 -0.4542
  998TIP3    H124409   0.319   2.363  13.513 -0.3704  0.4853 -0.4746
  998TIP3    H224410   0.241   2.429  13.625 -0.5686 -0.4582 -0.0449
  999TIP3   OH224411   5.803   0.051   3.325  0.4937  0.3767 -0.3383
  999TIP3    H124412   5.826   0.109   3.252 -0.2856  0.6285 -0.3944
  999TIP3    H224413   5.841   0.094   3.402 -0.5902  1.2942 -0.2971
 1000TIP3   OH224414   5.054   2.877  13.075 -0.3044  0.0741  0.2388
 1000TIP3    H124415   5.010   2.896  12.992  0.1577 -1.8692 -0.4971
 1000TIP3    H224416   5.140   2.917  13.065  0.0029 -0.7448 -0.5259
 1001TIP3   OH224417   2.517   0.660   5.894  0.0762 -0.1205  0.2896
 1001TIP3    H124418   2.500   0.711   5.973 -0.1556 -1.3225  1.0435
 1001TIP3    H224419   2.572   0.587   5.924 -0.8231 -1.1315 -0.4452
 1002TIP3   OH224420   1.643   4.880  14.881 -0.0322 -0.7275 -0.7159
 1002TIP3    H124421   1.556   4.842  14.892  0.3164 -0.9398  2.1246
 1002TIP3    H224422   1.703   4.806  14.892  0.5397 -0.0735  0.8806
 1003TIP3   OH224423   0.649   6.349  13.378 -0.4886 -0.3555 -0.0791
 1003TIP3    H124424   0.695   6.269  13.402  2.1101  1.3781  1.0800
 1003TIP3    H224425   0.643   6.399  13.459  0.1727  1.6667 -1.2006
 1004TIP3   OH224426   0.582   1.336   1.419  0.4884 -0.4027 -0.6605
 1004TIP3    H124427   0.677   1.350   1.415  0.4300 -0.3165 -3.6051
 1004TIP3    H224428   0.544   1.421   1.399 -0.1904 -0.6766 -0.5686
 1005TIP3   OH224429   3.068   2.684   2.974 -0.8187  0.0293 -0.1161
 1005TIP3    H124430   3.025   2.624   2.912 -2.2397 -1.8185  2.4641
 1005TIP3    H224431   3.134   2.629   3.018 -2.6996 -0.0409  2.8882
 1006TIP3   OH224432   6.187   5.892  12.753  0.2550  0.6432 -0.4273
 1006TIP3    H124433   6.146   5.819  12.800  0.0683 -0.2199 -1.8628
 1006TIP3    H224434   6.281   5.878  12.764  0.2472 -0.2720 -1.2770
 1007TIP3   OH224435   3.615   2.473   5.512  0.0273 -0.4891 -0.3491
 1007TIP3    H124436   3.662   2.479   5.595  0.1581 -1.2560 -0.3596
 1007TIP3    H224437   3.567   2.556   5.505  0.2885 -0.2761  0.3199
 1008TIP3   OH224438   3.628   0.981  13.289  0.1846  0.6470  0.5074
 1008TIP3    H124439   3.542   1.014  13.266  0.6385  2.3071  1.0329
 1008TIP3    H224440   3.634   0.896  13.245 -0.9913  1.3165 -1.0490
 1009TIP3   OH224441   2.166   4.189   4.692 -0.4793  0.0592 -0.1253
 1009TIP3    H124442   2.127   4.178   4.779 -0.4830  0.9890  0.0016
 1009TIP3    H224443   2.107   4.248   4.646  0.2537  0.6877 -0.2715
 1010TIP3   OH224444   1.604   2.543   2.421  0.0404  0.5487 -0.5042
 1010TIP3    H124445   1.516   2.579   2.416 -0.6362 -1.0185 -0.7457
 1010TIP3    H224446   1.605   2.474   2.355  0.6797 -0.9599  0.9971
 1011TIP3   OH224447   0.992   4.371  13.865 -0.4154  0.1069  0.1577
 1011TIP3    H124448   1.003   4.277  13.879 -0.3284  0.3638  1.9320
 1011TIP3    H224449   0.898   4.383  13.850 -0.1380 -0.5406 -2.7211
 1012TIP3   OH224450   5.505   3.227  11.808  0.2832  0.3202 -0.1110
 1012TIP3    H124451   5.455   3.152  11.776  0.6882 -0.2758  0.6308
 1012TIP3    H224452   5.595   3.194  11.817  0.0505  0.2158  2.3689
 1013TIP3   OH224453   1.661   3.742  12.128  0.4050 -0.4922  0.3596
 1013TIP3    H124454   1.697   3.770  12.043  1.5836 -0.4513  0.8506
 1013TIP3    H224455   1.571   3.774  12.128  0.2086 -0.9842 -1.1074
 1014TIP3   OH224456   2.266   1.382   0.499  0.5192 -0.2574 -0.7299
 1014TIP3    H124457   2.241   1.458   0.551  2.0467  0.0808 -0.4565
 1014TIP3    H224458   2.290   1.418   0.414 -0.6188 -0.6608 -1.2444
 1015TIP3   OH224459   4.304   3.126   4.367 -0.2140  0.1456 -0.0619
 1015TIP3    H124460   4.221   3.105   4.410 -0.9273  0.4214 -1.2530
 1015TIP3    H224461   4.296   3.086   4.280  0.7828  0.4258 -0.2925
 1016TIP3   OH224462   4.797   1.777   2.829 -0.0337  0.0979  0.4403
 1016TIP3    H124463   4.849   1.761   2.907  0.7293 -2.2548 -0.4631
 1016TIP3    H224464   4.861   1.791   2.759 -0.6969  1.7588  0.1295
 1017TIP3   OH224465   4.832   1.942   4.529  0.2717  0.4242  0.8571
 1017TIP3    H124466   4.843   1.913   4.439  2.4125  3.7862 -0.1564
 1017TIP3    H224467   4.907   1.903   4.576  0.1278  0.0584  0.7845
 1018TIP3   OH224468   4.166   5.737   2.928 -0.1874  0.2657 -0.4711
 1018TIP3    H124469   4.108   5.677   2.880 -1.3357  1.0854 -0.1409
 1018TIP3    H224470   4.200   5.797   2.862 -1.4658  1.1534 -0.3559
 1019TIP3   OH224471   5.780   0.915   5.374  0.1920 -0.2380  0.2623
 1019TIP3    H124472   5.716   0.966   5.325  1.4863  1.7700  0.5676
 1019TIP3    H224473   5.771   0.826   5.339 -2.3898  0.0584 -0.0238
 1020TIP3   OH224474   1.033   0.122  15.693 -0.5803  0.7045 -0.0590
 1020TIP3    H124475   0.943   0.155  15.700 -0.2103  1.4488  1.6710
 1020TIP3    H224476   1.084   0.178  15.751  0.8237 -0.3561 -0.2096
 1021TIP3   OH224477   4.041   3.631  12.232 -0.7724 -0.5606  0.4783
 1021TIP3    H124478   4.046   3.580  12.150 -1.3248  1.8222 -1.1428
 1021TIP3    H224479   4.053   3.566  12.301 -1.0039 -2.8119 -1.4566
 1022TIP3   OH224480   1.706   6.136   5.656  0.2994 -0.6602 -0.4255
 1022TIP3    H124481   1.723   6.156   5.747 -2.7938 -0.4967  0.2474
 1022TIP3    H224482   1.684   6.042   5.655 -1.8826 -0.2201 -0.4909
 1023TIP3   OH224483   5.239   1.881   4.151 -0.6562 -0.7959  0.3165
 1023TIP3    H124484   5.203   1.894   4.063 -2.4577 -0.8250  1.0016
 1023TIP3    H224485   5.173   1.919   4.209  0.0391 -1.6360  1.7035
 1024TIP3   OH224486   4.424   4.169  12.082  0.1264  0.8238 -0.2099
 1024TIP3    H124487   4.332   4.152  12.101  0.1615  0.5151 -0.3168
 1024TIP3    H224488   4.423   4.243  12.021 -0.1012  0.1517 -1.0379
 1025TIP3   OH224489   2.647   3.022  13.826  0.2941  0.0032  0.1091
 1025TIP3    H124490   2.629   2.987  13.914  0.7839 -0.5803 -0.0170
 1025TIP3    H224491   2.658   2.944  13.771  1.0525  0.3609 -0.2551
 1026TIP3   OH224492   3.423   3.529   3.532 -0.3593  0.2255  0.4467
 1026TIP3    H124493   3.352   3.474   3.567 -2.1328  2.3024  0.3120
 1026TIP3    H224494   3.503   3.486   3.562 -1.6815 -1.4772  1.7746
 1027TIP3   OH224495   4.982   6.656   4.033  0.0180  0.4380  0.1852
 1027TIP3    H124496   5.047   6.685   3.969 -0.6752  0.7079 -0.4097
 1027TIP3    H224497   5.033   6.636   4.112  0.6946  1.7874  0.1143
 1028TIP3   OH224498   6.093   3.252   0.541 -0.0098  0.0797  0.3821
 1028TIP3    H124499   6.164   3.189   0.552 -0.5881 -0.1801  3.6108
 1028TIP3    H224500   6.137   3.338   0.544  0.2942 -0.0973  1.5163
 1029TIP3   OH224501   5.608   5.161   2.965 -0.6201 -0.2974  0.3024
 1029TIP3    H124502   5.549   5.234   2.946  1.4349  1.3551 -0.2354
 1029TIP3    H224503   5.597   5.146   3.059  1.0807  2.9635  1.2025
 1030TIP3   OH224504   3.638   5.464  14.730  0.3970  0.4733  0.2028
 1030TIP3    H124505   3.595   5.545  14.703 -0.8863 -0.0793  0.5325
 1030TIP3    H224506   3.596   5.396  14.678  1.6031  0.0237 -0.2115
 1031TIP3   OH224507   6.225   2.876  13.275 -0.5030 -0.1887  0.2421
 1031TIP3    H124508   6.139   2.914  13.255  0.5331  1.3164 -1.6204
 1031TIP3    H224509   6.227   2.794  13.225 -0.5735  0.1414 -0.3039
 1032TIP3   OH224510   4.409   5.697   0.289 -0.3172  0.6514 -0.0405
 1032TIP3    H124511   4.458   5.758   0.344 -0.7191 -0.3504  1.4775
 1032TIP3    H224512   4.318   5.725   0.297 -0.4107  0.3355  0.0221
 1033TIP3   OH224513   2.765   4.592   5.692  0.5926 -0.3184  0.3618
 1033TIP3    H124514   2.723   4.529   5.634  0.3180  0.9596 -0.9011
 1033TIP3    H224515   2.696   4.619   5.752  0.1638  0.1899 -0.3392
 1034TIP3   OH224516   6.648   0.085  15.424 -0.2753  0.0671 -0.1348
 1034TIP3    H124517   6.618   0.148  15.358  1.3571  0.2026 -0.7925
 1034TIP3    H224518   6.689   0.138  15.492  2.1090 -0.2749 -1.2225
 1035TIP3   OH224519   4.787   0.049  11.375  0.2130  0.2449  0.0755
 1035TIP3    H124520   4.836   0.058  11.293  0.1113 -1.7031 -0.2619
 1035TIP3    H224521   4.826  -0.027  11.418 -1.1300 -0.0826  0.7821
 1036TIP3   OH224522   1.944   1.052   5.422 -0.1676 -0.2476 -0.2327
 1036TIP3    H124523   1.967   1.016   5.336  1.0966  0.2094 -0.1143
 1036TIP3    H224524   1.851   1.035   5.431 -0.3249 -0.2916 -1.6989
 1037TIP3   OH224525   0.256   3.607  14.903 -0.2494 -0.3092 -0.8978
 1037TIP3    H124526   0.243   3.594  14.997 -0.7452 -1.6375 -1.1266
 1037TIP3    H224527   0.178   3.654  14.874 -0.4527 -0.5678 -0.7718
 1038TIP3   OH224528   3.758   1.656   3.207  0.1760 -0.0928 -0.2903
 1038TIP3    H124529   3.684   1.665   3.148 -0.6077 -1.6254  0.3956
 1038TIP3    H224530   3.745   1.572   3.250  2.3171 -0.4142 -0.1253
 1039TIP3   OH224531   0.808   2.141  14.518  0.2927 -0.9790 -0.7577
 1039TIP3    H124532   0.769   2.060  14.550 -1.6356 -0.2029 -1.0094
 1039TIP3    H224533   0.855   2.176  14.593  0.9518 -2.1865 -0.5801
 1040TIP3   OH224534   5.450   3.880  13.725  0.5807 -0.2529 -0.2678
 1040TIP3    H124535   5.512   3.807  13.729  0.2495 -0.5835 -1.0040
 1040TIP3    H224536   5.474   3.927  13.645 -1.4650 -1.6588 -1.8432
 1041TIP3   OH224537   0.146   3.161  11.896 -0.1857  0.2669  0.1764
 1041TIP3    H124538   0.056   3.155  11.929 -0.8333  0.4913 -1.4534
 1041TIP3    H224539   0.144   3.235  11.835  1.2726  0.6695  0.5750
 1042TIP3   OH224540   5.759   3.081  16.805 -0.0214  0.6216 -0.5077
 1042TIP3    H124541   5.762   2.996  16.762 -1.2819  0.1230  0.3493
 1042TIP3    H224542   5.669   3.112  16.792 -1.2385 -0.5788  3.5752
 1043TIP3   OH224543   4.394   4.685  17.315 -0.0341 -0.4341 -0.6032
 1043TIP3    H124544   4.423   4.702  17.404 -1.1606  1.0834 -0.4886
 1043TIP3    H224545   4.346   4.764  17.289  0.5945 -0.6636 -2.7014
 1044TIP3   OH224546   4.539   1.553   1.499 -0.2849  0.0178  0.1688
 1044TIP3    H124547   4.521   1.532   1.407 -0.3656  0.3459  0.1088
 1044TIP3    H224548   4.452   1.563   1.538 -0.3021 -1.7106  0.6639
 1045TIP3   OH224549   1.659   5.621  12.124 -0.2998  0.1278  0.5260
 1045TIP3    H124550   1.622   5.641  12.038 -0.9996 -2.9371  0.0123
 1045TIP3    H224551   1.735   5.679  12.131 -1.0291  1.4468 -1.5284
 1046TIP3   OH224552   0.714   2.350  10.973 -0.1374  0.9245 -0.3460
 1046TIP3    H124553   0.777   2.376  11.040  0.7004  2.5678 -1.6844
 1046TIP3    H224554   0.638   2.406  10.987  0.3597  1.8406 -1.2326
 1047TIP3   OH224555   5.036   3.700   4.448  0.9999 -0.5968  0.3966
 1047TIP3    H124556   5.055   3.728   4.359 -0.8863  0.1507  0.1821
 1047TIP3    H224557   5.033   3.605   4.443 -0.9730 -0.5343 -0.8292
 1048TIP3   OH224558   4.207   5.236   4.140 -0.1768  0.2223  0.3130
 1048TIP3    H124559   4.160   5.314   4.170  1.3174  0.9029  0.9636
 1048TIP3    H224560   4.188   5.232   4.046  0.6475  2.0589  0.0281
 1049TIP3   OH224561   5.166   6.321  15.094 -0.0396  0.0678  0.1099
 1049TIP3    H124562   5.198   6.345  15.007  1.3174  1.6661  0.9850
 1049TIP3    H224563   5.241   6.280  15.137 -0.8151 -1.0827  0.4203
 1050TIP3   OH224564   5.908   4.041   4.112 -0.0777 -0.2058  0.2094
 1050TIP3    H124565   6.001   4.055   4.133  0.0935 -1.2241  0.2204
 1050TIP3    H224566   5.861   4.099   4.171  0.5678  0.9693 -0.3865
 1051TIP3   OH224567   4.147   1.517   5.382 -0.2149 -0.2521 -0.1379
 1051TIP3    H124568   4.240   1.497   5.384 -0.1680 -0.0239  1.5364
 1051TIP3    H224569   4.141   1.606   5.417 -1.0254 -0.1349 -0.5638
 1052TIP3   OH224570   6.046   0.223   4.417 -0.5612  0.6138 -0.0201
 1052TIP3    H124571   5.953   0.229   4.436 -0.8825 -0.8532 -0.9830
 1052TIP3    H224572   6.082   0.172   4.489 -1.1362 -1.7321 -1.2864
 1053TIP3   OH224573   4.968   1.103  13.442 -0.1457 -0.0705  0.2396
 1053TIP3    H124574   4.952   1.181  13.496 -0.7373  0.1458 -0.2346
 1053TIP3    H224575   4.916   1.034  13.483 -0.7173  0.1319 -0.1286
 1054TIP3   OH224576   5.461   6.045  13.425  0.2307 -0.0621 -0.0193
 1054TIP3    H124577   5.466   6.061  13.331 -2.8238  0.8819 -0.1264
 1054TIP3    H224578   5.386   6.097  13.455  2.2392  1.2471  3.3326
 1055TIP3   OH224579   0.894   2.867   2.940 -0.1867 -0.6121 -0.3560
 1055TIP3    H124580   0.950   2.798   2.976  0.1227  0.3175  1.0486
 1055TIP3    H224581   0.835   2.822   2.880 -0.5767 -2.2640  1.1821
 1056TIP3   OH224582   6.356   5.750  15.564 -0.5640  0.1667  0.2819
 1056TIP3    H124583   6.365   5.655  15.567  1.6580  0.3395  0.8086
 1056TIP3    H224584   6.262   5.765  15.547 -0.8763 -2.0918 -0.3062
 1057TIP3   OH224585   3.591   0.812   6.263  0.2085  0.1389  0.0906
 1057TIP3    H124586   3.542   0.759   6.325 -0.0135  1.3451  0.9795
 1057TIP3    H224587   3.523   0.856   6.211  0.3765 -1.5426 -1.6796
 1058TIP3   OH224588   5.076   5.863   1.735  0.0462 -0.0738  0.4827
 1058TIP3    H124589   4.991   5.830   1.704  0.3437 -0.9191  0.5507
 1058TIP3    H224590   5.064   5.958   1.739 -0.3568 -0.0208 -1.1620
 1059TIP3   OH224591   1.048   0.346   1.591  0.0256 -0.2688  0.1744
 1059TIP3    H124592   1.062   0.297   1.510  2.1656 -0.4380  0.5697
 1059TIP3    H224593   1.102   0.301   1.656  1.0052  1.7696  0.8831
 1060TIP3   OH224594   5.390   0.650  15.478  0.0832 -0.0935 -0.0948
 1060TIP3    H124595   5.300   0.639  15.447  0.3226 -3.2485 -0.0658
 1060TIP3    H224596   5.394   0.739  15.512 -2.6255  0.5858 -1.3320
 1061TIP3   OH224597   6.617   1.503  17.121 -0.6297 -0.6684 -0.0640
 1061TIP3    H124598   6.620   1.468  17.210 -0.0651 -1.5702 -0.4380
 1061TIP3    H224599   6.693   1.561  17.115 -0.0004 -1.5165 -0.3350
 1062TIP3   OH224600   1.227   1.691  16.756  0.5617 -0.0426  0.0021
 1062TIP3    H124601   1.252   1.599  16.767 -0.8170 -0.2819  1.6253
 1062TIP3    H224602   1.134   1.687  16.733  0.9247  0.9216 -1.8042
 1063TIP3   OH224603   1.732   2.181   5.432  0.5426  0.8840  0.3446
 1063TIP3    H124604   1.741   2.146   5.343  3.3058  1.1854  0.4226
 1063TIP3    H224605   1.668   2.123   5.474  0.7463 -0.5615 -1.2298
 1064TIP3   OH224606   2.872   4.630  11.596 -0.4906  0.4913 -0.1252
 1064TIP3    H124607   2.835   4.634  11.684  1.9997  0.7625  0.9815
 1064TIP3    H224608   2.827   4.699  11.548 -2.9598 -0.6116  0.4120
 1065TIP3   OH224609   4.207   1.511  14.224  0.5341 -0.4657 -0.1245
 1065TIP3    H124610   4.299   1.487  14.215  0.5057 -0.0837 -1.6439
 1065TIP3    H224611   4.162   1.459  14.158 -0.2231 -0.0505  0.0556
 1066TIP3   OH224612   2.790   1.943   6.763  0.5859 -0.3693  0.0150
 1066TIP3    H124613   2.848   1.875   6.729  1.9722  1.3447 -1.2263
 1066TIP3    H224614   2.792   1.932   6.858  1.9982 -1.0981 -0.0774
 1067TIP3   OH224615   2.107   4.913  12.581 -0.0734  0.3541  0.5109
 1067TIP3    H124616   2.093   4.999  12.541  1.6227  0.1211 -0.6902
 1067TIP3    H224617   2.154   4.933  12.662 -0.1195  0.5895  0.4810
 1068TIP3   OH224618   5.300   2.928   1.175  0.2886  0.2623  0.5338
 1068TIP3    H124619   5.321   2.838   1.150 -1.4629  0.1870 -0.8161
 1068TIP3    H224620   5.229   2.920   1.238  1.5752  0.6571  2.0962
 1069TIP3   OH224621   1.852   0.039   4.918  0.3902 -0.8944  0.0973
 1069TIP3    H124622   1.917   0.099   4.954  1.0797 -0.6771 -1.4158
 1069TIP3    H224623   1.783   0.097   4.884  0.1387 -1.0557  0.3290
 1070TIP3   OH224624   2.665   3.060   2.868  0.0174 -0.2314 -0.5679
 1070TIP3    H124625   2.754   3.061   2.903  0.3975 -2.1414 -1.4064
 1070TIP3    H224626   2.676   3.079   2.774 -0.4064 -0.9216 -0.7591
 1071TIP3   OH224627   2.281   0.161   0.740 -0.7408  0.7167 -0.2043
 1071TIP3    H124628   2.342   0.158   0.813 -0.8587  1.7728 -0.0373
 1071TIP3    H224629   2.331   0.131   0.665 -0.3530  0.4909  0.1413
 1072TIP3   OH224630   5.993   1.755  16.244 -0.3679  0.6648 -0.1239
 1072TIP3    H124631   6.030   1.822  16.301 -0.8015  0.8289 -0.0338
 1072TIP3    H224632   5.920   1.798  16.199 -0.4810  0.3329 -0.2654
 1073TIP3   OH224633   5.581   1.100   2.072  0.3487  0.2215  0.8290
 1073TIP3    H124634   5.672   1.076   2.084  0.6782  1.1391  0.2715
 1073TIP3    H224635   5.532   1.021   2.094  1.3101 -0.5029  0.4269
 1074TIP3   OH224636   3.771   4.304   3.994  0.3573  0.4323  0.2673
 1074TIP3    H124637   3.816   4.220   3.990  0.5544  0.4501  1.6165
 1074TIP3    H224638   3.704   4.292   4.062  1.3496  1.7713  1.5566
 1075TIP3   OH224639   1.879   1.403   2.797 -0.4763 -0.6179  0.3423
 1075TIP3    H124640   1.852   1.337   2.732 -0.4587 -0.7868  0.5059
 1075TIP3    H224641   1.972   1.386   2.811 -0.2763 -0.0247 -0.2322
 1076TIP3   OH224642   4.532   5.386   1.522 -0.1320 -0.3064  0.2783
 1076TIP3    H124643   4.580   5.446   1.466 -1.4949  2.4060  1.8212
 1076TIP3    H224644   4.527   5.305   1.472  2.7101  0.4657 -1.4636
 1077TIP3   OH224645   2.881   4.688   4.903  0.0577 -0.0473  0.3464
 1077TIP3    H124646   2.890   4.601   4.942  1.8647  0.5275  1.3630
 1077TIP3    H224647   2.854   4.744   4.976  0.1644  0.4681 -0.0018
 1078TIP3   OH224648   4.743   1.920   3.320  0.2061  0.4918  0.6307
 1078TIP3    H124649   4.746   1.981   3.246 -2.2181 -0.5000 -0.3903
 1078TIP3    H224650   4.755   1.975   3.397 -0.0924  1.9995 -0.3611
 1079TIP3   OH224651   4.299   6.020   5.732  0.4804  0.4933 -0.0570
 1079TIP3    H124652   4.351   6.100   5.719  3.3318 -0.8859  1.9393
 1079TIP3    H224653   4.310   5.972   5.649  1.0167  0.9766 -0.2811
 1080TIP3   OH224654   3.408   1.261  12.977  0.1147 -0.0214  0.1910
 1080TIP3    H124655   3.438   1.271  12.887  0.2019 -0.5103  0.1582
 1080TIP3    H224656   3.385   1.349  13.005  1.2321  0.3062  0.0962
 1081TIP3   OH224657   0.260   0.236   5.380  0.4835 -0.3792  0.0653
 1081TIP3    H124658   0.277   0.298   5.451  2.6416 -0.3355 -0.4252
 1081TIP3    H224659   0.317   0.265   5.309  1.2561 -2.6496 -0.3212
 1082TIP3   OH224660   6.241   6.097  14.489  0.4570 -0.2313  0.6506
 1082TIP3    H124661   6.257   6.013  14.532  1.6999 -0.4936 -0.2710
 1082TIP3    H224662   6.199   6.075  14.406  0.6534  0.0735  0.4686
 1083TIP3   OH224663   1.925   3.275  15.396  0.0952 -0.1449  0.2073
 1083TIP3    H124664   1.880   3.350  15.357 -0.4519 -1.0948 -1.0662
 1083TIP3    H224665   1.856   3.229  15.443  0.3164 -0.1513  0.5267
 1084TIP3   OH224666   3.050   5.605   2.166  0.1682 -0.3550 -0.0132
 1084TIP3    H124667   3.084   5.552   2.238  0.1367  0.4687  0.6254
 1084TIP3    H224668   3.034   5.543   2.095  0.6379 -1.1113  0.5345
 1085TIP3   OH224669   0.238   1.212  15.884 -0.5806 -0.0511  0.0828
 1085TIP3    H124670   0.192   1.295  15.873 -0.6060  0.1708  1.6018
 1085TIP3    H224671   0.240   1.199  15.979 -0.6359 -1.8231 -0.1335
 1086TIP3   OH224672   2.671   6.153  14.182 -0.2518  0.5357 -0.1369
 1086TIP3    H124673   2.762   6.124  14.192 -0.0502  1.1729 -0.0457
 1086TIP3    H224674   2.672   6.204  14.100 -0.7220 -0.1965 -0.6071
 1087TIP3   OH224675   3.608   4.246   5.729 -0.3664 -0.3997  0.0133
 1087TIP3    H124676   3.690   4.237   5.777 -0.0613  0.5103 -0.3241
 1087TIP3    H224677   3.611   4.178   5.662 -1.5511 -2.8864  2.2762
 1088TIP3   OH224678   0.712   2.131   6.403 -0.3226 -0.3999  0.3092
 1088TIP3    H124679   0.713   2.197   6.472  0.9705 -1.3925  1.2943
 1088TIP3    H224680   0.627   2.089   6.412 -1.5168  1.5978 -0.8641
 1089TIP3   OH224681   6.502   0.730  11.891  0.6807 -0.1041  0.4518
 1089TIP3    H124682   6.419   0.776  11.896 -0.4391 -1.7728 -1.4957
 1089TIP3    H224683   6.484   0.653  11.837  2.8782 -1.8956  2.0599
 1090TIP3   OH224684   0.610   0.666   1.253  0.1314  0.4863  0.3342
 1090TIP3    H124685   0.619   0.592   1.194  0.5949  0.1759  0.7846
 1090TIP3    H224686   0.617   0.743   1.196 -1.4433  0.2094 -0.2945
 1091TIP3   OH224687   5.700   6.503  15.741 -0.2389 -0.5679  0.0022
 1091TIP3    H124688   5.630   6.565  15.764 -0.2469  0.1605 -1.8248
 1091TIP3    H224689   5.778   6.557  15.731  0.1235 -1.0859 -0.0146
 1092TIP3   OH224690   1.250   5.784  14.090 -0.5719  0.1905 -0.4294
 1092TIP3    H124691   1.223   5.803  14.179 -2.7524 -0.6920 -0.8484
 1092TIP3    H224692   1.326   5.726  14.100 -0.5844  0.3671  0.8299
 1093TIP3   OH224693   5.193   4.584   0.514  0.4361 -0.3473  0.4303
 1093TIP3    H124694   5.190   4.654   0.580  1.3480 -1.5809  1.8509
 1093TIP3    H224695   5.112   4.595   0.464 -0.0177  0.9806  1.3852
 1094TIP3   OH224696   2.666   5.916  13.536  0.1434 -0.3418  0.2350
 1094TIP3    H124697   2.677   6.002  13.496 -1.0715 -1.0358 -1.7088
 1094TIP3    H224698   2.734   5.862  13.495  0.9179 -0.3429  1.4663
 1095TIP3   OH224699   6.408   1.737  14.279 -0.4990  0.4116  0.4764
 1095TIP3    H124700   6.494   1.697  14.292 -0.2250  0.4397 -1.1151
 1095TIP3    H224701   6.371   1.742  14.367  0.2240 -1.6259  0.9536
 1096TIP3   OH224702   3.354   2.655   0.708  0.0365 -0.5428 -0.8080
 1096TIP3    H124703   3.394   2.726   0.759  1.0378 -1.3953 -0.3602
 1096TIP3    H224704   3.260   2.666   0.721  0.1960  0.3840 -0.3186
 1097TIP3   OH224705   4.062   3.066  12.346  0.2741 -0.0070 -0.3113
 1097TIP3    H124706   4.112   3.023  12.277  2.1953  0.0894  0.9495
 1097TIP3    H224707   4.004   3.127  12.300 -0.4365 -1.8484 -1.9531
 1098TIP3   OH224708   1.497   6.133  12.271 -0.4984  0.7508 -0.0916
 1098TIP3    H124709   1.524   6.113  12.361 -2.2244 -2.1785 -0.1025
 1098TIP3    H224710   1.446   6.214  12.279  0.7389  1.4591  1.2481
 1099TIP3   OH224711   4.554   5.814   2.173  0.8206 -0.0066 -0.0392
 1099TIP3    H124712   4.482   5.875   2.191 -0.1204 -1.0772 -0.0940
 1099TIP3    H224713   4.580   5.782   2.259 -1.0228 -2.1096 -0.1626
 1100TIP3   OH224714   0.443   3.711  15.185 -0.0874  0.2788  0.4329
 1100TIP3    H124715   0.500   3.634  15.175 -0.1604 -0.0313  2.0720
 1100TIP3    H224716   0.467   3.747  15.270 -1.3816  0.9564  0.5307
 1101TIP3   OH224717   5.461   5.722  14.177 -0.0158 -0.0085 -0.4709
 1101TIP3    H124718   5.543   5.720  14.226 -0.6785 -0.7796  0.6636
 1101TIP3    H224719   5.479   5.674  14.096  0.7088  0.0506 -0.3492
 1102TIP3   OH224720   2.376   0.332  15.855 -0.3337 -0.1988  0.3690
 1102TIP3    H124721   2.403   0.424  15.851 -2.4431  0.4457 -0.2070
 1102TIP3    H224722   2.340   0.314  15.768 -0.0153 -1.5661  0.5035
 1103TIP3   OH224723   3.665   6.158  15.650  0.0684  0.4465  0.1720
 1103TIP3    H124724   3.661   6.226  15.717  0.8693  0.3107  0.3816
 1103TIP3    H224725   3.574   6.132  15.635 -0.3967  2.4787 -0.8955
 1104TIP3   OH224726   4.831   3.713  13.941 -0.4015  0.3614 -0.3987
 1104TIP3    H124727   4.890   3.788  13.943 -0.5143  0.5009 -1.4044
 1104TIP3    H224728   4.842   3.670  14.026  2.5129 -0.6765 -1.1632
 1105TIP3   OH224729   4.004   2.947  17.135 -0.1512 -0.2151 -0.0099
 1105TIP3    H124730   4.009   2.882  17.066 -0.6244 -0.6673  0.3713
 1105TIP3    H224731   3.937   2.913  17.195 -0.7710  0.8533 -0.0627
 1106TIP3   OH224732   1.703   3.953   5.288 -0.0764  0.5362  0.1891
 1106TIP3    H124733   1.761   4.000   5.347 -1.1352 -0.3024  1.9867
 1106TIP3    H224734   1.654   3.893   5.345 -2.1212  0.6409 -1.3549
 1107TIP3   OH224735   4.337   3.761   6.415 -0.0997 -0.5800 -0.1787
 1107TIP3    H124736   4.299   3.704   6.348 -1.4007  1.1595 -1.0003
 1107TIP3    H224737   4.282   3.746   6.493 -0.6957 -0.1624 -0.5122
 1108TIP3   OH224738   0.399   5.322  13.604 -0.1496  0.2291  0.1817
 1108TIP3    H124739   0.409   5.369  13.686 -2.1795  0.4141  0.3831
 1108TIP3    H224740   0.341   5.377  13.552 -0.8076 -0.9917 -0.4368
 1109TIP3   OH224741   4.553   4.639   3.744 -0.4342  0.1888  0.1287
 1109TIP3    H124742   4.465   4.656   3.712 -1.0666 -0.7324  1.2929
 1109TIP3    H224743   4.540   4.600   3.831  1.1205  0.1361  0.3679
 1110TIP3   OH224744   3.301   0.872  13.498 -0.0747  0.0377 -0.4700
 1110TIP3    H124745   3.376   0.812  13.499 -0.0676 -0.0337  1.8986
 1110TIP3    H224746   3.248   0.845  13.573 -1.5124  1.2826 -0.9755
 1111TIP3   OH224747   4.731   0.265  12.515  0.2565  0.0825 -0.1636
 1111TIP3    H124748   4.748   0.280  12.422  1.3925  1.0292  0.1744
 1111TIP3    H224749   4.818   0.264  12.556 -0.2651  0.4484  0.9956
 1112TIP3   OH224750   3.609   3.851  15.845 -0.1143  0.5196  0.6827
 1112TIP3    H124751   3.662   3.777  15.874  0.3074  0.1558 -0.9314
 1112TIP3    H224752   3.670   3.909  15.800 -0.5925  1.4946  1.2392
 1113TIP3   OH224753   0.727   5.585  13.041  0.1609 -0.4722 -0.5640
 1113TIP3    H124754   0.687   5.552  13.121  1.8840  0.9321  0.9636
 1113TIP3    H224755   0.665   5.563  12.972 -0.9983 -2.4628  1.0204
 1114TIP3   OH224756   1.659   3.976  13.637  0.0757  0.0948 -0.1028
 1114TIP3    H124757   1.695   3.905  13.584  0.9021  0.0563  0.4992
 1114TIP3    H224758   1.630   3.933  13.718  0.3833  0.4132  0.1769
 1115TIP3   OH224759   3.107   1.915  16.734  0.4663  0.1530  0.5196
 1115TIP3    H124760   3.132   1.995  16.687 -1.2660  0.2610 -0.2780
 1115TIP3    H224761   3.171   1.850  16.706  0.8452  0.8166 -0.2002
 1116TIP3   OH224762   6.245   2.818   1.510  0.3316  0.8070  0.2793
 1116TIP3    H124763   6.293   2.890   1.469  1.2393 -0.6993 -1.4401
 1116TIP3    H224764   6.175   2.797   1.449 -0.6275  0.9550  1.3040
 1117TIP3   OH224765   6.370   1.327   6.254 -0.0032  0.1960 -0.0123
 1117TIP3    H124766   6.286   1.361   6.224 -0.2949  0.2006  0.7744
 1117TIP3    H224767   6.398   1.267   6.185 -1.2749 -0.7938  0.2771
 1118TIP3   OH224768   1.738   3.502  12.702  0.2070  0.1597  0.8374
 1118TIP3    H124769   1.677   3.570  12.675 -0.8085 -1.1210 -0.2596
 1118TIP3    H224770   1.699   3.421  12.671  1.9056 -0.8357  1.1404
 1119TIP3   OH224771   0.284   3.037  17.345  0.0691 -0.3429 -0.3487
 1119TIP3    H124772   0.203   3.064  17.302  0.3653 -0.1143 -0.7871
 1119TIP3    H224773   0.266   2.950  17.379 -0.2580 -0.4296 -0.7296
 1120TIP3   OH224774   3.055   3.150  15.491  0.3042  0.4561 -0.5463
 1120TIP3    H124775   3.134   3.192  15.526  0.8929 -0.6141 -0.5333
 1120TIP3    H224776   3.088   3.078  15.438 -0.6725 -0.9295  0.6459
 1121TIP3   OH224777   5.281   2.174   0.426 -0.5286 -0.1715  0.3697
 1121TIP3    H124778   5.336   2.240   0.469 -1.0464 -0.0696  0.8783
 1121TIP3    H224779   5.200   2.174   0.476 -0.7175 -0.8480  0.0662
 1122TIP3   OH224780   2.528   3.272  17.242 -0.1643  0.1391  0.3641
 1122TIP3    H124781   2.575   3.212  17.300 -1.1475  0.9303  2.0455
 1122TIP3    H224782   2.574   3.355  17.250 -0.5503  0.3601  0.3389
 1123TIP3   OH224783   6.309   6.585   2.696  0.6732 -0.0669  0.2436
 1123TIP3    H124784   6.271   6.569   2.610  1.4677 -0.4054 -0.0564
 1123TIP3    H224785   6.235   6.584   2.756  0.0266  0.8261 -0.5134
 1124TIP3   OH224786   3.408   5.770   3.857 -0.1957  0.4092  0.9352
 1124TIP3    H124787   3.479   5.797   3.916 -1.5652  2.6640  1.6551
 1124TIP3    H224788   3.454   5.729   3.783  1.7323  0.1831  2.1640
 1125TIP3   OH224789   1.001   5.749  12.940 -0.4364 -0.4348  0.4085
 1125TIP3    H124790   0.912   5.784  12.946 -0.4338  0.1310 -1.9585
 1125TIP3    H224791   0.991   5.663  12.900  0.0583 -0.3766  0.1406
 1126TIP3   OH224792   2.199   6.053  14.322 -0.2493  0.3526 -0.2664
 1126TIP3    H124793   2.246   6.135  14.311 -0.6977  0.7269  0.4746
 1126TIP3    H224794   2.179   6.049  14.416 -1.4326  0.0797 -0.5109
 1127TIP3   OH224795   6.678   5.069   2.169  0.4520  0.1179 -0.8798
 1127TIP3    H124796   6.701   5.134   2.235  0.5455 -0.5648 -0.2309
 1127TIP3    H224797   6.604   5.108   2.122 -1.1972 -0.3576  1.1802
 1128TIP3   OH224798   3.529   1.889   5.878  0.4121 -0.0635  0.5307
 1128TIP3    H124799   3.504   1.981   5.885 -0.8417 -0.2099 -1.3402
 1128TIP3    H224800   3.459   1.849   5.827  1.0244 -2.0349  1.1422
 1129TIP3   OH224801   6.221   5.182  12.448  0.2710 -0.3113  0.3314
 1129TIP3    H124802   6.221   5.239  12.525 -1.2941 -0.1286  0.2226
 1129TIP3    H224803   6.215   5.242  12.373  1.1907 -0.5198  0.0663
 1130TIP3   OH224804   5.516   0.262  15.387 -0.3156 -0.4466  0.3809
 1130TIP3    H124805   5.533   0.303  15.303  0.5284  0.3288  0.9137
 1130TIP3    H224806   5.448   0.317  15.427 -0.6232 -0.7394  0.2642
 1131TIP3   OH224807   2.120   4.521  13.294  0.0422  0.1238  0.0078
 1131TIP3    H124808   2.207   4.497  13.326  0.5084 -1.5345 -2.2343
 1131TIP3    H224809   2.136   4.568  13.213 -1.1505  0.7117  0.0895
 1132TIP3   OH224810   2.554   4.534  17.035  0.0196 -0.0217 -0.0031
 1132TIP3    H124811   2.586   4.447  17.058  0.4933  0.2509  0.3761
 1132TIP3    H224812   2.549   4.581  17.118  1.5648  0.9065 -0.3869
 1133TIP3   OH224813   5.198   5.759  11.486 -0.5226  0.5215  0.1529
 1133TIP3    H124814   5.195   5.854  11.475  0.7792  0.5152 -0.4031
 1133TIP3    H224815   5.262   5.729  11.421 -1.9637 -0.8938 -0.6773
 1134TIP3   OH224816   2.431   3.958  14.258 -0.0604 -0.2045 -0.0957
 1134TIP3    H124817   2.386   4.015  14.320  0.8787  0.9736 -0.4501
 1134TIP3    H224818   2.517   3.943  14.298 -0.0976 -0.9229 -0.2755
 1135TIP3   OH224819   3.905   5.448  14.169 -0.3164 -0.0248 -0.2518
 1135TIP3    H124820   3.894   5.426  14.262  0.8527  0.1994 -0.0398
 1135TIP3    H224821   3.981   5.397  14.141  0.8739  1.7262 -0.4153
 1136TIP3   OH224822   0.472   2.864   3.697  0.4718 -0.1762 -0.0197
 1136TIP3    H124823   0.522   2.804   3.752  1.2835  0.7910  0.3451
 1136TIP3    H224824   0.499   2.951   3.727 -0.7856  0.3723 -0.4168
 1137TIP3   OH224825   1.183   3.677  13.788 -0.3369  0.0792  0.2563
 1137TIP3    H124826   1.239   3.600  13.801 -0.3490 -0.1706 -0.9887
 1137TIP3    H224827   1.094   3.642  13.782 -0.7515  0.5340  2.7967
 1138TIP3   OH224828   3.048   2.689  15.157  0.1819  0.2678 -0.2689
 1138TIP3    H124829   3.098   2.703  15.077  0.8987  1.7297  0.3902
 1138TIP3    H224830   2.958   2.679  15.128  0.3449  1.3627 -1.2370
 1139TIP3   OH224831   0.169   5.116   3.327  0.1568  1.3644  0.2934
 1139TIP3    H124832   0.102   5.057   3.291  1.4558 -0.2693  0.4262
 1139TIP3    H224833   0.143   5.128   3.418  0.7133 -0.3730  0.7279
 1140TIP3   OH224834   4.362   1.242  15.984 -0.5522  0.0514 -0.2838
 1140TIP3    H124835   4.433   1.302  15.961 -1.5691  1.3921 -0.0788
 1140TIP3    H224836   4.294   1.259  15.918 -0.8382 -0.9277 -0.2598
 1141TIP3   OH224837   4.631   5.009   1.183  0.3227 -0.0484  0.3054
 1141TIP3    H124838   4.704   4.972   1.134 -1.1210 -2.2891 -0.2814
 1141TIP3    H224839   4.554   4.961   1.152 -1.4479  2.2241  0.8693
 1142TIP3   OH224840   1.625   0.544   5.465 -0.2975  0.8955  0.3534
 1142TIP3    H124841   1.543   0.556   5.513 -0.3489  0.1135  0.4759
 1142TIP3    H224842   1.691   0.590   5.518 -0.4391  0.4421  0.9323
 1143TIP3   OH224843   4.961   1.283   0.344 -0.5891 -0.6305  0.5860
 1143TIP3    H124844   5.027   1.301   0.411 -0.9972  1.8889  0.4071
 1143TIP3    H224845   4.900   1.223   0.386  0.2511 -0.7100  1.7517
 1144TIP3   OH224846   4.796   4.502   5.905 -0.1985 -0.1757  0.6296
 1144TIP3    H124847   4.843   4.501   5.989 -1.2070 -1.7144  1.2134
 1144TIP3    H224848   4.722   4.562   5.920 -0.5725 -0.7110  0.9796
 1145TIP3   OH224849   4.912   3.367  11.061 -0.4846 -0.1714  0.7877
 1145TIP3    H124850   4.920   3.458  11.088  1.5485 -0.2373  0.6299
 1145TIP3    H224851   4.922   3.369  10.966  2.7844 -0.7162  0.9882
 1146TIP3   OH224852   1.008   4.856  12.017 -0.2322  0.3197  0.3356
 1146TIP3    H124853   0.995   4.944  12.053 -2.3453  0.5030 -0.7640
 1146TIP3    H224854   1.076   4.868  11.950  0.5865  0.7976  1.2216
 1147TIP3   OH224855   6.154   4.829   1.172  0.6137 -0.3017  0.1407
 1147TIP3    H124856   6.092   4.870   1.112  0.4417 -0.1596  0.4161
 1147TIP3    H224857   6.237   4.828   1.124  0.4152 -0.4297 -0.2026
 1148TIP3   OH224858   5.955   0.737   0.082  0.6563  0.0529  0.3558
 1148TIP3    H124859   5.942   0.665   0.020 -0.7310 -1.5317  2.3457
 1148TIP3    H224860   6.037   0.778   0.054  2.2635 -3.1301 -0.1314
 1149TIP3   OH224861   1.203   2.746   2.328  0.1676 -0.3676 -0.0696
 1149TIP3    H124862   1.108   2.760   2.322  0.4051  1.1857 -0.8445
 1149TIP3    H224863   1.236   2.771   2.241  1.6483  2.5961  1.1907
 1150TIP3   OH224864   5.757   3.678  11.778  0.5026 -0.5762  0.1429
 1150TIP3    H124865   5.738   3.754  11.834 -0.5037  0.4136 -1.4465
 1150TIP3    H224866   5.705   3.607  11.815  2.7765 -1.0470  2.6957
 1151TIP3   OH224867   5.279   0.838  10.776  0.2831  0.6886 -0.2813
 1151TIP3    H124868   5.243   0.782  10.708 -0.2446 -0.3757  0.8496
 1151TIP3    H224869   5.371   0.811  10.784 -0.3212 -1.1310  1.2823
 1152TIP3   OH224870   3.105   0.577  16.553  0.1248  0.2905 -0.0177
 1152TIP3    H124871   3.026   0.606  16.599 -0.3394  0.5454 -0.9536
 1152TIP3    H224872   3.150   0.658  16.528  0.7844  0.1451  0.6719
 1153TIP3   OH224873   4.212   0.658   0.146 -0.7951  0.6035 -0.4648
 1153TIP3    H124874   4.277   0.723   0.118 -0.2804  0.2340 -0.1584
 1153TIP3    H224875   4.252   0.616   0.222 -0.9126 -0.3698 -0.9193
 1154TIP3   OH224876   1.821   6.103  12.204  0.1869 -0.4997  0.4594
 1154TIP3    H124877   1.868   6.171  12.253  0.8553 -0.5524 -0.0887
 1154TIP3    H224878   1.850   6.116  12.113  0.7919 -1.8942  0.4351
 1155TIP3   OH224879   5.091   4.983   4.812  0.5852  0.1503 -0.0564
 1155TIP3    H124880   5.009   5.029   4.797 -0.0530 -0.8180  0.3241
 1155TIP3    H224881   5.111   4.941   4.729  1.0294  0.8931 -0.3279
 1156TIP3   OH224882   1.014   0.144  12.888 -0.1054  0.1696 -0.7542
 1156TIP3    H124883   1.052   0.208  12.948 -0.2971  0.1634 -0.6240
 1156TIP3    H224884   1.077   0.138  12.816  0.7806 -0.8264  0.0867
 1157TIP3   OH224885   2.447   1.097   0.444 -0.2089  0.1937  0.1740
 1157TIP3    H124886   2.397   1.157   0.389 -0.7667  1.3745  1.8845
 1157TIP3    H224887   2.499   1.154   0.501  1.2379 -0.9916  0.1049
 1158TIP3   OH224888   3.159   0.012  12.716  0.2744  0.3519  0.3292
 1158TIP3    H124889   3.096  -0.059  12.702  0.2862  0.2097  0.9736
 1158TIP3    H224890   3.244  -0.027  12.695  0.1714  0.4824 -0.3351
 1159TIP3   OH224891   6.289   2.212   3.295  0.4254  0.4731 -0.2174
 1159TIP3    H124892   6.240   2.252   3.224  0.3891  0.0600 -0.4251
 1159TIP3    H224893   6.308   2.285   3.355  1.1224  0.9605 -1.0185
 1160TIP3   OH224894   5.711   6.213   1.474 -0.3564  0.0259 -0.4355
 1160TIP3    H124895   5.713   6.129   1.428 -2.1383 -1.5309  2.1057
 1160TIP3    H224896   5.779   6.205   1.542 -1.2954  0.1601  0.5402
 1161TIP3   OH224897   0.024   4.913  15.638 -0.1223 -0.4119 -0.1448
 1161TIP3    H124898   0.045   4.867  15.557  1.9245 -0.5146  0.3837
 1161TIP3    H224899  -0.069   4.894  15.653  0.0753 -2.4570 -1.1458
 1162TIP3   OH224900   1.245   2.512   5.864 -0.2234  0.0793  0.2145
 1162TIP3    H124901   1.298   2.591   5.871 -0.2858 -0.0039  2.1851
 1162TIP3    H224902   1.166   2.530   5.915 -1.5086 -0.3185 -1.5142
 1163TIP3   OH224903   1.639   2.804  14.282  0.1690 -0.0112 -0.4682
 1163TIP3    H124904   1.695   2.845  14.216  0.9827  0.0066  0.2090
 1163TIP3    H224905   1.576   2.752  14.232  0.6295  0.1809 -1.2596
 1164TIP3   OH224906   2.940   4.082  15.305  0.4914 -0.3025 -0.0608
 1164TIP3    H124907   3.008   4.071  15.372  0.8993 -0.2030 -0.4586
 1164TIP3    H224908   2.862   4.105  15.355  1.3850  2.4376  0.2240
 1165TIP3   OH224909   3.024   5.180  17.112 -0.3945  0.0432  0.5391
 1165TIP3    H124910   3.001   5.123  17.039  1.2343 -0.7543  0.6264
 1165TIP3    H224911   3.046   5.264  17.071 -4.0133  1.1610  0.4864
 1166TIP3   OH224912   4.192   2.511  14.159  0.4479  0.3267 -0.7575
 1166TIP3    H124913   4.183   2.459  14.079 -1.0146 -0.1037 -0.3347
 1166TIP3    H224914   4.113   2.493  14.209  1.0995  0.9957  0.5674
 1167TIP3   OH224915   6.601   2.674  16.007  0.3780 -0.6479 -0.4800
 1167TIP3    H124916   6.615   2.606  15.941  0.4438 -0.3268 -0.8051
 1167TIP3    H224917   6.688   2.711  16.021  0.2640 -0.2985 -0.6786
 1168TIP3   OH224918   4.559   6.464  14.808  0.3309  0.2279 -0.1394
 1168TIP3    H124919   4.467   6.451  14.831  0.1113  1.5769 -0.1812
 1168TIP3    H224920   4.558   6.476  14.713  0.4562  0.8978 -0.0627
 1169TIP3   OH224921   5.201   4.185  13.586  0.1187 -0.0393  0.0006
 1169TIP3    H124922   5.238   4.097  13.583 -0.9299 -0.4796 -0.8392
 1169TIP3    H224923   5.228   4.226  13.504  1.1078  0.6678  0.6458
 1170TIP3   OH224924   4.773   6.210   0.080 -0.2515  0.4827  0.1738
 1170TIP3    H124925   4.792   6.154   0.156 -0.1409 -0.3327 -0.4443
 1170TIP3    H224926   4.814   6.293   0.102 -0.1748  0.2455  0.9899
 1171TIP3   OH224927   4.728   3.538   5.793 -0.3967 -0.5765 -0.0352
 1171TIP3    H124928   4.658   3.488   5.750  0.0976 -1.2450 -0.0734
 1171TIP3    H224929   4.705   3.536   5.886 -0.5407 -0.6039 -0.0707
 1172TIP3   OH224930   2.043   0.556  12.957 -0.9240 -0.2263 -0.0181
 1172TIP3    H124931   1.985   0.624  12.991  0.0410  1.2842 -1.2611
 1172TIP3    H224932   2.098   0.530  13.031 -0.9930  0.6872  0.3573
 1173TIP3   OH224933   5.180   2.815  12.566  0.4141 -0.5083  0.0462
 1173TIP3    H124934   5.097   2.801  12.520 -0.9714 -0.0741  2.2586
 1173TIP3    H224935   5.177   2.754  12.640  0.7460  1.4243  1.7431
 1174TIP3   OH224936   6.004   1.464   0.883 -0.3340  0.6232  0.0845
 1174TIP3    H124937   5.917   1.462   0.923 -0.4348  0.4299 -0.1419
 1174TIP3    H224938   6.044   1.545   0.915 -0.0934  0.0630  1.2492
 1175TIP3   OH224939   1.918   1.830  16.149  0.0901 -0.2951  0.6128
 1175TIP3    H124940   1.902   1.884  16.227  2.2651 -2.0234  2.3870
 1175TIP3    H224941   2.011   1.842  16.130 -0.0144 -1.2695 -0.6477
 1176TIP3   OH224942   5.304   0.476  16.411 -0.4305 -0.3272  0.4485
 1176TIP3    H124943   5.344   0.389  16.410 -0.3848 -0.4516  3.6114
 1176TIP3    H224944   5.372   0.533  16.447 -0.1489  1.3072 -2.3622
 1177TIP3   OH224945   1.774   5.090  13.120  0.3843 -0.6966  0.5127
 1177TIP3    H124946   1.734   5.082  13.206 -0.3080 -1.2266  0.1486
 1177TIP3    H224947   1.797   5.000  13.095 -0.3420 -0.6734 -0.2883
 1178TIP3   OH224948   3.513   2.142   1.923  0.6093  0.1790  0.0285
 1178TIP3    H124949   3.466   2.106   1.848  1.4243 -1.4909  0.2740
 1178TIP3    H224950   3.581   2.197   1.885  0.4581  0.0620 -0.4209
 1179TIP3   OH224951   1.026   3.910   5.572  0.0954  0.1685 -0.1927
 1179TIP3    H124952   1.071   3.973   5.516  0.2876  0.0334 -0.1924
 1179TIP3    H224953   0.976   3.963   5.634 -0.0812  0.3194 -0.4600
 1180TIP3   OH224954   3.621   3.955   3.237 -0.6222  0.1960 -0.0864
 1180TIP3    H124955   3.611   3.882   3.299 -0.6117  0.5690  0.3620
 1180TIP3    H224956   3.677   4.018   3.283  0.0448  0.1318 -0.7950
 1181TIP3   OH224957   0.119   3.049  17.088 -0.2304  0.1808 -0.4118
 1181TIP3    H124958   0.058   2.990  17.133  1.2023 -1.0924 -0.0600
 1181TIP3    H224959   0.072   3.132  17.082 -1.1656 -0.1112  1.8602
 1182TIP3   OH224960   1.493   3.423   0.722  0.1677  0.6321  0.1504
 1182TIP3    H124961   1.419   3.451   0.668 -1.5091 -2.0791  0.8660
 1182TIP3    H224962   1.464   3.437   0.812  0.7900  0.1308  0.4373
 1183TIP3   OH224963   4.230   2.404   3.268  0.1284  0.3156 -0.0058
 1183TIP3    H124964   4.218   2.387   3.175  0.1464 -0.2115  0.0831
 1183TIP3    H224965   4.151   2.369   3.309  0.9881 -1.3312  0.3730
 1184TIP3   OH224966   2.067   3.961  14.348 -0.1796 -0.1920  0.0092
 1184TIP3    H124967   2.069   3.879  14.397  1.0777 -0.2207 -0.0449
 1184TIP3    H224968   2.143   4.010  14.380 -1.0275  1.0477  0.1840
 1185TIP3   OH224969   5.456   3.855  15.225  0.3000  0.1989  0.4043
 1185TIP3    H124970   5.467   3.764  15.249  1.5717  0.3741  0.5555
 1185TIP3    H224971   5.522   3.902  15.275  1.2566  0.9002 -1.4033
 1186TIP3   OH224972   2.900   6.077  14.313  0.2878  0.0386 -1.0387
 1186TIP3    H124973   2.864   5.990  14.330  0.0046  0.2546 -0.5096
 1186TIP3    H224974   2.995   6.063  14.308  0.6303  0.1743  2.4602
 1187TIP3   OH224975   6.708   5.893   4.996 -0.2661 -0.7484 -0.3525
 1187TIP3    H124976   6.770   5.859   5.061 -0.2999 -1.2404 -0.5771
 1187TIP3    H224977   6.760   5.955   4.944 -0.3369 -0.0431  0.3864
 1188TIP3   OH224978   2.359   0.300   1.945 -0.1524  0.1079  0.2500
 1188TIP3    H124979   2.265   0.320   1.947  0.0990  1.5318 -0.8487
 1188TIP3    H224980   2.364   0.219   1.894 -0.6311  1.4749 -2.1370
 1189TIP3   OH224981   2.983   2.652  13.646 -0.3620 -0.2287 -0.2038
 1189TIP3    H124982   2.968   2.678  13.737 -1.1220 -1.3113  0.0020
 1189TIP3    H224983   2.939   2.720  13.595 -2.6208 -1.1789  0.3325
 1190TIP3   OH224984   0.673   1.595  15.652  0.1411  0.0742 -0.6823
 1190TIP3    H124985   0.720   1.545  15.719 -0.5697  0.8073  0.3851
 1190TIP3    H224986   0.606   1.643  15.700  0.7834  2.0542 -1.6728
 1191TIP3   OH224987   0.239   6.481  16.374  0.0059  0.3206 -0.0847
 1191TIP3    H124988   0.160   6.490  16.427  1.0561  2.9479  1.2152
 1191TIP3    H224989   0.209   6.488  16.284 -1.4977 -1.4615  0.2125
 1192TIP3   OH224990   4.040   2.608  11.634  0.2334  0.3658  0.4734
 1192TIP3    H124991   3.945   2.610  11.644 -0.1668 -0.0134 -2.4474
 1192TIP3    H224992   4.055   2.568  11.548  2.9787  1.6655  0.2301
 1193TIP3   OH224993   5.473   0.534  13.141  0.3734  0.1933 -0.4169
 1193TIP3    H124994   5.398   0.532  13.082 -0.5222 -0.2256  0.6894
 1193TIP3    H224995   5.465   0.617  13.188 -1.1642 -1.0955  1.8175
 1194TIP3   OH224996   0.527   2.643   4.798  0.6424 -0.1505 -0.2321
 1194TIP3    H124997   0.593   2.698   4.755  0.7081  1.4498  1.7852
 1194TIP3    H224998   0.578   2.586   4.856  0.3490 -0.0273  0.1463
 1195TIP3   OH224999   0.508   2.333  14.304  0.1793 -0.5909  0.0163
 1195TIP3    H125000   0.463   2.350  14.387  1.7644  0.8169  0.6425
 1195TIP3    H225001   0.443   2.288  14.250 -1.0264 -1.1750  1.8634
 1196TIP3   OH225002   2.603   2.523  14.848 -0.0484  0.3363 -0.8193
 1196TIP3    H125003   2.639   2.435  14.858 -0.7920  0.1025 -0.0857
 1196TIP3    H225004   2.636   2.553  14.763  3.2320  0.8188  0.4802
 1197TIP3   OH225005   0.779   0.175   5.118  0.0189 -0.0779 -0.2480
 1197TIP3    H125006   0.772   0.176   5.022  0.8490  1.1017 -0.3183
 1197TIP3    H225007   0.759   0.265   5.144  2.2868  0.2802  0.4638
 1198TIP3   OH225008   3.295   3.511  15.069  0.1932 -0.0416 -0.1073
 1198TIP3    H125009   3.274   3.597  15.105 -0.2003 -0.2642  0.1978
 1198TIP3    H225010   3.383   3.492  15.102 -0.7078 -0.8738  1.9675
 1199TIP3   OH225011   2.494   4.859   2.626 -0.1786  0.1260 -0.6011
 1199TIP3    H125012   2.573   4.884   2.578 -0.4928  0.4557 -0.9510
 1199TIP3    H225013   2.471   4.937   2.676  0.9659 -0.6326  1.2568
 1200TIP3   OH225014   6.208   4.389  13.867  0.2541  0.1564  0.4841
 1200TIP3    H125015   6.245   4.302  13.853 -1.9068 -0.4853 -2.3405
 1200TIP3    H225016   6.180   4.389  13.959  2.8174 -0.9891  1.3621
 1201TIP3   OH225017   2.341   4.244  12.176  0.0821  0.0228 -0.3267
 1201TIP3    H125018   2.309   4.182  12.109 -1.5448 -0.7415  1.0692
 1201TIP3    H225019   2.362   4.189  12.251 -0.5672  1.0600  0.6496
 1202TIP3   OH225020   5.183   0.090   2.319  0.3364 -0.2379 -0.3209
 1202TIP3    H125021   5.131   0.055   2.247  0.0385  0.2975 -0.3718
 1202TIP3    H225022   5.231   0.163   2.280  0.8397 -0.4884 -0.1816
 1203TIP3   OH225023   1.057   0.978  13.912  0.8455  0.0134 -0.3704
 1203TIP3    H125024   1.013   0.955  13.830  2.2051 -0.1812 -1.0757
 1203TIP3    H225025   1.120   0.907  13.927 -0.9760 -1.2425  2.1519
 1204TIP3   OH225026   5.806   4.110  12.035  0.3052 -0.0007  0.0291
 1204TIP3    H125027   5.853   4.122  11.953 -0.3824 -0.6522 -0.4711
 1204TIP3    H225028   5.748   4.036  12.019 -1.3072  1.1137  0.4183
 1205TIP3   OH225029   4.898   3.687   1.410 -0.1431 -0.4724 -0.2921
 1205TIP3    H125030   4.871   3.603   1.373  0.3417 -0.6533 -0.2397
 1205TIP3    H225031   4.829   3.709   1.473 -0.0220 -1.0765  0.0615
 1206TIP3   OH225032   4.562   1.074  13.457  0.8676 -0.0519  0.1098
 1206TIP3    H125033   4.548   1.092  13.364  1.5655  0.0201  0.0139
 1206TIP3    H225034   4.482   1.030  13.486 -0.2580  1.8477 -0.0020
 1207TIP3   OH225035   2.059   3.076   1.784  0.0136  0.3339  0.3152
 1207TIP3    H125036   2.126   3.020   1.823  0.1332 -0.1885 -0.6085
 1207TIP3    H225037   1.980   3.022   1.787  0.4240 -0.4925 -1.8520
 1208TIP3   OH225038   4.068   2.588   5.408  0.2564 -0.1048  0.5396
 1208TIP3    H125039   4.129   2.517   5.427  2.1057  1.2896  0.1412
 1208TIP3    H225040   4.125   2.663   5.388 -1.6046  1.4120  0.6826
 1209TIP3   OH225041   6.361   3.270   2.344  0.0704  0.1362 -0.0136
 1209TIP3    H125042   6.294   3.311   2.289 -1.0488 -2.3151 -0.5724
 1209TIP3    H225043   6.361   3.178   2.319  1.1409 -0.6502  2.4980
 1210TIP3   OH225044   2.025   2.546   5.844 -0.0517 -0.1841  0.2276
 1210TIP3    H125045   2.048   2.453   5.835  1.5805  0.3127 -1.4121
 1210TIP3    H225046   2.074   2.575   5.921  1.8808 -0.0601 -0.9709
 1211TIP3   OH225047   6.150   3.390  16.320  0.1303  0.3633  0.3812
 1211TIP3    H125048   6.153   3.348  16.405  1.4094  3.2181  1.8848
 1211TIP3    H225049   6.212   3.340  16.266  1.2211  0.0430  1.8938
 1212TIP3   OH225050   1.793   6.663   0.219 -0.1536 -0.1054 -0.1370
 1212TIP3    H125051   1.784   6.680   0.313 -2.2757 -0.2285 -0.2757
 1212TIP3    H225052   1.854   6.590   0.213  1.9765  1.4659  0.9631
 1213TIP3   OH225053   6.339   0.937  12.544  0.4200  0.7506 -0.0241
 1213TIP3    H125054   6.302   0.966  12.628  0.6838  4.5037 -1.0389
 1213TIP3    H225055   6.264   0.936  12.484  0.6060  0.1659 -0.2567
 1214TIP3   OH225056   0.051   5.825  17.163 -0.4454  0.2400  0.3196
 1214TIP3    H125057   0.045   5.898  17.225 -1.4487  1.1831 -0.8627
 1214TIP3    H225058  -0.019   5.765  17.189 -1.4140  1.0366 -0.3785
 1215TIP3   OH225059   4.772   1.798  12.816  0.1150 -0.3221 -0.3556
 1215TIP3    H125060   4.735   1.726  12.868  0.8643 -0.9204 -0.6340
 1215TIP3    H225061   4.717   1.873  12.838  0.6555 -0.4433  1.6349
 1216TIP3   OH225062   5.647   2.707   0.799 -0.1494  0.0636 -0.4493
 1216TIP3    H125063   5.722   2.766   0.804  0.4608 -0.7536  0.2683
 1216TIP3    H225064   5.674   2.629   0.847  0.2467 -2.1345 -3.9250
 1217TIP3   OH225065   1.070   1.238  14.093  0.0251  0.1529 -0.7059
 1217TIP3    H125066   1.018   1.172  14.048 -0.4527  0.1063 -0.0999
 1217TIP3    H225067   1.029   1.321  14.070  1.0016  0.3186 -1.9773
 1218TIP3   OH225068   2.945   0.245   4.102  0.3819 -0.2153 -0.1049
 1218TIP3    H125069   3.014   0.308   4.124  2.1393 -0.5157 -3.9334
 1218TIP3    H225070   2.991   0.162   4.092 -0.7240 -0.6757 -1.6210
 1219TIP3   OH225071   6.731   6.421   2.531 -0.5630 -0.3728  1.1084
 1219TIP3    H125072   6.727   6.504   2.578 -0.4023 -0.4626  1.2847
 1219TIP3    H225073   6.688   6.438   2.447 -1.9420 -0.5285  1.7497
 1220TIP3   OH225074   2.834   2.264  15.387  0.5096 -0.2151 -0.4505
 1220TIP3    H125075   2.774   2.260  15.313 -0.2277  2.2575 -0.0675
 1220TIP3    H225076   2.917   2.229  15.353 -0.0731 -0.0347 -2.1438
 1221TIP3   OH225077   1.639   0.069   1.527 -0.4196 -0.1952  0.6292
 1221TIP3    H125078   1.569   0.119   1.569  1.1280  0.6129  2.3808
 1221TIP3    H225079   1.641   0.100   1.436 -1.4840  0.6840  0.8983
 1222TIP3   OH225080   1.353   6.568   6.270  0.2541  0.0286 -0.0195
 1222TIP3    H125081   1.381   6.493   6.323  0.4040  0.4654  0.5438
 1222TIP3    H225082   1.384   6.548   6.182 -2.1653 -1.8774 -0.5435
 1223TIP3   OH225083   4.681   1.414  16.130  0.2350 -0.1248  0.1600
 1223TIP3    H125084   4.746   1.476  16.161  1.3624 -1.3431  0.3085
 1223TIP3    H225085   4.694   1.411  16.035 -0.5042  0.5917  0.0205
 1224TIP3   OH225086   5.704   2.782   4.559 -0.2845 -0.0256  0.7805
 1224TIP3    H125087   5.610   2.791   4.547  0.0933  1.2864 -1.7191
 1224TIP3    H225088   5.713   2.712   4.624 -2.9317 -1.7258 -0.5078
 1225TIP3   OH225089   1.550   3.442   4.744 -0.0830 -0.1722  0.1808
 1225TIP3    H125090   1.458   3.423   4.761 -0.0291 -1.1670 -0.5484
 1225TIP3    H225091   1.549   3.520   4.690 -0.3784  1.2044  2.0658
 1226TIP3   OH225092   0.572   4.644   5.447 -0.0389  0.1895  0.1615
 1226TIP3    H125093   0.617   4.663   5.365  0.8287 -1.6579  0.1559
 1226TIP3    H225094   0.634   4.670   5.516 -1.1454  2.6578  0.3240
 1227TIP3   OH225095   5.677   5.771  17.219 -0.6770 -0.1433  0.0268
 1227TIP3    H125096   5.681   5.763  17.124 -0.5006  1.1728 -0.0982
 1227TIP3    H225097   5.750   5.830  17.241 -2.0828  1.4207  0.7166
 1228TIP3   OH225098   0.133   2.160  11.745  0.1759  0.1132 -0.2371
 1228TIP3    H125099   0.206   2.210  11.709  0.3330 -0.1767 -0.3250
 1228TIP3    H225100   0.055   2.205  11.713  0.3149  0.0814 -0.6309
 1229TIP3   OH225101   0.389   5.381   0.233  0.3359  0.6321 -0.1034
 1229TIP3    H125102   0.426   5.294   0.245  2.7811  1.5704 -0.2459
 1229TIP3    H225103   0.333   5.373   0.155  1.9876 -0.4273 -1.2466
 1230TIP3   OH225104   0.081   6.051  14.172  0.3857 -0.1852 -0.3360
 1230TIP3    H125105   0.025   5.974  14.168  0.5660 -0.4690  1.5959
 1230TIP3    H225106   0.036   6.111  14.232  1.1214  0.4548 -0.4029
 1231TIP3   OH225107   5.952   1.308  16.004 -0.3849 -0.1828 -0.0329
 1231TIP3    H125108   5.886   1.377  16.001  1.3475  1.5320 -2.4654
 1231TIP3    H225109   6.023   1.345  16.057  0.2334 -0.4317 -0.6804
 1232TIP3   OH225110   0.479   4.447  15.757  0.5529 -1.0222 -0.3623
 1232TIP3    H125111   0.438   4.526  15.723 -1.2371 -1.1460  1.3525
 1232TIP3    H225112   0.568   4.475  15.780  0.3998  0.1292 -1.0892
 1233TIP3   OH225113   4.292   0.989  12.210  0.1323  0.0535  0.0367
 1233TIP3    H125114   4.382   1.019  12.197 -0.5877  3.8439  2.4695
 1233TIP3    H225115   4.293   0.945  12.295 -0.5064  1.2484  0.6798
 1234TIP3   OH225116   6.687   4.144  14.102  0.1217 -0.7223  0.2487
 1234TIP3    H125117   6.709   4.180  14.188  1.4032  0.9160 -0.6896
 1234TIP3    H225118   6.599   4.178  14.083 -0.7005 -2.1294  1.4024
 1235TIP3   OH225119   3.995   1.883  14.746 -0.3186 -0.4314  0.8226
 1235TIP3    H125120   3.910   1.862  14.709 -0.5659  0.6978  0.7116
 1235TIP3    H225121   3.979   1.961  14.800  0.9407  0.7789 -0.4932
 1236TIP3   OH225122   0.870   4.665  11.693 -0.3837  0.0775 -0.0860
 1236TIP3    H125123   0.861   4.640  11.602  2.5882 -2.0011  0.0485
 1236TIP3    H225124   0.815   4.603  11.741 -0.2878 -0.2081 -0.3422
 1237TIP3   OH225125   5.856   0.037   6.075  0.7885 -0.2591  0.1285
 1237TIP3    H125126   5.864  -0.034   6.011 -1.1578 -1.4304  1.0927
 1237TIP3    H225127   5.936   0.029   6.128  0.6099 -1.7974  0.2312
 1238TIP3   OH225128   1.053   6.562   0.682  0.4131  0.8269  0.0948
 1238TIP3    H125129   0.983   6.618   0.716 -1.4221 -1.5273  0.4877
 1238TIP3    H225130   1.033   6.551   0.589 -1.3727 -1.8279  0.6655
 1239TIP3   OH225131   2.107   6.223  16.573 -0.4218  0.2150 -0.0051
 1239TIP3    H125132   2.093   6.283  16.646  2.5216 -1.2701  2.0193
 1239TIP3    H225133   2.092   6.136  16.611 -0.1894 -0.5423 -1.5700
 1240TIP3   OH225134   6.192   4.754  15.301  0.5044 -0.0613  1.0354
 1240TIP3    H125135   6.132   4.688  15.268 -0.6356  0.4197  2.0580
 1240TIP3    H225136   6.139   4.808  15.360  1.2388  2.1162 -0.1611
 1241TIP3   OH225137   2.871   5.024  11.218 -0.1740  0.1299  0.5258
 1241TIP3    H125138   2.785   5.062  11.202 -0.3332 -0.1202  0.7864
 1241TIP3    H225139   2.914   5.026  11.132 -0.1752  0.9002  0.5417
 1242TIP3   OH225140   3.625   1.211  16.727 -0.1744  0.0760  0.4979
 1242TIP3    H125141   3.670   1.229  16.810 -0.2524  0.6849  0.4112
 1242TIP3    H225142   3.625   1.295  16.681 -0.7880 -0.0814  0.2004
 1243TIP3   OH225143   3.369   1.993  17.040 -0.5613  0.2552 -0.4382
 1243TIP3    H125144   3.450   2.005  16.990  0.2641 -1.3540  0.4063
 1243TIP3    H225145   3.349   1.900  17.029 -0.4523 -0.1241  2.0172
 1244TIP3   OH225146   5.518   6.092   5.122  0.2461 -0.3396  0.4074
 1244TIP3    H125147   5.558   6.009   5.147 -1.8164 -1.3734  0.4601
 1244TIP3    H225148   5.471   6.073   5.041  1.7117  1.4195 -0.9223
 1245TIP3   OH225149   1.239   3.666   4.487  0.5788 -0.1679 -0.7865
 1245TIP3    H125150   1.214   3.587   4.439  2.1154 -1.2593  0.0930
 1245TIP3    H225151   1.157   3.700   4.523 -0.7318  0.9967 -4.4641
 1246TIP3   OH225152   4.806   0.165   0.024 -0.2920 -0.1112 -0.1136
 1246TIP3    H125153   4.739   0.203  -0.032 -0.0679  1.5661  0.6906
 1246TIP3    H225154   4.845   0.240   0.070  0.2507 -1.2945  1.4785
 1247TIP3   OH225155   4.648   1.128  16.416 -0.0285  0.4483 -0.5175
 1247TIP3    H125156   4.714   1.085  16.362  0.5289  1.9437 -1.1059
 1247TIP3    H225157   4.685   1.129  16.504  1.5946  2.7299 -1.1198
 1248TIP3   OH225158   6.233   5.371  15.655 -0.5964  0.0831 -0.1324
 1248TIP3    H125159   6.191   5.429  15.719 -1.2941 -1.5364  0.9370
 1248TIP3    H225160   6.215   5.412  15.570 -0.3752  1.8351  0.6269
 1249TIP3   OH225161   5.030   2.879  13.740 -0.4016  0.2522  0.2113
 1249TIP3    H125162   5.064   2.952  13.791  2.7770 -1.7154  1.1580
 1249TIP3    H225163   4.935   2.883  13.753 -0.1731  3.0440  1.7324
 1250TIP3   OH225164   4.783   5.007   2.166  0.0036 -0.5056  0.2384
 1250TIP3    H125165   4.835   5.082   2.195  2.7816 -2.4489  0.6074
 1250TIP3    H225166   4.707   5.007   2.224  0.7390  1.1114  1.2759
 1251TIP3   OH225167   4.995   4.715  13.583  0.1073 -0.2867  0.7266
 1251TIP3    H125168   5.076   4.758  13.556 -0.3176  0.1765  0.1464
 1251TIP3    H225169   4.929   4.784  13.578 -0.6043 -1.0168 -0.2982
 1252TIP3   OH225170   4.970   0.262   1.011 -0.4873 -0.1387  0.4688
 1252TIP3    H125171   5.013   0.266   1.096  0.4996 -0.2622 -0.0060
 1252TIP3    H225172   4.879   0.242   1.031 -0.4524  0.6733  1.5378
 1253TIP3   OH225173   6.070   4.354   3.315  0.3435  0.2458 -0.2586
 1253TIP3    H125174   6.074   4.386   3.225  1.5266  0.9700  0.0328
 1253TIP3    H225175   6.042   4.262   3.307  3.7362 -0.8335 -1.6714
 1254TIP3   OH225176   1.349   2.459  15.825 -0.6071  0.1486  0.1746
 1254TIP3    H125177   1.394   2.433  15.744 -1.1315  1.1560 -0.4657
 1254TIP3    H225178   1.266   2.412  15.823 -0.3963 -0.2324  0.3915
 1255TIP3   OH225179   3.754   0.760   2.532 -0.2270 -0.0386  0.0044
 1255TIP3    H125180   3.732   0.675   2.570 -0.6342 -0.6003 -1.4195
 1255TIP3    H225181   3.695   0.822   2.574 -1.0665 -0.7306 -0.1395
 1256TIP3   OH225182   5.565   4.253  15.683 -0.5214  0.3298 -0.0891
 1256TIP3    H125183   5.622   4.176  15.674 -1.0712 -0.0872 -0.0713
 1256TIP3    H225184   5.527   4.244  15.771  0.0723  1.0919  0.2616
 1257TIP3   OH225185   2.453   5.828  13.028 -0.4889 -0.1591 -0.0087
 1257TIP3    H125186   2.482   5.812  12.938  0.6207 -0.8545  0.4477
 1257TIP3    H225187   2.359   5.810  13.027 -0.6175  0.4745 -1.1614
 1258TIP3   OH225188   3.561   4.982   5.876  0.1483  0.2438  0.0558
 1258TIP3    H125189   3.526   5.013   5.792  2.5566  0.7335 -0.8595
 1258TIP3    H225190   3.525   5.041   5.941 -0.1418  1.1528 -0.9072
 1259TIP3   OH225191   1.585   4.555  15.266 -0.2440  0.1226 -0.0788
 1259TIP3    H125192   1.510   4.528  15.318 -0.7309 -1.1102 -1.3541
 1259TIP3    H225193   1.646   4.482  15.272  0.4531  0.7107  0.1750
 1260TIP3   OH225194   4.112   2.463   2.275  0.0449  0.4918 -0.0360
 1260TIP3    H125195   4.118   2.556   2.255 -0.8362  1.1016  2.1578
 1260TIP3    H225196   4.203   2.436   2.291  0.3113  0.9383 -0.7447
 1261TIP3   OH225197   0.523   2.141  17.012 -0.3664  0.0632 -0.2657
 1261TIP3    H125198   0.463   2.066  17.013  1.3512 -1.4049 -0.8760
 1261TIP3    H225199   0.506   2.187  17.095 -0.8970 -1.4952  0.5294
 1262TIP3   OH225200   3.162   6.543  17.256  0.8884 -0.1101 -0.1107
 1262TIP3    H125201   3.154   6.589  17.173  2.2122 -0.7861 -0.6440
 1262TIP3    H225202   3.131   6.454  17.238  0.5924 -0.0887  0.2828
 1263TIP3   OH225203   3.215   3.080   3.542 -0.1179 -0.4526 -0.8894
 1263TIP3    H125204   3.201   2.994   3.581 -0.5954 -0.9822 -2.1597
 1263TIP3    H225205   3.307   3.080   3.515  0.0844 -0.2668 -0.2091
 1264TIP3   OH225206   6.304   5.097  14.770 -0.0843 -0.1176 -0.2593
 1264TIP3    H125207   6.372   5.099  14.703  0.6892  1.2766  0.5402
 1264TIP3    H225208   6.292   5.004  14.788  0.5235 -0.4599 -1.4758
 1265TIP3   OH225209   3.165   1.329  13.597  0.6169  0.0130  0.0940
 1265TIP3    H125210   3.111   1.356  13.672  0.4134  1.3427 -0.5042
 1265TIP3    H225211   3.251   1.368  13.615  1.3166 -1.7593  0.8447
 1266TIP3   OH225212   5.199   3.692   0.728  0.2952 -0.0261  0.1301
 1266TIP3    H125213   5.201   3.759   0.660 -0.0984  0.7850  0.9041
 1266TIP3    H225214   5.258   3.725   0.796 -0.4691 -0.0949  0.8416
 1267TIP3   OH225215   5.682   1.310   2.554  0.2691 -0.1057 -0.1726
 1267TIP3    H125216   5.594   1.286   2.583 -0.1645  1.9687  0.3938
 1267TIP3    H225217   5.669   1.376   2.486  1.3919 -0.4187 -0.7255
 1268TIP3   OH225218   5.724   2.962   0.645 -0.1637  0.2840 -0.1310
 1268TIP3    H125219   5.728   3.023   0.571 -0.6139  0.4844  0.0051
 1268TIP3    H225220   5.686   3.014   0.716 -1.3953 -0.3923 -0.2667
 1269TIP3   OH225221   1.622   0.325  16.529  0.2051  0.5023  0.7779
 1269TIP3    H125222   1.648   0.296  16.616  2.4556 -0.2000 -0.0580
 1269TIP3    H225223   1.675   0.404  16.513  0.7864 -0.1001 -0.4023
 1270TIP3   OH225224   4.702   1.007   3.241 -0.3020 -0.0916 -0.5330
 1270TIP3    H125225   4.607   1.007   3.233 -0.3397 -2.2443 -0.7747
 1270TIP3    H225226   4.723   0.923   3.281  1.4373  0.8924  0.7687
 1271TIP3   OH225227   3.918   4.742  12.592 -0.5212 -0.4857 -0.3098
 1271TIP3    H125228   3.990   4.689  12.626 -1.0286 -0.5638  0.6807
 1271TIP3    H225229   3.884   4.788  12.668 -0.6940  0.5561 -0.9964
 1272TIP3   OH225230   6.197   6.559   4.721 -0.3386  0.1446  0.4487
 1272TIP3    H125231   6.212   6.535   4.812 -0.0761 -0.5305  0.2325
 1272TIP3    H225232   6.242   6.492   4.670 -1.4566 -0.1617 -0.1914
 1273TIP3   OH225233   1.886   5.675   1.846  0.1175  0.9907  0.0590
 1273TIP3    H125234   1.866   5.705   1.935  1.2031  0.4657  0.5043
 1273TIP3    H225235   1.873   5.580   1.850  2.8011  0.5543  0.4756
 1274TIP3   OH225236   0.790   5.568  14.118  0.4346 -0.3507 -0.2358
 1274TIP3    H125237   0.796   5.565  14.214  2.1191 -2.2092 -0.3335
 1274TIP3    H225238   0.763   5.481  14.092 -1.1308  0.4536 -1.4506
 1275TIP3   OH225239   3.702   3.173  12.436  0.2090  0.2461 -0.1650
 1275TIP3    H125240   3.630   3.143  12.381 -0.1968  0.0165  0.4815
 1275TIP3    H225241   3.666   3.173  12.525  1.5070 -1.5819  0.4293
 1276TIP3   OH225242   4.028   0.551   1.388  0.1269  0.2128  1.1846
 1276TIP3    H125243   3.952   0.497   1.410 -0.5142 -0.2462 -1.7954
 1276TIP3    H225244   4.103   0.492   1.398 -0.1060  0.0469  2.0461
 1277TIP3   OH225245   3.644   4.674  15.529  0.1615  0.3660  0.0024
 1277TIP3    H125246   3.723   4.712  15.568 -0.7444  0.5437  1.8096
 1277TIP3    H225247   3.675   4.600  15.478  1.8857  2.7643 -2.7561
 1278TIP3   OH225248   4.418   2.310   1.715 -0.5250 -0.2759  0.0720
 1278TIP3    H125249   4.385   2.395   1.686 -0.4142  0.5115  2.1361
 1278TIP3    H225250   4.444   2.266   1.634 -2.8845  0.6388 -1.2855
 1279TIP3   OH225251   2.769   4.051  17.138 -0.3393  0.3596 -0.8519
 1279TIP3    H125252   2.745   3.965  17.104  0.8083 -0.0426 -0.6903
 1279TIP3    H225253   2.861   4.042  17.164 -1.1665  0.5806  2.5858
 1280TIP3   OH225254   4.876   4.219  12.310 -0.0544  0.1422  0.9346
 1280TIP3    H125255   4.917   4.157  12.251 -1.0947 -0.6044  0.9613
 1280TIP3    H225256   4.891   4.183  12.398 -0.7970 -0.1737  0.9402
 1281TIP3   OH225257   4.730   4.374   0.283 -0.2952  0.1123  0.2344
 1281TIP3    H125258   4.670   4.434   0.327  0.3332  1.6781 -0.9525
 1281TIP3    H225259   4.681   4.343   0.207 -0.3369 -0.2484  0.4098
 1282TIP3   OH225260   0.764   1.287  15.078 -0.6155 -0.2385  0.1163
 1282TIP3    H125261   0.750   1.233  15.000  0.6900  0.2272 -0.4801
 1282TIP3    H225262   0.831   1.350  15.051 -2.7705  2.3882  0.4237
 1283TIP3   OH225263   0.509   1.251   2.655  0.3821 -0.2392 -0.0819
 1283TIP3    H125264   0.558   1.256   2.573 -1.9060  0.1603 -1.5183
 1283TIP3    H225265   0.417   1.244   2.627 -0.3421 -2.0259  2.4281
 1284TIP3   OH225266   3.721   3.960   0.671  0.2779 -0.0951 -0.2105
 1284TIP3    H125267   3.777   3.883   0.684  0.4249 -0.0279 -0.4373
 1284TIP3    H225268   3.744   3.992   0.583  0.1365  0.1407 -0.1629
 1285TIP3   OH225269   5.519   5.696  15.815 -0.0715  0.0573 -0.0203
 1285TIP3    H125270   5.503   5.612  15.859  0.2957  0.3899  0.7576
 1285TIP3    H225271   5.455   5.698  15.744  1.4250 -1.9484 -1.5570
 1286TIP3   OH225272   3.452   1.975  15.112  0.6115 -0.2928 -0.2410
 1286TIP3    H125273   3.375   1.994  15.058  2.4647  1.9949 -2.3962
 1286TIP3    H225274   3.459   1.880  15.112 -0.4892 -0.4651 -2.7154
 1287TIP3   OH225275   1.974   4.426   1.861 -0.4906 -1.1312  0.4679
 1287TIP3    H125276   1.921   4.376   1.799 -0.8480 -0.4046  0.1771
 1287TIP3    H225277   2.012   4.497   1.809 -1.0027 -0.3587  1.1053
 1288TIP3   OH225278   1.701   4.932   1.196  0.1801 -0.1185  0.1509
 1288TIP3    H125279   1.736   4.942   1.285 -0.8337  1.1401  0.4477
 1288TIP3    H225280   1.758   4.868   1.155  0.2650 -1.2555  1.9256
 1289TIP3   OH225281   4.894   1.445   2.772  0.1785  0.0218  0.4345
 1289TIP3    H125282   4.816   1.436   2.718  1.7612 -0.1816 -1.9543
 1289TIP3    H225283   4.919   1.537   2.762  1.3850 -0.3871 -0.5789
 1290TIP3   OH225284   3.602   5.017  15.840 -0.0238  0.0702  0.7613
 1290TIP3    H125285   3.608   5.112  15.826 -0.6515  0.4971  2.8666
 1290TIP3    H225286   3.508   4.998  15.832  0.4048 -1.3112 -4.0939
 1291TIP3   OH225287   2.079   6.703   3.902 -0.1026  0.3976  0.1286
 1291TIP3    H125288   2.053   6.713   3.993  0.4447 -0.8938  0.4527
 1291TIP3    H225289   2.163   6.656   3.906  0.1910  0.7808 -1.0192
 1292TIP3   OH225290   5.733   1.554  14.020 -0.0491 -0.2099  0.1404
 1292TIP3    H125291   5.749   1.465  13.990  1.5307 -0.3624  1.3141
 1292TIP3    H225292   5.686   1.544  14.103 -1.6068  0.1364 -0.6498
 1293TIP3   OH225293   5.208   0.900   3.593 -0.4038 -0.5671 -0.1945
 1293TIP3    H125294   5.250   0.951   3.524  1.0017 -1.3555  0.0281
 1293TIP3    H225295   5.200   0.962   3.666  2.7261 -0.9245  0.6270
 1294TIP3   OH225296   5.149   6.171  15.603 -0.6446 -0.3242  0.6762
 1294TIP3    H125297   5.210   6.098  15.589  0.0550  0.6117 -1.6911
 1294TIP3    H225298   5.090   6.167  15.527 -0.1367  1.9296  0.0881
 1295TIP3   OH225299   4.942   2.302  13.339 -0.3396  0.0363 -0.3851
 1295TIP3    H125300   4.999   2.377  13.321  4.0387 -2.4001  1.7872
 1295TIP3    H225301   4.984   2.229  13.293 -1.0069 -2.1256  2.2050
 1296TIP3   OH225302   6.021   4.513   2.023 -0.3757 -0.2354 -0.0063
 1296TIP3    H125303   6.003   4.444   2.086 -0.1103 -0.6772 -0.4025
 1296TIP3    H225304   6.096   4.481   1.973 -0.2718  0.3235 -0.2238
 1297TIP3   OH225305   1.810   1.274  15.832  0.3548  0.2746  0.2689
 1297TIP3    H125306   1.743   1.266  15.900  0.0216 -2.1115 -0.2603
 1297TIP3    H225307   1.886   1.228  15.868  0.7820  0.5644 -0.2584
 1298TIP3   OH225308   3.794   4.454   1.989  0.3256 -0.4641 -0.4610
 1298TIP3    H125309   3.745   4.392   1.935  1.3790 -0.2930 -1.6647
 1298TIP3    H225310   3.780   4.539   1.947  0.9998 -0.2935 -0.3556
 1299TIP3   OH225311   5.653   2.423  15.702 -0.6557  0.2784 -0.1612
 1299TIP3    H125312   5.687   2.445  15.789 -1.8700  1.6884  0.0076
 1299TIP3    H225313   5.635   2.329  15.706 -0.7686  0.3328  1.1433
 1300TIP3   OH225314   2.816   5.875  14.063  0.2907 -0.6998 -0.2538
 1300TIP3    H125315   2.910   5.869  14.083  0.2739 -3.2995 -0.5790
 1300TIP3    H225316   2.805   5.962  14.026  2.3017  0.2005  1.0895
 1301TIP3   OH225317   0.357   5.169   3.113 -0.4543  0.7720 -0.1161
 1301TIP3    H125318   0.301   5.116   3.170 -0.5491 -0.3504 -1.2055
 1301TIP3    H225319   0.425   5.108   3.083  1.6481  2.1909  1.4856
 1302TIP3   OH225320   4.663   4.825   3.544  0.6931 -0.0258  0.1017
 1302TIP3    H125321   4.675   4.792   3.632 -0.0067 -0.4396  0.0498
 1302TIP3    H225322   4.703   4.759   3.487  1.7116  0.5461  0.1297
 1303TIP3   OH225323   5.732   1.179   3.580  0.1080 -0.3327 -0.3264
 1303TIP3    H125324   5.674   1.143   3.513  1.0271  0.7612 -1.7582
 1303TIP3    H225325   5.712   1.273   3.582  1.4762 -0.0219 -0.5040
 1304TIP3   OH225326   0.261   0.171  10.890 -0.1481 -0.2242 -0.1209
 1304TIP3    H125327   0.234   0.085  10.923 -0.6502  0.1072  0.3450
 1304TIP3    H225328   0.201   0.232  10.931  1.7763  0.6544  1.5593
 1305TIP3   OH225329   6.207   0.653   5.577  0.5404  0.2367 -0.0017
 1305TIP3    H125330   6.223   0.619   5.666 -0.6206  1.1297  0.5759
 1305TIP3    H225331   6.266   0.728   5.569  0.8778 -0.0391 -0.1067
 1306TIP3   OH225332   2.964   5.844  16.831 -0.4144  0.0925  0.5317
 1306TIP3    H125333   2.997   5.852  16.742 -0.3118  0.1766  0.5761
 1306TIP3    H225334   2.876   5.807  16.822 -0.8985  1.2327  0.3041
 1307TIP3   OH225335   1.000   1.795  12.029 -0.4940  0.3167  0.3338
 1307TIP3    H125336   0.959   1.724  11.981  0.2928 -0.1027  0.2734
 1307TIP3    H225337   1.058   1.838  11.966 -0.0621  0.2624  0.6862
 1308TIP3   OH225338   2.154   4.358   1.619  0.1824  0.5634  0.0764
 1308TIP3    H125339   2.083   4.302   1.587  0.6086  0.4577 -0.7160
 1308TIP3    H225340   2.118   4.447   1.614  0.3601  0.5816 -1.0530
 1309TIP3   OH225341   0.035   3.535  16.111  0.2488  0.1864  0.1494
 1309TIP3    H125342   0.081   3.477  16.050 -2.3245 -0.5853 -1.2626
 1309TIP3    H225343  -0.058   3.520  16.091 -0.5838  3.0930  1.3748
 1310TIP3   OH225344   6.299   2.520   0.962 -0.9057  0.1764  0.4472
 1310TIP3    H125345   6.232   2.579   0.997 -1.2535 -1.3192  2.5445
 1310TIP3    H225346   6.259   2.433   0.968  0.8878 -0.6613  0.8885
 1311TIP3   OH225347   3.011   6.745  16.170 -0.6600  0.1682  0.7190
 1311TIP3    H125348   2.941   6.746  16.236 -1.0021 -1.3331  0.4338
 1311TIP3    H225349   3.006   6.831  16.128  0.1853  1.5522  3.2349
 1312TIP3   OH225350   2.196   4.498  11.687  0.0105  0.2628  0.1472
 1312TIP3    H125351   2.209   4.569  11.750 -2.0643  0.5147  0.3630
 1312TIP3    H225352   2.107   4.511  11.654  0.1921 -1.2766 -1.0608
 1313TIP3   OH225353   5.600   5.021   1.289 -0.0706  0.6288 -0.8702
 1313TIP3    H125354   5.535   4.968   1.337 -1.1120  1.6280 -1.1180
 1313TIP3    H225355   5.682   4.972   1.297 -0.9537 -0.9429 -0.9816
 1314TIP3   OH225356   1.926   3.142   2.460  0.6815  0.6103 -0.4759
 1314TIP3    H125357   2.009   3.124   2.416  1.4381 -0.6676  1.3514
 1314TIP3    H225358   1.939   3.227   2.501  0.8846  0.6647 -0.6519
 1315TIP3   OH225359   1.874   4.913  17.309  0.3738 -0.0746  0.3205
 1315TIP3    H125360   1.839   4.839  17.359  0.4541  0.3664  1.0466
 1315TIP3    H225361   1.818   4.987  17.333  1.0525  0.3727  0.5555
 1316TIP3   OH225362   2.634   4.784   0.378 -0.1250 -0.8166  1.0179
 1316TIP3    H125363   2.628   4.825   0.292 -1.8440 -1.3365  0.8640
 1316TIP3    H225364   2.578   4.837   0.434  1.3858 -0.1742  1.9797
 1317TIP3   OH225365   4.080   4.119  16.515  0.1102  0.5200  0.0142
 1317TIP3    H125366   4.005   4.161  16.556 -1.2020  0.9513 -2.6008
 1317TIP3    H225367   4.088   4.163  16.430  1.8286 -1.1584 -0.7617
 1318TIP3   OH225368   1.680   6.247   4.094 -0.2942 -0.3947  0.2047
 1318TIP3    H125369   1.605   6.206   4.053 -0.3399  1.7007 -2.0763
 1318TIP3    H225370   1.654   6.260   4.186 -2.0813 -1.0988 -0.1725
 1319TIP3   OH225371   2.654   0.394  12.384 -0.8784  0.3033  0.8347
 1319TIP3    H125372   2.745   0.365  12.373 -0.8090 -0.2848  2.5907
 1319TIP3    H225373   2.643   0.463  12.319  0.3862 -0.5609 -0.3568
 1320TIP3   OH225374   0.195   6.061   2.884  0.4333 -0.3824  0.4412
 1320TIP3    H125375   0.269   6.107   2.844  0.2120 -0.8460 -0.5323
 1320TIP3    H225376   0.122   6.123   2.876 -0.0350 -1.0892 -1.4934
 1321TIP3   OH225377   0.686   5.533  17.193  0.1247 -0.0761  0.2564
 1321TIP3    H125378   0.725   5.452  17.160 -0.6821 -0.4855  0.2885
 1321TIP3    H225379   0.612   5.505  17.245 -0.1859  0.6866  0.2406
 1322TIP3   OH225380   4.382   3.599   5.422 -0.5242  0.0295  0.4799
 1322TIP3    H125381   4.356   3.604   5.330 -0.4060 -0.6186  0.4028
 1322TIP3    H225382   4.318   3.652   5.469 -0.6636  0.2539  0.0388
 1323TIP3   OH225383   6.452   1.979  17.332 -0.5168  0.0551  0.0933
 1323TIP3    H125384   6.410   2.016  17.255  0.9919  0.7378 -0.4482
 1323TIP3    H225385   6.541   2.014  17.330  0.2204 -1.6415  0.9444
 1324TIP3   OH225386   4.212   2.009  12.673 -0.0785  0.1971  0.1657
 1324TIP3    H125387   4.277   1.957  12.721  0.1089  0.2608 -0.0164
 1324TIP3    H225388   4.254   2.026  12.588 -0.0846  0.7634  0.2755
 1325TIP3   OH225389   3.620   1.728  14.877  0.7767  0.1239  0.0913
 1325TIP3    H125390   3.621   1.647  14.825  0.3537 -0.2752  0.6954
 1325TIP3    H225391   3.710   1.736  14.910  0.3020 -1.3933  1.9607
 1326TIP3   OH225392   4.605   0.861   0.464 -0.1143 -0.4091  0.3672
 1326TIP3    H125393   4.625   0.954   0.478  0.3397  0.0259 -2.4239
 1326TIP3    H225394   4.510   0.859   0.449 -0.1649 -0.4344  0.6934
 1327TIP3   OH225395   5.052   5.899  16.265 -0.2243  0.3382 -0.0221
 1327TIP3    H125396   5.004   5.832  16.313 -1.1860  1.6858  0.9981
 1327TIP3    H225397   5.078   5.962  16.333  0.7460  0.9329 -0.9224
 1328TIP3   OH225398   1.284   5.353   2.216  0.0740 -0.0235  0.1886
 1328TIP3    H125399   1.375   5.363   2.243 -0.0417 -0.2221  0.6493
 1328TIP3    H225400   1.239   5.428   2.254  0.5289  1.6007 -2.2668
 1329TIP3   OH225401   0.724   3.989  16.314  0.1967  0.4635  0.0621
 1329TIP3    H125402   0.737   3.941  16.396  0.5802  2.4513  1.2635
 1329TIP3    H225403   0.637   4.029  16.323  0.2836  0.7747 -0.4349
 1330TIP3   OH225404   3.574   4.772  16.277  0.7490 -0.8159  0.1473
 1330TIP3    H125405   3.650   4.804  16.228 -1.2556 -2.7078 -4.9039
 1330TIP3    H225406   3.589   4.678  16.285 -2.1761 -1.9233 -4.1111
 1331TIP3   OH225407   0.511   6.452  15.301  0.5878 -0.4095 -0.2043
 1331TIP3    H125408   0.440   6.406  15.255 -0.0519 -0.7910  1.1250
 1331TIP3    H225409   0.569   6.383  15.331  1.7338 -0.0830 -1.5394
 1332TIP3   OH225410   4.891   0.988   5.635 -0.7947 -1.0387  0.1721
 1332TIP3    H125411   4.985   1.003   5.647 -0.5040  0.0097 -2.6655
 1332TIP3    H225412   4.856   0.985   5.724  1.7585 -0.3915  1.3000
 1333TIP3   OH225413   4.513   3.890   5.462 -0.7971  0.8070  0.2744
 1333TIP3    H125414   4.532   3.831   5.536 -1.4717  0.3826  0.1186
 1333TIP3    H225415   4.586   3.878   5.402 -1.9385 -1.5497 -0.7785
 1334TIP3   OH225416   3.502   2.472  12.254  0.0494  0.0130 -0.1582
 1334TIP3    H125417   3.537   2.391  12.293  0.3407  0.8172  1.3441
 1334TIP3    H225418   3.448   2.510  12.323 -0.3991  0.9129 -0.9838
 1335TIP3   OH225419   6.095   2.966   6.530 -0.0242 -0.9262 -0.3729
 1335TIP3    H125420   6.072   2.887   6.480  1.6015 -0.5433 -1.8367
 1335TIP3    H225421   6.020   3.024   6.519  0.1271 -0.9996 -2.1541
 1336TIP3   OH225422   4.055   1.424   3.407 -0.3143 -0.1948  0.0563
 1336TIP3    H125423   4.031   1.414   3.500 -3.7461  2.9431 -0.2572
 1336TIP3    H225424   4.107   1.504   3.405 -2.4090  1.2106 -0.8941
 1337TIP3   OH225425   5.848   2.863  15.028  0.4913  0.1004 -0.8135
 1337TIP3    H125426   5.762   2.897  15.004  1.1142  0.8140 -2.1821
 1337TIP3    H225427   5.849   2.774  14.994 -0.1913 -0.4155  0.4521
 1338TIP3   OH225428   5.986   4.516   5.947 -0.1425 -0.0571  0.0938
 1338TIP3    H125429   6.038   4.532   6.026  0.3749 -1.9195  0.1725
 1338TIP3    H225430   5.906   4.475   5.979  1.1990 -3.4224 -0.4129
 1339TIP3   OH225431   1.706   4.797  15.308  0.2022  0.1116  0.0887
 1339TIP3    H125432   1.638   4.846  15.353 -1.4845 -0.5387 -1.6238
 1339TIP3    H225433   1.666   4.712  15.288  1.6553 -0.4593 -0.6063
 1340TIP3   OH225434   3.896   2.828  17.371  0.3692 -0.3498  0.0039
 1340TIP3    H125435   3.840   2.759  17.336  1.5098 -0.7477 -1.1419
 1340TIP3    H225436   3.983   2.788  17.374  1.2870  1.3386 -1.7459
 1341TIP3   OH225437   3.100   2.760  17.276 -0.2991 -0.0651 -0.4664
 1341TIP3    H125438   3.077   2.824  17.343 -0.0439 -0.3360 -0.1132
 1341TIP3    H225439   3.178   2.797  17.234 -0.4978  0.1365 -0.6605
 1342TIP3   OH225440   3.321   5.956   4.324 -0.2847 -0.3857  0.1308
 1342TIP3    H125441   3.415   5.970   4.311 -0.4643  0.0571 -0.7329
 1342TIP3    H225442   3.298   6.014   4.396 -0.0447  0.0683 -0.1522
 1343TIP3   OH225443   1.322   4.520  12.840  0.2472 -0.3549 -0.3315
 1343TIP3    H125444   1.307   4.593  12.780 -2.5173 -0.9836 -0.5304
 1343TIP3    H225445   1.304   4.442  12.788  0.4485 -1.0381  0.6010
 1344TIP3   OH225446   3.408   3.029   3.089 -0.0866  0.6858  0.2208
 1344TIP3    H125447   3.372   2.946   3.120 -0.4341  1.3863  1.7343
 1344TIP3    H225448   3.337   3.069   3.039 -0.0488  0.2752 -0.1766
 1345TIP3   OH225449   0.241   1.701   3.811  0.2942 -0.1833  0.1945
 1345TIP3    H125450   0.190   1.758   3.754  2.6052  1.2248 -0.5544
 1345TIP3    H225451   0.257   1.753   3.890  0.6093 -0.6148  0.4229
 1346TIP3   OH225452   1.511   0.420   5.993 -0.4520 -0.2404 -0.0534
 1346TIP3    H125453   1.511   0.445   6.086 -0.2279 -0.1512 -0.0770
 1346TIP3    H225454   1.418   0.409   5.971 -0.6388  1.6337 -0.3392
 1347TIP3   OH225455   6.737   3.906   3.002 -0.0764  0.1308 -0.2184
 1347TIP3    H125456   6.769   3.992   3.029 -0.8463  0.5228 -0.5185
 1347TIP3    H225457   6.676   3.924   2.931  0.5838 -0.7540 -1.0497
 1348TIP3   OH225458   4.639   4.311   3.702 -0.0752 -0.4384  0.3703
 1348TIP3    H125459   4.624   4.264   3.620  0.2267  0.2361 -0.0837
 1348TIP3    H225460   4.661   4.243   3.765 -0.6233 -0.9940 -0.0353
 1349TIP3   OH225461   1.682   6.587   1.683 -0.2320  0.5258  0.2187
 1349TIP3    H125462   1.659   6.665   1.633 -0.6295 -0.1465 -0.6769
 1349TIP3    H225463   1.598   6.544   1.701  0.1102 -1.5876 -2.4740
 1350TIP3   OH225464   1.909   4.051   5.674  0.1655 -0.5076 -0.0211
 1350TIP3    H125465   1.868   3.972   5.640 -1.6033  0.4564 -0.2675
 1350TIP3    H225466   1.982   4.020   5.728  0.0960 -2.2375 -0.8774
 1351TIP3   OH225467   3.486   0.646   3.964  0.2826  0.0815  0.2019
 1351TIP3    H125468   3.396   0.679   3.963  0.4960  0.6786  0.1738
 1351TIP3    H225469   3.513   0.653   4.055 -0.3546 -1.9696  0.6073
 1352TIP3   OH225470   2.252   2.246  10.857 -0.4927 -0.0122 -0.4731
 1352TIP3    H125471   2.239   2.173  10.917  1.2553 -0.2545 -0.3490
 1352TIP3    H225472   2.294   2.314  10.911  0.3790  0.0589 -1.2288
 1353TIP3   OH225473   0.025   4.381   1.491  0.2027 -0.4329  0.3025
 1353TIP3    H125474   0.090   4.368   1.422  1.5887 -0.7492  1.6354
 1353TIP3    H225475   0.060   4.450   1.546 -0.8481 -0.2331  0.7518
 1354TIP3   OH225476   1.785   1.099  12.775  0.2789  0.6260 -0.9415
 1354TIP3    H125477   1.851   1.050  12.726  1.2249  1.0111 -0.0889
 1354TIP3    H225478   1.706   1.045  12.770  0.9293 -0.3214 -1.1378
 1355TIP3   OH225479   2.308   4.652   4.228  0.1220 -0.1788  0.2306
 1355TIP3    H125480   2.356   4.612   4.155 -1.3531 -1.0078 -0.3277
 1355TIP3    H225481   2.303   4.583   4.294 -0.8231 -0.3203  0.0245
 1356TIP3   OH225482   6.425   0.243  15.946  0.2955 -0.0702  0.7709
 1356TIP3    H125483   6.398   0.252  15.855  0.9415  0.4107  0.6230
 1356TIP3    H225484   6.516   0.215  15.942  0.2908 -0.1655  1.2680
 1357TIP3   OH225485   6.603   5.466   1.350  0.0430 -0.4266 -0.4044
 1357TIP3    H125486   6.539   5.473   1.421  0.9062  0.2468  0.3391
 1357TIP3    H225487   6.603   5.552   1.309  2.2700  0.4685  1.2547
 1358TIP3   OH225488   2.997   2.558  17.107  0.2092 -0.0214  0.4629
 1358TIP3    H125489   2.906   2.582  17.091  0.7733  1.0358 -1.5061
 1358TIP3    H225490   3.032   2.630  17.161  0.4763  0.8404 -0.8250
 1359TIP3   OH225491   0.690   4.921  16.498 -0.3319 -0.1148 -0.2501
 1359TIP3    H125492   0.635   4.959  16.429 -0.1289 -1.1066 -0.9817
 1359TIP3    H225493   0.664   4.829  16.501  0.7156 -0.4189 -0.0477
 1360TIP3   OH225494   6.274   2.904  11.847  0.1100  0.4169 -0.4803
 1360TIP3    H125495   6.331   2.978  11.824  1.7172 -0.1358  1.4500
 1360TIP3    H225496   6.322   2.827  11.817  0.0164 -0.0203  0.4689
 1361TIP3   OH225497   4.598   6.226  16.808 -0.1888  0.4556  0.4813
 1361TIP3    H125498   4.547   6.296  16.849  0.4258  0.6406  0.9328
 1361TIP3    H225499   4.688   6.242  16.836 -0.3203 -1.8455  2.4945
 1362TIP3   OH225500   2.237   0.817   4.477 -0.2936 -0.0315 -0.4331
 1362TIP3    H125501   2.151   0.783   4.453 -0.0219 -0.6321 -0.5751
 1362TIP3    H225502   2.253   0.781   4.565 -0.1875  0.0751 -0.4086
 1363TIP3   OH225503   3.942   6.123   0.421  0.1719  0.1229  0.0379
 1363TIP3    H125504   3.936   6.072   0.502 -0.2270 -0.3017 -0.2496
 1363TIP3    H225505   3.888   6.201   0.437 -1.7069 -0.9729 -0.5422
 1364TIP3   OH225506   6.360   2.776   5.914  0.0667  0.3480  0.1832
 1364TIP3    H125507   6.434   2.724   5.945 -0.0719  0.3816  0.5690
 1364TIP3    H225508   6.295   2.770   5.983  0.1343  1.2196  0.3409
 1365TIP3   OH225509   3.541   1.157  15.807  0.7896  0.0153  0.0183
 1365TIP3    H125510   3.598   1.095  15.852  1.3882  0.0552 -0.6670
 1365TIP3    H225511   3.544   1.130  15.715 -1.3769 -0.8274  0.1332
 1366TIP3   OH225512   1.913   2.699  13.284 -0.1684 -0.1922  0.1855
 1366TIP3    H125513   1.942   2.690  13.375  1.0649 -1.2521 -0.2658
 1366TIP3    H225514   1.856   2.775  13.284  0.8679  0.6419  1.6053
 1367TIP3   OH225515   4.409   5.857   2.824 -0.1526  0.1379 -0.0879
 1367TIP3    H125516   4.423   5.764   2.806 -1.7299 -0.4021  1.1310
 1367TIP3    H225517   4.490   5.887   2.865  0.5769 -0.5467 -1.0110
 1368TIP3   OH225518   2.442   0.829   6.119 -0.3372  0.3989 -0.2098
 1368TIP3    H125519   2.507   0.897   6.135 -0.4971  0.2024  1.4650
 1368TIP3    H225520   2.450   0.770   6.194 -2.5289  0.4352  0.1249
 1369TIP3   OH225521   0.905   4.487  13.622  0.0186  0.6566  0.4899
 1369TIP3    H125522   0.937   4.545  13.554  0.0774  1.1376  0.9209
 1369TIP3    H225523   0.957   4.407  13.612  0.5718  1.0162  0.4733
 1370TIP3   OH225524   0.586   6.174  12.748  0.2177 -0.0069 -0.4953
 1370TIP3    H125525   0.535   6.096  12.766 -0.7777  0.7034 -0.1183
 1370TIP3    H225526   0.537   6.220  12.680 -0.0606  1.0509  0.3938
 1371TIP3   OH225527   5.645   3.762  11.106 -0.8867  0.1738  0.0528
 1371TIP3    H125528   5.665   3.812  11.026 -0.9618  2.6118  1.4561
 1371TIP3    H225529   5.571   3.809  11.145 -0.4080 -0.5260  1.8923
 1372TIP3   OH225530   0.534   5.309  11.290 -0.3078  0.0477 -0.0998
 1372TIP3    H125531   0.475   5.382  11.311  0.7137  0.7769  0.3429
 1372TIP3    H225532   0.516   5.243  11.356  0.1236  0.7249  0.7199
 1373TIP3   OH225533   2.494   3.603  11.722  0.2565  0.0397 -0.0802
 1373TIP3    H125534   2.402   3.600  11.696 -0.4413  1.9060  1.8705
 1373TIP3    H225535   2.517   3.512  11.741 -1.9313 -0.2284  1.6487
 1374TIP3   OH225536   5.754   3.186  11.575  0.2560 -0.1138  0.1932
 1374TIP3    H125537   5.731   3.093  11.569  1.5835 -0.4962  0.8716
 1374TIP3    H225538   5.768   3.212  11.484  0.4713 -0.7318  0.0441
 1375TIP3   OH225539   4.929   3.430  16.020  0.0784 -0.1447  0.6631
 1375TIP3    H125540   4.840   3.395  16.019  0.9381 -2.6478 -1.5177
 1375TIP3    H225541   4.958   3.418  16.110 -0.9371 -1.8316  0.8128
 1376TIP3   OH225542   3.364   5.376   4.826  0.4285  0.3348 -0.4133
 1376TIP3    H125543   3.270   5.362   4.821  0.3643  0.4027  0.4039
 1376TIP3    H225544   3.397   5.302   4.877  0.9311 -0.1077 -1.3631
 1377TIP3   OH225545   3.732   4.321  14.603  0.2460  0.4882 -0.4091
 1377TIP3    H125546   3.715   4.361  14.518  0.6926 -0.2775 -0.8744
 1377TIP3    H225547   3.751   4.395  14.661  0.0234  1.0134 -0.9967
 1378TIP3   OH225548   1.466   5.519   3.256 -0.3415  0.0464  0.2890
 1378TIP3    H125549   1.415   5.439   3.243 -1.4401  0.7592  0.1159
 1378TIP3    H225550   1.530   5.496   3.324  0.5510 -1.4975 -1.0123
 1379TIP3   OH225551   3.912   5.714   5.515 -0.1746 -0.5801 -0.3004
 1379TIP3    H125552   3.972   5.788   5.507 -2.3675  2.0806  3.9688
 1379TIP3    H225553   3.861   5.715   5.434  0.7441  1.8093 -0.9329
 1380TIP3   OH225554   6.331   4.045  10.527 -0.0708 -0.3117  0.3483
 1380TIP3    H125555   6.310   3.973  10.468 -1.0262  0.0740  0.1906
 1380TIP3    H225556   6.382   4.106  10.474 -1.3401  0.2674 -0.2653
 1381TIP3   OH225557   2.520   6.087   2.896  0.0552  0.0649 -0.3200
 1381TIP3    H125558   2.575   6.150   2.850  0.2083 -0.3729 -0.7409
 1381TIP3    H225559   2.431   6.108   2.868  0.2749 -1.3053 -2.2133
 1382TIP3   OH225560   4.890   4.771  16.636  0.3657 -0.0529 -0.5168
 1382TIP3    H125561   4.893   4.731  16.549  1.0831 -0.5690 -0.2626
 1382TIP3    H225562   4.953   4.721  16.688 -1.0003 -0.6412  0.6714
 1383TIP3   OH225563   1.017   2.868  15.021 -0.0295  0.1923 -0.2694
 1383TIP3    H125564   1.057   2.936  14.968 -1.5597  1.2999 -0.0839
 1383TIP3    H225565   1.031   2.895  15.111  1.5718 -1.1010 -0.0774
 1384TIP3   OH225566   1.087   2.695   0.219 -0.0431 -0.0694  0.3351
 1384TIP3    H125567   1.128   2.773   0.257 -0.4616  2.0116 -3.0716
 1384TIP3    H225568   1.150   2.662   0.155  0.2363 -2.8313  1.8534
 1385TIP3   OH225569   3.999   5.689  11.749 -0.0175  0.1440 -0.4238
 1385TIP3    H125570   4.034   5.760  11.803 -0.6831  0.1384  0.0260
 1385TIP3    H225571   4.050   5.612  11.775  2.0395  0.7703 -2.2605
 1386TIP3   OH225572   0.461   0.844  14.588  0.0670 -0.5052 -1.5225
 1386TIP3    H125573   0.443   0.932  14.555  0.4645  0.7624  1.3582
 1386TIP3    H225574   0.552   0.827  14.565 -0.4539 -0.8771 -3.4563
 1387TIP3   OH225575   3.100   1.791   6.067  0.0042  0.4860 -0.6257
 1387TIP3    H125576   3.173   1.819   6.122  0.2070 -0.1342 -0.5729
 1387TIP3    H225577   3.121   1.701   6.043 -0.4137  0.5260 -1.1673
 1388TIP3   OH225578   1.561   3.523   5.388 -0.2588 -0.1401  0.0989
 1388TIP3    H125579   1.527   3.449   5.439  0.8073 -1.6832 -1.3350
 1388TIP3    H225580   1.497   3.593   5.402 -0.7845 -0.9727  2.3109
 1389TIP3   OH225581   5.011   2.422   1.277  0.2156  0.4799  0.2470
 1389TIP3    H125582   5.015   2.407   1.372 -1.0975  1.9820  0.5907
 1389TIP3    H225583   4.939   2.366   1.247  0.2147  0.4772  0.2541
 1390TIP3   OH225584   6.658   2.420  13.112 -0.4223  0.3068  0.0126
 1390TIP3    H125585   6.668   2.351  13.178  0.1694  0.6967  0.3402
 1390TIP3    H225586   6.744   2.426  13.070  0.0074  1.8850  1.0295
 1391TIP3   OH225587   1.446   2.673   3.491  0.4638 -0.1553  0.7195
 1391TIP3    H125588   1.466   2.658   3.584  1.8521 -1.2934  0.2776
 1391TIP3    H225589   1.527   2.708   3.455 -0.1270  0.4579 -0.0397
 1392TIP3   OH225590   5.285   3.398  13.160  0.1020 -0.3154  0.0141
 1392TIP3    H125591   5.308   3.351  13.080  0.2733  1.2198 -0.8691
 1392TIP3    H225592   5.240   3.333  13.214  0.5805 -1.5594 -1.0284
 1393TIP3   OH225593   6.327   2.780  13.737  0.7317 -0.0298  0.3702
 1393TIP3    H125594   6.328   2.691  13.702  0.7570 -0.1303  0.6225
 1393TIP3    H225595   6.292   2.834  13.666 -3.0721 -0.7779  1.4584
 1394TIP3   OH225596   3.388   2.873  12.807  0.3432  0.7887 -0.3211
 1394TIP3    H125597   3.303   2.838  12.781  0.2105  1.1016 -0.3114
 1394TIP3    H225598   3.433   2.893  12.725  1.0704 -0.9275 -0.3722
 1395TIP3   OH225599   1.143   1.545  12.060 -0.8481  0.1824 -0.0229
 1395TIP3    H125600   1.165   1.536  11.967  0.0023 -0.0641  0.1946
 1395TIP3    H225601   1.188   1.625  12.088 -1.0774  0.2395  0.1885
 1396TIP3   OH225602   1.726   1.230  14.948  0.3385 -0.8807 -0.2770
 1396TIP3    H125603   1.641   1.225  14.992  0.4019 -0.2423 -0.0791
 1396TIP3    H225604   1.786   1.181  15.005  0.7119  1.0202  1.0711
 1397TIP3   OH225605   0.999   2.878  15.568 -0.6029  0.2552  0.0782
 1397TIP3    H125606   1.013   2.798  15.619 -0.5592  0.2047 -0.0122
 1397TIP3    H225607   1.064   2.940  15.600  0.2475 -0.1767 -0.7593
 1398TIP3   OH225608   1.338   2.282  16.117 -0.9741  0.5316 -0.2529
 1398TIP3    H125609   1.253   2.327  16.120 -1.1176  0.2078  1.1094
 1398TIP3    H225610   1.402   2.351  16.135 -0.9426  0.7534 -1.1650
 1399TIP3   OH225611   6.248   1.357  12.753  0.0434 -0.2783  0.5402
 1399TIP3    H125612   6.161   1.379  12.719  0.5628  2.0877  0.5841
 1399TIP3    H225613   6.309   1.387  12.686  0.9128  0.5627  1.6547
 1400TIP3   OH225614   2.155   4.788  11.250 -0.6704 -0.0646  0.6671
 1400TIP3    H125615   2.113   4.812  11.168  0.3909 -0.4912 -0.0250
 1400TIP3    H225616   2.248   4.806  11.236 -0.1138 -2.3817  0.8766
 1401TIP3   OH225617   4.646   2.100   0.282 -0.0308 -0.3407  0.1487
 1401TIP3    H125618   4.663   2.164   0.212  1.6090 -0.0374  0.7829
 1401TIP3    H225619   4.637   2.153   0.361  0.0437 -0.8151  0.4773
 1402TIP3   OH225620   6.733   2.134   1.470  0.0725 -0.2769  0.4318
 1402TIP3    H125621   6.698   2.218   1.498 -0.2822  0.0813 -0.9773
 1402TIP3    H225622   6.816   2.156   1.426  0.3266 -0.7388  0.6750
 1403TIP3   OH225623   0.739   2.430  14.198  0.7300  0.2469 -0.4738
 1403TIP3    H125624   0.679   2.384  14.258  0.3406  0.4883 -0.6775
 1403TIP3    H225625   0.685   2.497  14.157  0.5289 -1.0350 -2.4145
 1404TIP3   OH225626   5.880   5.790  13.849 -0.8779 -0.6321  0.5848
 1404TIP3    H125627   5.862   5.735  13.926  0.2135  0.2548  1.5156
 1404TIP3    H225628   5.816   5.861  13.855 -1.2308 -0.9151  0.2769
 1405TIP3   OH225629   4.852   2.439   4.779  0.4081  0.1407  0.3242
 1405TIP3    H125630   4.830   2.360   4.731  2.8433 -0.1770 -0.4275
 1405TIP3    H225631   4.858   2.411   4.871 -1.9934  0.2465  0.5685
 1406TIP3   OH225632   0.213   0.017   0.162 -0.5806 -0.2067  0.1461
 1406TIP3    H125633   0.153  -0.032   0.106 -0.5919 -0.9888  0.8303
 1406TIP3    H225634   0.259   0.076   0.102  1.1165 -2.6457 -1.1388
 1407TIP3   OH225635   4.024   6.291  15.604  0.2248 -0.4542 -0.6046
 1407TIP3    H125636   3.998   6.210  15.560  0.4429 -1.2105  0.6264
 1407TIP3    H225637   4.046   6.265  15.693 -2.6688  1.4015  0.8185
 1408TIP3   OH225638   6.330   0.462  15.281  0.1066  0.0846 -0.3357
 1408TIP3    H125639   6.243   0.465  15.241 -0.3261 -2.0550  0.3257
 1408TIP3    H225640   6.315   0.487  15.372  0.5309  1.5823 -0.6535
 1409TIP3   OH225641   2.768   5.914  13.080  0.5841  0.2599  0.4744
 1409TIP3    H125642   2.755   5.993  13.027  0.3166 -0.6183 -0.8195
 1409TIP3    H225643   2.775   5.843  13.016 -0.6301 -0.9858  1.6513
 1410TIP3   OH225644   2.420   5.980  13.951 -0.0471 -0.0624 -0.5964
 1410TIP3    H125645   2.507   5.973  13.912  0.1232  1.5128 -0.5376
 1410TIP3    H225646   2.367   5.917  13.902  1.3103 -1.7828  0.0165
 1411TIP3   OH225647   1.673   6.662   5.214  0.1166 -0.0238  0.2254
 1411TIP3    H125648   1.581   6.687   5.212  0.2702  0.6953  1.2737
 1411TIP3    H225649   1.679   6.586   5.155 -1.2229 -0.3449  0.4727
 1412TIP3   OH225650   5.224   4.420  14.646  0.1200  0.1050 -0.1259
 1412TIP3    H125651   5.135   4.397  14.618 -0.2797  1.3351  0.0317
 1412TIP3    H225652   5.230   4.386  14.735 -0.3125  0.2689 -0.0279
 1413TIP3   OH225653   4.352   4.017  15.112 -0.3267 -0.3157 -0.3237
 1413TIP3    H125654   4.320   3.932  15.081 -1.4724  0.5546 -1.6433
 1413TIP3    H225655   4.398   4.053  15.037  0.7830 -0.0469  0.4623
 1414TIP3   OH225656   3.092   6.717   1.841  0.1470  0.5346  0.2014
 1414TIP3    H125657   3.043   6.651   1.791  0.4551 -0.0707  0.6843
 1414TIP3    H225658   3.031   6.791   1.849 -0.7135 -0.2193  0.8348
 1415TIP3   OH225659   0.747   3.723  16.962  0.6619 -0.4215 -0.4829
 1415TIP3    H125660   0.805   3.720  17.038 -0.4328 -1.2267  0.3584
 1415TIP3    H225661   0.746   3.633  16.929 -0.1751 -0.4483 -0.4141
 1416TIP3   OH225662   3.453   6.185   5.365  0.4210  0.3287 -0.4816
 1416TIP3    H125663   3.473   6.094   5.387  0.1520  0.2519 -0.5587
 1416TIP3    H225664   3.494   6.235   5.436 -0.5402  0.0721  0.2781
 1417TIP3   OH225665   2.045   0.411  14.333  0.2578  0.3843 -0.5676
 1417TIP3    H125666   2.119   0.426  14.392 -0.9625 -1.1805  1.5531
 1417TIP3    H225667   2.074   0.442  14.248  3.0288  0.5780  0.3555
 1418TIP3   OH225668   5.220   1.066   5.371  0.3895  0.1370  0.3665
 1418TIP3    H125669   5.316   1.065   5.375  0.3993  0.2477  0.1687
 1418TIP3    H225670   5.199   1.021   5.290  0.3449  1.7986 -0.5966
 1419TIP3   OH225671   3.238   3.313  15.269 -0.1168 -0.5866  0.0542
 1419TIP3    H125672   3.272   3.375  15.204  0.9061 -0.8622  0.3029
 1419TIP3    H225673   3.298   3.323  15.343  0.2393 -2.0730 -0.0089
 1420TIP3   OH225674   6.151   4.029   1.105 -0.0862  0.4269  0.0316
 1420TIP3    H125675   6.231   4.000   1.150  0.0471  1.9717  0.9021
 1420TIP3    H225676   6.093   3.954   1.107  1.8498 -1.2420 -1.9557
 1421TIP3   OH225677   3.899   2.939  12.517 -0.7611 -0.1622 -0.2033
 1421TIP3    H125678   3.948   2.991  12.454 -0.9097 -1.4834 -1.4482
 1421TIP3    H225679   3.959   2.869  12.544 -1.1938 -0.4791 -0.0274
 1422TIP3   OH225680   3.727   4.500  13.358  0.4035 -0.1808  0.0982
 1422TIP3    H125681   3.680   4.418  13.343 -1.2010  0.5746  0.7085
 1422TIP3    H225682   3.677   4.565  13.308  0.8437  0.6430  0.7136
 1423TIP3   OH225683   0.868   5.396  13.460  0.0242 -0.2368  0.8448
 1423TIP3    H125684   0.906   5.422  13.376 -0.2611 -1.5153  0.2928
 1423TIP3    H225685   0.775   5.417  13.452 -0.5130 -2.6790 -0.2013
 1424TIP3   OH225686   2.197   2.883  12.443  0.0125  0.7795  0.1263
 1424TIP3    H125687   2.226   2.882  12.534 -1.5768  0.8501  0.6690
 1424TIP3    H225688   2.118   2.828  12.443  0.2867  0.3618 -1.3146
 1425TIP3   OH225689   6.252   3.599   2.264  0.0011 -0.1468 -0.1558
 1425TIP3    H125690   6.250   3.660   2.338  0.1971 -1.2293  0.7642
 1425TIP3    H225691   6.194   3.528   2.290  0.2551 -0.6575 -0.9601
 1426TIP3   OH225692   5.434   5.351  15.003  0.2092 -0.1906  0.2169
 1426TIP3    H125693   5.445   5.311  14.916  1.3141  0.9131 -0.1764
 1426TIP3    H225694   5.507   5.412  15.011  0.8924 -1.1958  2.4624
 1427TIP3   OH225695   4.316   0.900   0.396  0.5661  0.3485  0.8816
 1427TIP3    H125696   4.282   0.839   0.462  0.2906 -0.7388 -0.2279
 1427TIP3    H225697   4.239   0.947   0.365  0.3188 -0.7552 -0.2587
 1428TIP3   OH225698   3.535   4.301  15.350  0.4544 -0.0563 -0.1492
 1428TIP3    H125699   3.586   4.356  15.409  0.9099 -0.7391  0.1115
 1428TIP3    H225700   3.556   4.334  15.262  1.6513 -0.5489 -0.0768
 1429TIP3   OH225701   3.107   4.873   1.087 -0.1578 -0.1349 -0.0759
 1429TIP3    H125702   3.049   4.940   1.053 -4.5475 -2.9303  1.0853
 1429TIP3    H225703   3.103   4.883   1.182  1.8724 -0.0745  0.0566
 1430TIP3   OH225704   3.813   4.662   0.384 -0.1762 -0.3312  0.3269
 1430TIP3    H125705   3.872   4.720   0.432 -1.2075  0.4097  0.7051
 1430TIP3    H225706   3.748   4.719   0.345 -1.1932 -1.2271  0.6651
 1431TIP3   OH225707   2.197   5.782   3.430  0.0931 -0.2813  0.3476
 1431TIP3    H125708   2.155   5.850   3.377  2.0367  0.0293 -0.8637
 1431TIP3    H225709   2.247   5.831   3.496  0.2646 -0.5796  0.4390
 1432TIP3   OH225710   1.321   3.093  14.049  0.0922 -0.5109  0.0801
 1432TIP3    H125711   1.251   3.087  13.984  0.6469  0.4408 -0.6300
 1432TIP3    H225712   1.316   3.183  14.081  1.6572 -0.0958 -0.7671
 1433TIP3   OH225713   3.200   3.546   1.121  0.6075  0.6125 -0.3438
 1433TIP3    H125714   3.227   3.596   1.045  0.1648 -1.1562 -1.7351
 1433TIP3    H225715   3.104   3.548   1.119  0.5624 -1.0819 -1.0145
 1434TIP3   OH225716   6.564   2.159   5.596  0.4317  0.1757 -0.2455
 1434TIP3    H125717   6.515   2.094   5.646 -0.1171 -0.3515 -1.4110
 1434TIP3    H225718   6.656   2.140   5.614  0.2685 -0.7992 -0.4059
 1435TIP3   OH225719   2.507   1.812   2.984  0.2525 -0.2006  0.2141
 1435TIP3    H125720   2.542   1.898   2.962  1.1466 -0.3872  0.8251
 1435TIP3    H225721   2.418   1.813   2.950  0.0880  1.1318  0.6136
 1436TIP3   OH225722   2.274   1.374  16.393  0.1377  0.2112  0.1812
 1436TIP3    H125723   2.336   1.432  16.437  0.6714  0.0987 -0.4181
 1436TIP3    H225724   2.322   1.293  16.378  0.2751  0.5422 -1.3992
 1437TIP3   OH225725   6.081   3.565   5.108 -0.4403 -0.3211 -0.3705
 1437TIP3    H125726   6.103   3.604   5.193  0.8536 -0.8092 -0.4686
 1437TIP3    H225727   6.064   3.473   5.128 -3.6465  0.1982 -0.1127
 1438TIP3   OH225728   4.230   4.922   3.054 -0.1649  0.5468 -0.2479
 1438TIP3    H125729   4.251   5.014   3.041  1.4706  0.6635  2.4399
 1438TIP3    H225730   4.158   4.922   3.117  1.1000  0.0564  1.2729
 1439TIP3   OH225731   2.956   3.725   3.414 -0.1826  0.2675  0.0704
 1439TIP3    H125732   2.878   3.711   3.469 -0.1260  1.1506  0.4062
 1439TIP3    H225733   2.923   3.724   3.324 -0.5624  0.4604  0.2048
 1440TIP3   OH225734   0.549   3.310   4.138 -0.0169  0.6434  0.4148
 1440TIP3    H125735   0.500   3.389   4.115 -0.4554  0.1761 -0.2952
 1440TIP3    H225736   0.485   3.239   4.131  0.4179  0.2014  0.8651
 1441TIP3   OH225737   3.591   2.922   4.253 -0.6271  0.1633  0.0528
 1441TIP3    H125738   3.656   2.993   4.255 -0.4461 -0.0010  1.7201
 1441TIP3    H225739   3.541   2.937   4.173  2.0512 -0.2535 -1.8537
 1442TIP3   OH225740   5.670   0.053  12.952 -0.1074 -0.1615  0.2623
 1442TIP3    H125741   5.706   0.022  13.035  0.8317 -0.6324 -0.3098
 1442TIP3    H225742   5.746   0.064  12.895 -0.6402  1.0535 -0.2551
 1443TIP3   OH225743   6.111   0.537   3.539  0.0472  0.2207 -0.5503
 1443TIP3    H125744   6.021   0.558   3.564 -0.2217 -2.1057  0.8029
 1443TIP3    H225745   6.105   0.450   3.499  1.4845  0.8237 -2.2053
 1444TIP3   OH225746   0.021   1.131  13.204  0.5467 -0.1497 -0.4778
 1444TIP3    H125747  -0.016   1.211  13.168 -1.2857 -1.1538 -0.9333
 1444TIP3    H225748   0.082   1.101  13.137 -2.9778 -2.1245 -3.1238
 1445TIP3   OH225749   3.562   0.333   3.672 -0.2719  0.2145  0.4213
 1445TIP3    H125750   3.509   0.391   3.617 -0.3162 -0.4781 -0.2805
 1445TIP3    H225751   3.567   0.251   3.623  2.1493  0.5143  0.0547
 1446TIP3   OH225752   3.270   3.285  11.554 -0.2289  0.1472 -0.1821
 1446TIP3    H125753   3.253   3.309  11.645  0.0160 -0.1255 -0.0578
 1446TIP3    H225754   3.341   3.343  11.527  1.1894 -1.1769  0.4979
 1447TIP3   OH225755   0.136   1.305   0.445 -0.0315 -0.0335  0.2898
 1447TIP3    H125756   0.103   1.288   0.357  0.3581  1.7796 -0.2444
 1447TIP3    H225757   0.205   1.239   0.457 -1.7861 -1.9931  0.3143
 1448TIP3   OH225758   3.801   4.951  13.075 -0.1631  0.4668  0.0515
 1448TIP3    H125759   3.895   4.954  13.090  0.3796  0.5265 -2.7241
 1448TIP3    H225760   3.777   5.042  13.056 -1.0175  0.6283  1.7686
 1449TIP3   OH225761   0.272   3.044  11.353 -0.3135  0.7627  0.3840
 1449TIP3    H125762   0.295   3.034  11.446  0.3029 -0.0179  0.1514
 1449TIP3    H225763   0.332   2.987  11.307 -1.9387 -0.4259 -0.3371
 1450TIP3   OH225764   5.540   0.168  16.032  0.2816  0.1195  0.1796
 1450TIP3    H125765   5.446   0.170  16.051  0.4032  1.7537  0.8524
 1450TIP3    H225766   5.553   0.243  15.974  1.3268  0.6823  1.0996
 1451TIP3   OH225767   6.302   2.950  15.904 -0.2107 -0.9786 -0.1757
 1451TIP3    H125768   6.395   2.971  15.892 -0.4807  0.6549  0.4017
 1451TIP3    H225769   6.303   2.858  15.932  1.4123 -0.4797  1.6814
 1452TIP3   OH225770   5.126   6.488   1.621  0.4722 -0.3912  0.0884
 1452TIP3    H125771   5.143   6.394   1.612  4.7151  0.3027 -0.9401
 1452TIP3    H225772   5.134   6.504   1.715  0.2291 -0.9756  0.2146
 1453TIP3   OH225773   5.113   0.686  15.451  0.3624  0.3924 -0.9072
 1453TIP3    H125774   5.098   0.629  15.375  1.4207 -0.8560 -0.2114
 1453TIP3    H225775   5.025   0.706  15.483 -0.0695  0.2012 -1.9169
 1454TIP3   OH225776   4.458   2.130  16.289  0.5794 -0.3930 -0.2715
 1454TIP3    H125777   4.423   2.050  16.327 -1.0763  1.0220  1.3918
 1454TIP3    H225778   4.384   2.170  16.243  0.3201  1.7834  1.8037
 1455TIP3   OH225779   2.197   4.373   0.858 -0.2932 -0.5777  0.5561
 1455TIP3    H125780   2.129   4.407   0.799 -2.3678 -2.0855  1.9417
 1455TIP3    H225781   2.211   4.444   0.921  2.2509  1.2183 -1.8101
 1456TIP3   OH225782   6.112   3.099   4.566 -0.2898  0.5723  0.2691
 1456TIP3    H125783   6.088   3.091   4.659  1.3720  0.7318  0.7391
 1456TIP3    H225784   6.029   3.089   4.519 -0.9683 -0.9815  1.6963
 1457TIP3   OH225785   6.428   0.865  14.944  0.3487  0.1114 -0.2492
 1457TIP3    H125786   6.413   0.959  14.947  1.2768  0.2585  0.2085
 1457TIP3    H225787   6.393   0.832  15.026  0.1191  0.0715 -0.3624
 1458TIP3   OH225788   6.493   2.408  15.647 -0.5705  0.3637 -0.6239
 1458TIP3    H125789   6.425   2.407  15.714  0.5544 -1.1079  0.5549
 1458TIP3    H225790   6.463   2.345  15.581 -1.1025  0.9072 -0.9020
 1459TIP3   OH225791   1.962   1.505   4.529 -0.7284 -0.0109  0.3083
 1459TIP3    H125792   1.881   1.464   4.500 -1.3932  2.6304 -2.0774
 1459TIP3    H225793   1.968   1.585   4.476  2.4630  0.8753  1.7758
 1460TIP3   OH225794   5.877   5.473  10.940  0.0556 -0.5328  0.0037
 1460TIP3    H125795   5.837   5.417  11.006 -2.0796  0.5234 -0.3302
 1460TIP3    H225796   5.861   5.428  10.857  2.1763 -1.5360  0.0532
 1461TIP3   OH225797   4.999   4.046  17.339 -0.1163 -0.1837 -0.6950
 1461TIP3    H125798   4.955   4.098  17.272 -0.6421  0.5008  0.1588
 1461TIP3    H225799   4.935   3.978  17.361 -1.0647  1.1761  0.9877
 1462TIP3   OH225800   0.588   0.695   1.889 -0.2856 -0.3997  0.0102
 1462TIP3    H125801   0.547   0.711   1.804 -2.4800 -0.9529  0.8743
 1462TIP3    H225802   0.547   0.760   1.947 -0.7133 -1.6270  1.1278
 1463TIP3   OH225803   1.283   1.266  16.083  0.2432  0.1926 -0.0264
 1463TIP3    H125804   1.218   1.336  16.075 -1.1303 -1.0410 -0.1320
 1463TIP3    H225805   1.290   1.230  15.995  0.5350 -0.1583  0.1374
 1464TIP3   OH225806   3.905   0.754   3.495  0.7471  0.3907  0.0759
 1464TIP3    H125807   3.961   0.829   3.474  1.0286 -0.0394 -0.7572
 1464TIP3    H225808   3.966   0.687   3.526  0.6959 -0.0691 -0.8058
 1465TIP3   OH225809   3.288   3.712   5.538 -0.2737 -0.5826  0.5336
 1465TIP3    H125810   3.308   3.639   5.480 -0.5699  0.5280 -1.0288
 1465TIP3    H225811   3.369   3.725   5.587  1.0230  0.2036 -1.6519
 1466TIP3   OH225812   4.010   0.322  13.903 -0.1183  0.4389 -0.3546
 1466TIP3    H125813   3.967   0.351  13.823 -0.5147  2.6077  0.5674
 1466TIP3    H225814   3.993   0.227  13.907 -3.1415  0.8559 -1.0542
 1467TIP3   OH225815   6.479   0.400  16.138 -0.2553 -0.0663 -0.6634
 1467TIP3    H125816   6.429   0.351  16.204 -0.4552  1.0370  0.0371
 1467TIP3    H225817   6.443   0.373  16.054 -2.4405  1.0682 -0.1649
 1468TIP3   OH225818   2.449   4.536  14.372  0.3927 -0.3058 -0.5416
 1468TIP3    H125819   2.429   4.532  14.278 -0.1119 -3.1071 -0.4017
 1468TIP3    H225820   2.519   4.472  14.384 -1.3295 -1.9414  1.3356
 1469TIP3   OH225821   2.113   4.566  16.136 -0.9257  0.5314 -0.0485
 1469TIP3    H125822   2.136   4.579  16.044 -1.5742  1.7430 -0.0681
 1469TIP3    H225823   2.043   4.629  16.152 -0.6552  0.5106  1.3429
 1470TIP3   OH225824   3.132   4.340  11.276 -0.2705 -0.2392  0.1629
 1470TIP3    H125825   3.160   4.270  11.336  2.2196 -1.4927 -2.2272
 1470TIP3    H225826   3.084   4.295  11.207 -3.9316  1.2995  1.4809
 1471TIP3   OH225827   4.989   2.661  16.092 -0.2033  0.2889 -0.0666
 1471TIP3    H125828   4.920   2.727  16.083 -1.2209 -0.5700  1.1270
 1471TIP3    H225829   5.069   2.706  16.063 -1.3252  1.1247 -2.0574
 1472TIP3   OH225830   3.742   0.153   6.498 -0.0067 -0.3664 -0.1736
 1472TIP3    H125831   3.728   0.245   6.476  1.2894  0.1561  1.0486
 1472TIP3    H225832   3.835   0.138   6.481 -0.4580 -1.8577 -1.6496
 1473TIP3   OH225833   1.631   4.214   0.083  0.3767  0.1250  0.1979
 1473TIP3    H125834   1.675   4.288   0.041 -0.3341  0.3741 -0.1256
 1473TIP3    H225835   1.701   4.154   0.107  0.7798 -0.1678 -1.6150
 1474TIP3   OH225836   4.131   4.537  15.605  0.0037 -0.3276 -0.1300
 1474TIP3    H125837   4.118   4.616  15.657 -0.6540 -0.3445 -0.2655
 1474TIP3    H225838   4.076   4.550  15.528 -2.6377 -2.2507  1.2595
 1475TIP3   OH225839   3.628   2.257   2.897 -0.1167 -0.1889 -0.3492
 1475TIP3    H125840   3.561   2.192   2.879  1.0052 -2.0485  1.6921
 1475TIP3    H225841   3.707   2.224   2.853  0.5333 -0.4028  0.9364
 1476TIP3   OH225842   4.461   5.759  11.961  0.7532 -0.0750  0.0656
 1476TIP3    H125843   4.420   5.691  11.908  0.8517 -0.1026  0.0247
 1476TIP3    H225844   4.524   5.800  11.902  0.3755  0.3515 -0.0507
 1477TIP3   OH225845   2.812   1.883  12.352  0.5556  0.2341  0.0202
 1477TIP3    H125846   2.780   1.932  12.428 -0.5177  0.5644 -0.6145
 1477TIP3    H225847   2.738   1.826  12.328  1.3313 -0.7771 -0.0254
 1478TIP3   OH225848   4.589   1.554  12.556 -0.3354 -0.6303  0.6825
 1478TIP3    H125849   4.538   1.634  12.561 -0.2596 -0.6640  3.0047
 1478TIP3    H225850   4.673   1.581  12.518 -0.0370  0.5722  2.1132
 1479TIP3   OH225851   6.418   0.418   4.863 -0.0741 -0.2044  0.7564
 1479TIP3    H125852   6.493   0.366   4.835  0.7624  0.4109  1.7561
 1479TIP3    H225853   6.363   0.426   4.785  2.6333  2.3605 -1.0973
 1480TIP3   OH225854   4.447   4.546   1.757  0.4484  0.2007 -0.1065
 1480TIP3    H125855   4.354   4.567   1.766  0.0830 -1.3069 -0.0053
 1480TIP3    H225856   4.448   4.452   1.738  1.9919  0.0021  0.8125
 1481TIP3   OH225857   4.254   0.870  15.235  0.3728  0.3612  0.1878
 1481TIP3    H125858   4.347   0.872  15.213  0.7996 -1.7079  1.5221
 1481TIP3    H225859   4.218   0.950  15.196  2.6307  1.0589 -0.6040
 1482TIP3   OH225860   6.116   5.997   5.371 -0.0874  0.0946  0.3931
 1482TIP3    H125861   6.034   6.001   5.420 -0.1446 -0.2177  0.3251
 1482TIP3    H225862   6.143   5.905   5.376  2.1158  0.7571  3.4146
 1483TIP3   OH225863   6.649   0.793   3.960 -0.0479  0.7959 -0.1444
 1483TIP3    H125864   6.557   0.801   3.938 -0.1444  3.4540  0.8893
 1483TIP3    H225865   6.657   0.705   3.998 -1.0857 -1.4401 -4.5138
 1484TIP3   OH225866   4.571   5.120   4.442 -0.0675 -0.0303 -0.3529
 1484TIP3    H125867   4.623   5.200   4.446 -0.2131  0.0797 -0.6113
 1484TIP3    H225868   4.619   5.061   4.384 -0.7318  0.4550 -1.4401
 1485TIP3   OH225869   6.660   5.079  12.978 -0.0740 -0.1163 -0.0490
 1485TIP3    H125870   6.601   5.093  12.904 -0.8992 -1.3470  0.3535
 1485TIP3    H225871   6.722   5.151  12.973 -0.1135 -0.1798 -1.9418
 1486TIP3   OH225872   1.430   5.768   0.014  0.4865  0.3373  0.6598
 1486TIP3    H125873   1.398   5.681  -0.010  0.4943  0.3230  0.7009
 1486TIP3    H225874   1.492   5.752   0.086  0.0103  0.4292  1.0984
 1487TIP3   OH225875   6.102   3.282  11.330  0.1427  0.7462 -0.0678
 1487TIP3    H125876   6.017   3.326  11.331  0.3402  1.2221 -1.5528
 1487TIP3    H225877   6.110   3.249  11.241  0.2082 -1.9488  0.8709
 1488TIP3   OH225878   2.559   0.185  16.105  0.0246 -0.4668  0.5995
 1488TIP3    H125879   2.514   0.109  16.071  0.3380 -0.4165  0.0628
 1488TIP3    H225880   2.640   0.151  16.143  0.1658 -0.4016  0.3583
 1489TIP3   OH225881   0.983   3.233  16.622  0.0763 -0.0851 -0.2391
 1489TIP3    H125882   1.015   3.283  16.547 -1.3239  1.2621  0.0020
 1489TIP3    H225883   1.002   3.288  16.698  1.1736 -1.2822  0.3961
 1490TIP3   OH225884   1.875   5.531   3.683  0.0770  0.5433 -0.0527
 1490TIP3    H125885   1.936   5.603   3.665  3.2723 -1.9507  0.1156
 1490TIP3    H225886   1.897   5.502   3.771 -0.8820 -0.8803 -0.2577
 1491TIP3   OH225887   2.077   1.668  11.988 -0.2000  0.2569 -0.4428
 1491TIP3    H125888   2.058   1.582  12.024 -2.2449  0.3717 -1.1304
 1491TIP3    H225889   2.114   1.650  11.902  0.0557  0.0601 -0.2932
 1492TIP3   OH225890   2.630   5.345   4.056  0.4503  0.3511  0.2507
 1492TIP3    H125891   2.561   5.411   4.046 -1.0811 -1.2569 -0.4277
 1492TIP3    H225892   2.708   5.387   4.020 -0.9331  1.0977 -2.1449
 1493TIP3   OH225893   4.249   3.153   3.448 -0.7787 -0.1401 -0.4725
 1493TIP3    H125894   4.321   3.095   3.473 -0.1882 -0.5409 -2.8723
 1493TIP3    H225895   4.287   3.212   3.383 -1.8291  1.8096  0.5828
 1494TIP3   OH225896   5.520   0.871   3.149 -0.3337  0.2995  0.4788
 1494TIP3    H125897   5.434   0.884   3.108 -0.8820  0.7966  1.7276
 1494TIP3    H225898   5.536   0.952   3.197  1.1838  0.4961 -0.3145
 1495TIP3   OH225899   6.679   3.560   1.797  0.1617 -0.1858 -0.5855
 1495TIP3    H125900   6.710   3.478   1.758 -1.2819 -0.6467 -0.8150
 1495TIP3    H225901   6.589   3.541   1.823  0.6507  0.5053  1.8343
 1496TIP3   OH225902   3.033   2.051   1.205  0.2370 -0.0003 -0.2137
 1496TIP3    H125903   2.949   2.087   1.230  0.3947  0.0728  0.2149
 1496TIP3    H225904   3.013   1.988   1.136 -0.0408  0.9068 -0.9913
 1497TIP3   OH225905   1.131   5.248  16.932 -0.0832  0.2448  0.7534
 1497TIP3    H125906   1.221   5.249  16.964  0.8742  1.3049 -1.7290
 1497TIP3    H225907   1.116   5.336  16.898 -1.2317 -0.5721 -0.9919
 1498TIP3   OH225908   0.197   6.090   0.795  0.4863 -0.4306  0.3252
 1498TIP3    H125909   0.221   6.117   0.707 -0.2588 -1.5332 -0.2507
 1498TIP3    H225910   0.101   6.082   0.793 -0.2494  4.2366  2.6464
 1499TIP3   OH225911   0.371   1.055   4.706 -0.6250  0.2154  0.1828
 1499TIP3    H125912   0.318   0.991   4.658 -0.4502 -0.1532  0.4713
 1499TIP3    H225913   0.364   1.027   4.797  0.7245 -0.3474  0.1467
 1500TIP3   OH225914   3.660   0.769  15.119 -0.2952 -0.4860 -0.1490
 1500TIP3    H125915   3.654   0.776  15.214  1.2487  0.5024 -0.0843
 1500TIP3    H225916   3.732   0.827  15.095 -1.0853 -0.1956 -2.0055
 1501TIP3   OH225917   4.898   1.369   5.250 -0.3293 -0.2172 -0.1862
 1501TIP3    H125918   4.977   1.422   5.253  0.5079 -0.9915 -3.6221
 1501TIP3    H225919   4.927   1.280   5.267 -0.5938 -0.3828 -0.5706
 1502TIP3   OH225920   1.569   1.662   3.979  0.3411 -0.5900 -0.2152
 1502TIP3    H125921   1.650   1.712   3.982  0.5488 -0.8661 -1.0163
 1502TIP3    H225922   1.571   1.618   3.894 -1.5542  0.9009 -1.1118
 1503TIP3   OH225923   4.916   1.536   1.241  0.0397  0.1314 -0.1086
 1503TIP3    H125924   4.983   1.469   1.258 -0.1220 -0.0121 -0.0400
 1503TIP3    H225925   4.895   1.571   1.327  2.0660  2.1626 -0.3513
 1504TIP3   OH225926   4.428   4.337  14.369  0.5160  0.2274 -0.0974
 1504TIP3    H125927   4.341   4.374  14.388 -0.1117 -0.6396 -1.1818
 1504TIP3    H225928   4.431   4.331  14.274  2.3826  1.6447 -0.1966
 1505TIP3   OH225929   1.311   2.204  14.371 -0.1737 -1.0871  0.1550
 1505TIP3    H125930   1.232   2.256  14.383 -1.7405 -3.4184  0.7676
 1505TIP3    H225931   1.382   2.268  14.364 -1.9095  1.0605  1.0870
 1506TIP3   OH225932   3.586   5.368   3.428 -0.4770 -0.4423 -0.0675
 1506TIP3    H125933   3.602   5.289   3.479 -1.5554 -0.2297  0.6350
 1506TIP3    H225934   3.495   5.391   3.448 -0.3873  0.5903 -0.7937
 1507TIP3   OH225935   1.050   0.641  13.766 -0.3919  0.0575  0.0092
 1507TIP3    H125936   1.129   0.672  13.810 -0.0632 -1.9259  0.9098
 1507TIP3    H225937   1.059   0.546  13.763 -1.6252 -0.0737 -2.0764
 1508TIP3   OH225938   0.732   2.040  15.799 -0.3833 -0.4748  0.5469
 1508TIP3    H125939   0.655   1.984  15.793  0.1659 -1.0630 -1.7609
 1508TIP3    H225940   0.718   2.108  15.734 -0.6461  1.7004  2.7229
 1509TIP3   OH225941   3.406   5.040   4.129 -0.4877  0.0025 -0.2090
 1509TIP3    H125942   3.429   4.990   4.207 -0.5090 -0.9529 -0.8072
 1509TIP3    H225943   3.324   5.002   4.099 -0.9733  0.9853 -0.1759
 1510TIP3   OH225944   6.138   1.153  16.682  0.1066  0.1138  0.7508
 1510TIP3    H125945   6.181   1.088  16.737  1.4092  0.1202 -0.2320
 1510TIP3    H225946   6.206   1.184  16.624 -1.1262  0.4497 -0.5601
 1511TIP3   OH225947   4.703   5.111   4.007  0.1314  0.3794 -0.3694
 1511TIP3    H125948   4.615   5.147   3.997 -0.4970 -1.0814 -0.2710
 1511TIP3    H225949   4.696   5.020   3.978  1.2818 -0.1691  0.9351
 1512TIP3   OH225950   2.976   6.587  15.219  0.1579 -0.2487  0.0688
 1512TIP3    H125951   3.012   6.595  15.307  0.5231 -0.7821 -0.0223
 1512TIP3    H225952   2.916   6.661  15.210 -0.0846 -0.3401  0.8608
 1513TIP3   OH225953   4.661   5.079   3.409 -0.0393 -0.0621  0.4374
 1513TIP3    H125954   4.696   5.020   3.476  0.2634 -0.3808  0.0020
 1513TIP3    H225955   4.595   5.131   3.455 -0.0983 -0.5338  0.8924
 1514TIP3   OH225956   2.885   1.871   2.421  0.7290 -0.1336 -0.8838
 1514TIP3    H125957   2.831   1.949   2.409  1.6037  0.4169 -1.3067
 1514TIP3    H225958   2.851   1.809   2.356 -1.3130 -0.8957  0.7820
 1515TIP3   OH225959   2.736   4.134  12.711  0.3058 -0.4637  0.3543
 1515TIP3    H125960   2.731   4.120  12.616  0.7780  1.1120  0.0644
 1515TIP3    H225961   2.674   4.206  12.727 -2.7065 -3.1299  1.8664
 1516TIP3   OH225962   5.975   6.678  16.990  0.3713  0.2355  0.2080
 1516TIP3    H125963   5.888   6.703  16.958  0.0674  0.3804  1.1123
 1516TIP3    H225964   6.033   6.691  16.916 -0.4368 -0.1692 -0.5116
 1517TIP3   OH225965   2.823   3.555   1.626 -0.5200  0.1193 -0.0088
 1517TIP3    H125966   2.837   3.540   1.720  0.5633  1.5466  0.0995
 1517TIP3    H225967   2.879   3.492   1.582  0.8036  1.0112  0.3569
 1518TIP3   OH225968   3.129   3.104  11.406  0.1013 -0.0435 -0.2665
 1518TIP3    H125969   3.059   3.150  11.361 -0.5763  0.0815  0.8908
 1518TIP3    H225970   3.187   3.173  11.438  1.5416 -0.1718 -2.3620
 1519TIP3   OH225971   1.988   6.289   4.909 -0.0525 -0.1654  0.0403
 1519TIP3    H125972   1.963   6.198   4.923 -0.5941 -0.6559 -3.3062
 1519TIP3    H225973   1.943   6.337   4.978 -1.4774 -2.2019  0.6198
 1520TIP3   OH225974   1.632   4.892   2.253  0.3789 -0.3554  0.0484
 1520TIP3    H125975   1.595   4.977   2.274 -1.3587 -1.3115  1.0641
 1520TIP3    H225976   1.724   4.910   2.234 -0.5032  2.1088 -2.5192
 1521TIP3   OH225977   5.440   6.254  14.619  0.3059 -0.6370 -0.4273
 1521TIP3    H125978   5.463   6.299  14.538  1.3697 -1.7573 -0.7824
 1521TIP3    H225979   5.354   6.215  14.602 -0.4499  0.8748 -0.2436
 1522TIP3   OH225980   2.952   0.751  13.343  0.4900 -0.5671 -0.1694
 1522TIP3    H125981   2.867   0.786  13.371  1.1977  0.0473  1.3276
 1522TIP3    H225982   2.939   0.729  13.251 -1.8299 -2.2184  0.4435
 1523TIP3   OH225983   4.959   0.537   3.206  0.0180  0.2806 -0.0197
 1523TIP3    H125984   5.016   0.495   3.142  0.5350  0.3513  0.3841
 1523TIP3    H225985   5.005   0.526   3.290 -1.0479 -0.5776  0.4789
 1524TIP3   OH225986   0.716   5.109  16.696 -0.3709  0.2231  0.3562
 1524TIP3    H125987   0.706   5.049  16.622  0.2024 -2.2421  2.1690
 1524TIP3    H225988   0.648   5.083  16.758  0.8675  0.3897  1.8328
 1525TIP3   OH225989   1.998   6.616  16.961  0.0468 -0.4871 -0.1434
 1525TIP3    H125990   2.003   6.625  17.056 -1.5261 -0.1308 -0.0801
 1525TIP3    H225991   2.087   6.589  16.935  0.9303  0.9608  1.2337
 1526TIP3   OH225992   4.728   3.663   1.599  0.0947  0.3436  0.1263
 1526TIP3    H125993   4.654   3.702   1.552  1.4765  2.8172 -0.1710
 1526TIP3    H225994   4.704   3.669   1.691 -0.6080 -0.0555 -0.0259
 1527TIP3   OH225995   2.271   1.448   2.421  0.1019 -0.1109  0.0074
 1527TIP3    H125996   2.271   1.543   2.409 -0.1435 -0.1369 -0.2222
 1527TIP3    H225997   2.275   1.435   2.516  1.3790  0.1085 -0.0073
 1528TIP3   OH225998   0.442   1.312  12.623  0.2737 -0.0477  0.1598
 1528TIP3    H125999   0.502   1.357  12.563 -0.2758  1.9146  1.0076
 1528TIP3    H226000   0.479   1.225  12.632  0.3676 -0.4874 -3.0353
 1529TIP3   OH226001   5.929   4.651  12.297  0.3807  0.2149  0.1754
 1529TIP3    H126002   5.951   4.624  12.208 -0.0972 -0.9432  0.3913
 1529TIP3    H226003   5.894   4.572  12.338 -0.7206  1.0832  0.9667
 1530TIP3   OH226004   5.991   6.618  14.499 -0.7171 -0.6982 -0.2335
 1530TIP3    H126005   5.899   6.631  14.475 -0.5115 -2.0247 -1.9008
 1530TIP3    H226006   5.993   6.531  14.539 -0.5836  0.3952  2.3536
 1531TIP3   OH226007   5.144   6.522  14.633 -0.1684  0.1826 -0.4811
 1531TIP3    H126008   5.072   6.483  14.682  1.4431 -2.6570 -0.1787
 1531TIP3    H226009   5.137   6.485  14.545  1.0684 -0.3808 -0.3640
 1532TIP3   OH226010   2.061   0.559   1.810 -0.4386 -0.1979  0.0921
 1532TIP3    H126011   2.045   0.504   1.886 -1.7673  0.4388  0.3154
 1532TIP3    H226012   2.028   0.508   1.735  0.1977 -0.5280  0.0367
 1533TIP3   OH226013   0.147   3.928   0.539  0.0741  0.0010  0.0692
 1533TIP3    H126014   0.133   3.834   0.539  1.8466 -0.3660  2.2660
 1533TIP3    H226015   0.080   3.962   0.599 -0.6830  0.1888 -0.8656
 1534TIP3   OH226016   0.264   4.043   0.280 -0.2381  0.1775  0.3805
 1534TIP3    H126017   0.264   4.138   0.296  0.4361  0.1238  0.7179
 1534TIP3    H226018   0.198   4.008   0.340  0.1555  0.3284  0.9038
 1535TIP3   OH226019   3.350   6.282   3.456 -0.4721 -0.3168  0.5799
 1535TIP3    H126020   3.341   6.340   3.532  0.4975 -1.3305  1.5158
 1535TIP3    H226021   3.316   6.332   3.383  0.9734  1.7212  1.2205
 1536TIP3   OH226022   5.634   5.080  16.578 -0.5637  0.1018 -0.6465
 1536TIP3    H126023   5.582   5.035  16.512  0.5416 -1.5390 -0.4646
 1536TIP3    H226024   5.610   5.038  16.661  0.8625 -0.5745 -0.5375
 1537TIP3   OH226025   2.646   5.157   1.246  0.0868  0.1557 -0.0702
 1537TIP3    H126026   2.715   5.093   1.266 -0.2082 -0.0918  0.1705
 1537TIP3    H226027   2.672   5.235   1.294  1.4941  0.8963 -1.9128
 1538TIP3   OH226028   4.053   3.765   4.682  0.1961 -0.4377 -0.4993
 1538TIP3    H126029   4.048   3.690   4.741  0.9806 -0.5335 -0.5545
 1538TIP3    H226030   3.961   3.787   4.665 -0.0443 -0.7981  0.2548
 1539TIP3   OH226031   2.635   5.560   6.053 -0.3474 -0.2281 -0.3722
 1539TIP3    H126032   2.711   5.606   6.089 -1.7507  2.5403 -0.7352
 1539TIP3    H226033   2.612   5.496   6.122  0.8667  0.5197  0.7806
 1540TIP3   OH226034   3.001   1.969   3.128 -0.0937  1.2976 -0.0036
 1540TIP3    H126035   2.995   2.032   3.199  1.7162  1.0291  0.4546
 1540TIP3    H226036   3.082   1.920   3.146 -0.3960  0.1927 -1.4147
 1541TIP3   OH226037   0.014   1.421   6.220  0.3029 -0.2590  0.4895
 1541TIP3    H126038   0.103   1.456   6.214  0.1315  0.2568  0.8800
 1541TIP3    H226039   0.010   1.381   6.307  1.0963 -2.9878 -0.6271
 1542TIP3   OH226040   1.780   2.389   1.402 -0.1681 -0.7696 -0.3425
 1542TIP3    H126041   1.730   2.468   1.384  0.0783 -0.8021 -1.2289
 1542TIP3    H226042   1.858   2.420   1.448 -0.3707 -0.5707 -0.1313
 1543TIP3   OH226043   2.093   1.605   5.890 -0.0123 -0.5318 -0.1239
 1543TIP3    H126044   2.184   1.597   5.919 -0.0220 -0.0651  0.0409
 1543TIP3    H226045   2.047   1.640   5.966 -0.6451 -2.2585  0.3453
 1544TIP3   OH226046   4.132   6.518   5.385  0.1538  0.0632  0.0891
 1544TIP3    H126047   4.208   6.567   5.416  0.4319 -0.3401  0.0498
 1544TIP3    H226048   4.119   6.549   5.296  0.4097 -0.0248  0.0190
 1545TIP3   OH226049   2.127   5.888  15.215  0.3902 -0.2416  0.1485
 1545TIP3    H126050   2.113   5.949  15.143 -0.6147 -1.2732 -0.5547
 1545TIP3    H226051   2.180   5.818  15.177  3.8260  1.3320  1.5915
 1546TIP3   OH226052   2.733   0.196  13.281  0.4250  0.5714 -0.1576
 1546TIP3    H126053   2.640   0.173  13.280 -0.1694  2.7861  0.1130
 1546TIP3    H226054   2.769   0.154  13.203 -1.0328  0.5833 -0.8615
 1547TIP3   OH226055   0.824   6.530  12.990 -0.3992 -0.4769  0.1888
 1547TIP3    H126056   0.743   6.486  12.963 -0.6388 -0.3328  0.6701
 1547TIP3    H226057   0.806   6.623  12.975 -1.1111 -0.2390  2.2900
 1548TIP3   OH226058   0.798   3.981  11.039 -0.2208  0.1315 -0.3654
 1548TIP3    H126059   0.822   4.069  11.009  1.5929 -0.2628 -0.1282
 1548TIP3    H226060   0.753   3.942  10.964  0.4876  0.6650 -1.0842
 1549TIP3   OH226061   3.132   1.621  16.419  0.5143  0.0502  0.7223
 1549TIP3    H126062   3.176   1.594  16.500  1.7343  2.3300  0.8891
 1549TIP3    H226063   3.178   1.700  16.392 -0.5298 -0.0873 -1.6892
 1550TIP3   OH226064   5.659   3.237  13.229 -0.3088 -0.1667  0.3012
 1550TIP3    H126065   5.625   3.236  13.318 -2.0023 -0.8267 -0.2984
 1550TIP3    H226066   5.660   3.145  13.203 -0.2339  0.0486 -0.4882
 1551TIP3   OH226067   0.289   1.374   0.659 -0.2501  1.0724  0.3056
 1551TIP3    H126068   0.348   1.328   0.599 -0.5699  2.2486 -0.9484
 1551TIP3    H226069   0.206   1.379   0.613 -0.8866  0.8616  1.3957
 1552TIP3   OH226070   1.002   5.719   4.593  0.1273 -0.0948 -0.1642
 1552TIP3    H126071   1.089   5.687   4.569  0.3976 -0.1059  0.8183
 1552TIP3    H226072   0.990   5.798   4.538  0.3308 -0.6489 -1.0298
 1553TIP3   OH226073   2.687   2.145  13.849  0.1008 -0.6540  0.4080
 1553TIP3    H126074   2.634   2.182  13.778  1.4657 -0.2054 -0.4031
 1553TIP3    H226075   2.623   2.115  13.914 -1.1023  1.4113  0.2327
 1554TIP3   OH226076   2.153   4.759   5.822  0.5611  0.1605 -0.0209
 1554TIP3    H126077   2.120   4.848   5.835 -1.8481 -0.5683 -0.7059
 1554TIP3    H226078   2.146   4.744   5.728  0.5071 -0.9242  0.1463
 1555TIP3   OH226079   1.624   6.302   1.205 -0.4899  0.0590  0.2813
 1555TIP3    H126080   1.680   6.293   1.128 -0.4518  0.5991  0.2433
 1555TIP3    H226081   1.598   6.212   1.227 -0.9745 -0.0554 -0.7072
 1556TIP3   OH226082   1.832   3.535  16.200 -0.3982 -0.3423 -0.1031
 1556TIP3    H126083   1.780   3.607  16.166  0.6690  1.3899  1.7440
 1556TIP3    H226084   1.768   3.475  16.239 -1.1043  1.3112  1.3719
 1557TIP3   OH226085   1.694   1.482  13.616  0.2155 -0.8864  0.0347
 1557TIP3    H126086   1.627   1.549  13.614 -0.2912 -1.3420 -2.7335
 1557TIP3    H226087   1.676   1.430  13.694 -1.6254  0.0016  0.2259
 1558TIP3   OH226088   0.447   0.365  14.076 -0.5001 -0.3634 -0.5676
 1558TIP3    H126089   0.406   0.414  14.148  2.2502  1.7939 -0.2549
 1558TIP3    H226090   0.457   0.430  14.006 -1.3412 -1.9132 -2.1967
 1559TIP3   OH226091   4.754   1.813  15.788 -0.8534 -0.3482 -0.7764
 1559TIP3    H126092   4.721   1.730  15.754 -0.0479 -1.0108  0.0013
 1559TIP3    H226093   4.690   1.840  15.854 -1.0571 -0.4129 -0.9468
 1560TIP3   OH226094   3.716   5.686  13.770  0.6414  0.1856  0.2611
 1560TIP3    H126095   3.697   5.597  13.800 -0.0021  0.5185  0.8626
 1560TIP3    H226096   3.631   5.730  13.768  1.1179  1.1912  1.3119
 1561TIP3   OH226097   0.493   0.713  15.501 -0.2179 -0.2794  0.3891
 1561TIP3    H126098   0.584   0.689  15.518 -0.0511  0.0396 -0.0336
 1561TIP3    H226099   0.491   0.734  15.407 -0.4052  1.1178  0.6811
 1562TIP3   OH226100   2.617   5.958  17.326 -0.2762  0.4191 -0.5007
 1562TIP3    H126101   2.684   5.905  17.283 -0.7355 -0.8723  0.3083
 1562TIP3    H226102   2.568   5.998  17.254  0.1244 -0.2034 -1.1359
 1563TIP3   OH226103   1.038   3.960  14.444 -0.0596  0.4336  0.3807
 1563TIP3    H126104   0.994   4.034  14.486 -0.3151 -0.0678  1.0030
 1563TIP3    H226105   1.079   3.912  14.515 -1.7795 -1.3024  0.2881
 1564TIP3   OH226106   5.298   4.052  13.870  0.4343  0.1004 -0.0865
 1564TIP3    H126107   5.356   4.001  13.814 -0.1985  0.5725 -1.1937
 1564TIP3    H226108   5.321   4.143  13.854 -1.7655  0.4203 -1.9416
 1565TIP3   OH226109   2.522   6.726  14.892  0.5074 -0.0097  0.6532
 1565TIP3    H126110   2.607   6.682  14.895  0.4976 -0.1865 -0.9870
 1565TIP3    H226111   2.491   6.714  14.802 -0.8836  0.7582  0.9945
 1566TIP3   OH226112   1.120   2.820  12.159  0.1363  0.8811  0.0799
 1566TIP3    H126113   1.163   2.874  12.092  0.1114  1.0410  0.1912
 1566TIP3    H226114   1.029   2.813  12.129  0.0410  1.2458  0.2736
 1567TIP3   OH226115   3.979   6.544  13.804 -0.2479  0.2801  0.2443
 1567TIP3    H126116   4.020   6.487  13.870  0.6365  1.4919  0.7871
 1567TIP3    H226117   3.916   6.597  13.854  0.7879  1.5566  0.2540
 1568TIP3   OH226118   0.823   5.195  12.552 -0.0594 -0.7304 -0.4810
 1568TIP3    H126119   0.852   5.110  12.582 -0.0739 -0.2654  0.9013
 1568TIP3    H226120   0.891   5.224  12.491  1.7601 -0.2536  1.6447
 1569TIP3   OH226121   2.169   4.989  13.977 -0.4045 -0.4083 -0.4085
 1569TIP3    H126122   2.234   4.924  13.953  0.5240 -0.1899  1.3894
 1569TIP3    H226123   2.085   4.944  13.966  0.2164 -2.0932  1.1764
 1570TIP3   OH226124   5.224   2.279  12.138  0.6812  0.1761  0.4367
 1570TIP3    H126125   5.290   2.227  12.094  0.1544 -2.1855  2.2482
 1570TIP3    H226126   5.161   2.215  12.172 -1.5584  2.1949  0.3825
 1571TIP3   OH226127   1.991   6.098  11.787 -0.0247 -0.0112  0.1963
 1571TIP3    H126128   1.997   6.003  11.795  0.3524  0.0244  0.3466
 1571TIP3    H226129   1.973   6.129  11.876  3.1738  0.3067  0.8281
 1572TIP3   OH226130   3.569   4.644   2.328  0.1266  0.0511 -0.1513
 1572TIP3    H126131   3.570   4.738   2.348  2.2267  0.0348  0.0560
 1572TIP3    H226132   3.547   4.641   2.235  1.4709  0.8916 -0.5347
 1573TIP3   OH226133   4.486   1.301   5.727 -0.0876  0.0510 -0.3232
 1573TIP3    H126134   4.537   1.308   5.807 -0.0272 -1.7107 -0.1603
 1573TIP3    H226135   4.532   1.234   5.675 -2.8401 -2.6106  0.3900
 1574TIP3   OH226136   5.428   5.335  16.562 -0.4737 -0.4691  0.4669
 1574TIP3    H126137   5.512   5.329  16.608  0.2018  4.0423  0.2204
 1574TIP3    H226138   5.376   5.263  16.598  2.6154 -1.8959  2.4829
 1575TIP3   OH226139   0.988   3.377  16.296  0.1187  0.1256 -0.6005
 1575TIP3    H126140   0.898   3.410  16.296  0.7068  1.8269 -1.2282
 1575TIP3    H226141   1.028   3.418  16.219  1.3037 -1.0134 -0.6229
 1576TIP3   OH226142   2.331   6.429   4.554 -0.2106  0.2889  0.3389
 1576TIP3    H126143   2.285   6.353   4.518  1.2315  1.2745 -4.1858
 1576TIP3    H226144   2.262   6.492   4.573 -1.1212 -0.6868  0.3839
 1577TIP3   OH226145   3.439   2.372   1.582  0.2009 -0.0463  0.0673
 1577TIP3    H126146   3.409   2.444   1.638  0.3186  0.0518  0.0062
 1577TIP3    H226147   3.407   2.293   1.625  0.3612  0.0248  0.3198
 1578TIP3   OH226148   6.390   0.349   2.954  0.4591  0.0395 -0.2408
 1578TIP3    H126149   6.407   0.256   2.939 -0.2234  0.0278 -0.9619
 1578TIP3    H226150   6.476   0.390   2.947  0.9847 -0.6912  1.4033
 1579TIP3   OH226151   0.668   2.457  11.869  0.0082 -0.2530 -0.0708
 1579TIP3    H126152   0.586   2.419  11.835  0.6335  0.0647 -2.0827
 1579TIP3    H226153   0.722   2.381  11.892 -0.3247 -0.4914 -0.0641
 1580TIP3   OH226154   3.690   0.658  11.494 -0.2941  0.0479 -0.2331
 1580TIP3    H126155   3.764   0.613  11.452 -0.4462  0.6677 -1.2031
 1580TIP3    H226156   3.695   0.748  11.461 -0.5290  0.5118  0.9718
 1581TIP3   OH226157   4.000   1.474   0.715  0.5823 -0.3549  0.4214
 1581TIP3    H126158   3.926   1.483   0.774 -0.3479 -0.8498 -0.6218
 1581TIP3    H226159   4.037   1.388   0.736 -1.8890 -2.1740 -1.9466
 1582TIP3   OH226160   0.473   4.896  15.034 -0.1641  0.5862  0.4483
 1582TIP3    H126161   0.440   4.806  15.033  0.3371  0.4041 -0.0876
 1582TIP3    H226162   0.403   4.947  14.992  0.5166  0.0861 -1.4065
 1583TIP3   OH226163   1.171   6.471   3.819  0.5784 -0.1600 -0.2874
 1583TIP3    H126164   1.115   6.453   3.895  0.6564 -1.5856 -0.5488
 1583TIP3    H226165   1.122   6.536   3.768 -0.2615 -0.4643  0.1169
 1584TIP3   OH226166   1.205   2.491   5.011  0.6849  0.4673 -0.0044
 1584TIP3    H126167   1.178   2.418   4.956 -1.0444 -0.8122  2.3858
 1584TIP3    H226168   1.262   2.452   5.077  1.5740  1.6987 -0.0159
 1585TIP3   OH226169   3.744   0.638   1.917  0.6361  0.4045 -0.1744
 1585TIP3    H126170   3.680   0.584   1.870  1.2839 -0.8080  0.3033
 1585TIP3    H226171   3.712   0.728   1.905 -1.1029 -0.1545 -0.0152
 1586TIP3   OH226172   0.583   1.020  16.030 -0.0623 -0.2422  0.3941
 1586TIP3    H126173   0.626   0.945  15.991 -0.9739 -1.4991  1.7163
 1586TIP3    H226174   0.490   0.998  16.029 -0.4185  1.1595  0.2140
 1587TIP3   OH226175   0.895   1.614  12.595  0.3367 -0.3066 -0.7215
 1587TIP3    H126176   0.941   1.677  12.651  1.3319  0.8776 -2.7382
 1587TIP3    H226177   0.823   1.664  12.557 -0.3614 -1.1024 -0.4445
 1588TIP3   OH226178   4.508   5.523  13.948  0.2184  0.1574 -0.4868
 1588TIP3    H126179   4.588   5.538  13.898 -0.0906  1.8215 -0.5227
 1588TIP3    H226180   4.538   5.509  14.037  0.7095 -1.9676 -0.9305
 1589TIP3   OH226181   2.649   2.095  16.122 -0.0698  0.0658  0.0768
 1589TIP3    H126182   2.728   2.134  16.085 -0.1188 -0.4860 -0.6484
 1589TIP3    H226183   2.653   2.114  16.215  1.0046 -0.0919  0.0752
 1590TIP3   OH226184   5.147   3.892   2.793 -0.2175  0.5673 -0.3398
 1590TIP3    H126185   5.204   3.907   2.868 -0.5511  0.0736  0.0192
 1590TIP3    H226186   5.188   3.820   2.745  0.8798  1.9296 -1.5514
 1591TIP3   OH226187   2.391   3.516  15.671 -0.3771  0.3079  0.0036
 1591TIP3    H126188   2.376   3.543  15.581  2.2465 -1.6799 -1.1875
 1591TIP3    H226189   2.362   3.425  15.674  1.6237 -0.3682  0.4523
 1592TIP3   OH226190   4.116   2.831   1.035  0.1597 -0.0250  0.0786
 1592TIP3    H126191   4.178   2.895   1.070 -0.5809  0.8427 -0.1564
 1592TIP3    H226192   4.061   2.807   1.110 -2.4283  2.9892 -0.6516
 1593TIP3   OH226193   3.944   6.230   2.069 -0.4979 -0.6071  0.3208
 1593TIP3    H126194   3.983   6.279   2.141  0.1429  0.0940 -0.4849
 1593TIP3    H226195   4.014   6.174   2.036 -0.3501  0.1089 -0.6510
 1594TIP3   OH226196   4.741   1.852   0.368 -0.3837 -0.0836  0.3234
 1594TIP3    H126197   4.695   1.800   0.434  0.1031 -1.1803 -0.1789
 1594TIP3    H226198   4.687   1.931   0.358  0.0018  0.5650  2.6943
 1595TIP3   OH226199   3.082   4.871   0.617 -0.5099  0.2220  0.7587
 1595TIP3    H126200   3.030   4.943   0.654  0.3986  1.4545 -0.2802
 1595TIP3    H226201   3.094   4.811   0.690 -0.3523  1.6633  1.9797
 1596TIP3   OH226202   4.120   0.150  16.875  0.6843  0.2441 -0.1093
 1596TIP3    H126203   4.057   0.095  16.829 -1.0322  1.8125  0.2488
 1596TIP3    H226204   4.205   0.117  16.848 -0.2727 -1.5083 -1.1598
 1597TIP3   OH226205   3.066   4.323   5.356  0.2885  0.1176  0.4005
 1597TIP3    H126206   3.062   4.227   5.361  0.0847 -0.1302 -2.6110
 1597TIP3    H226207   3.159   4.342   5.349  0.2085 -0.1831 -2.1628
 1598TIP3   OH226208   0.567   0.531   4.215  0.1119  0.0719 -0.0905
 1598TIP3    H126209   0.557   0.585   4.137 -1.4317  1.0279  0.7248
 1598TIP3    H226210   0.535   0.445   4.188 -1.6580  0.7165 -0.1944
 1599TIP3   OH226211   4.087   6.454  16.233 -0.5192 -0.0239  0.1309
 1599TIP3    H126212   4.151   6.396  16.274 -0.0433  0.6001  0.2878
 1599TIP3    H226213   4.118   6.542  16.252 -0.8108  0.2867 -0.7619
 1600TIP3   OH226214   6.097   0.207  12.971  0.1942  0.5701 -0.2614
 1600TIP3    H126215   6.030   0.161  12.919  0.9083  0.0369 -0.7338
 1600TIP3    H226216   6.151   0.136  13.007  1.5166  1.0297 -1.2667
 1601TIP3   OH226217   3.692   6.738   4.694  0.2967 -0.3699  0.4732
 1601TIP3    H126218   3.629   6.715   4.762  0.8680 -0.3042  1.0299
 1601TIP3    H226219   3.757   6.668   4.697  0.6522 -0.0477  0.4119
 1602TIP3   OH226220   4.761   0.558   1.930  0.0074  0.8597  0.4160
 1602TIP3    H126221   4.751   0.652   1.946 -1.1661  0.9858 -0.8341
 1602TIP3    H226222   4.672   0.524   1.938  0.3308 -0.0426  0.2046
 1603TIP3   OH226223   2.245   2.668   0.325  0.3825  0.1646 -0.8994
 1603TIP3    H126224   2.212   2.758   0.331 -1.0887 -0.4218  0.4198
 1603TIP3    H226225   2.255   2.640   0.416 -0.1622 -1.3476 -1.2811
 1604TIP3   OH226226   1.574   3.538  11.513  0.1712  0.2614  0.2430
 1604TIP3    H126227   1.588   3.450  11.480  0.7121  0.9864 -1.5819
 1604TIP3    H226228   1.496   3.569  11.466  0.3894  0.9973  0.3514
 1605TIP3   OH226229   2.860   1.550  15.492 -0.2024 -0.0214  0.3588
 1605TIP3    H126230   2.797   1.503  15.437  0.8612 -0.8488 -0.2112
 1605TIP3    H226231   2.930   1.486  15.507  0.8069  1.0665  0.4262
 1606TIP3   OH226232   5.765   0.158   1.811  0.1510 -0.1423  0.0028
 1606TIP3    H126233   5.702   0.086   1.821 -0.6771  0.5170 -0.3882
 1606TIP3    H226234   5.740   0.201   1.730  1.9689 -0.6912 -0.9089
 1607TIP3   OH226235   1.550   3.974   3.848 -0.4540 -0.4555  0.7217
 1607TIP3    H126236   1.465   3.981   3.889 -0.8860  1.0187 -0.3281
 1607TIP3    H226237   1.553   4.048   3.786  0.8895 -1.4684 -0.4969
 1608TIP3   OH226238   4.630   3.495  12.882 -0.0290 -0.1021 -0.7078
 1608TIP3    H126239   4.687   3.571  12.869  1.0892 -0.7406  0.2381
 1608TIP3    H226240   4.642   3.442  12.803  1.8243 -0.9034  0.0492
 1609TIP3   OH226241   1.535   6.276   3.262 -0.1224 -0.1825  0.3318
 1609TIP3    H126242   1.630   6.271   3.249 -0.0558 -2.3975  1.1382
 1609TIP3    H226243   1.517   6.369   3.272  2.2325  0.2105  1.9020
 1610TIP3   OH226244   6.549   4.487  11.096 -0.2387 -0.1853  0.8205
 1610TIP3    H126245   6.632   4.514  11.136 -0.9241  3.0694  0.2457
 1610TIP3    H226246   6.485   4.551  11.127 -1.8421 -0.5827 -1.4334
 1611TIP3   OH226247   4.035   5.330  16.476 -0.5372  0.2001 -0.4811
 1611TIP3    H126248   4.082   5.403  16.437 -1.0944 -0.2123 -1.9683
 1611TIP3    H226249   3.949   5.367  16.499  0.9167  1.5138  4.0519
 1612TIP3   OH226250   2.550   6.688  15.760  0.2284 -0.3272  0.2459
 1612TIP3    H126251   2.612   6.760  15.748 -0.1928 -0.0970 -0.6486
 1612TIP3    H226252   2.475   6.729  15.804 -0.0278 -0.1968 -0.2984
 1613TIP3   OH226253   0.867   5.454   1.367 -0.0288 -0.2259  0.1615
 1613TIP3    H126254   0.938   5.471   1.304 -1.9513  0.8499 -1.8624
 1613TIP3    H226255   0.799   5.412   1.315 -1.3429 -0.1857  1.7754
 1614TIP3   OH226256   2.558   0.157  14.540  0.0087 -0.6171 -0.0601
 1614TIP3    H126257   2.595   0.073  14.567 -2.1030 -1.1657  1.3916
 1614TIP3    H226258   2.524   0.195  14.621  1.9391  2.2528 -0.4727
 1615TIP3   OH226259   4.445   5.054  13.784  0.3489  0.0251  0.0125
 1615TIP3    H126260   4.521   5.051  13.843  0.9001  1.5673 -0.5544
 1615TIP3    H226261   4.401   5.135  13.808 -0.0363  0.1089 -0.9624
 1616TIP3   OH226262   0.895   1.905  16.479  0.2992  0.2725 -0.3794
 1616TIP3    H126263   0.862   1.869  16.396 -1.7108  0.7902  0.1370
 1616TIP3    H226264   0.890   2.000  16.468  0.2084  0.3457  0.2514
 1617TIP3   OH226265   5.774   0.608  13.215 -0.1205 -0.3417 -0.1744
 1617TIP3    H126266   5.693   0.646  13.182  0.2570  2.8695  2.1150
 1617TIP3    H226267   5.813   0.565  13.139 -2.9568 -0.2280 -1.8266
 1618TIP3   OH226268   1.528   4.465   4.917 -0.1649 -0.0718 -0.8317
 1618TIP3    H126269   1.453   4.445   4.861 -1.7836 -1.6527  1.6753
 1618TIP3    H226270   1.523   4.559   4.931 -0.4619  0.1564 -2.2548
 1619TIP3   OH226271   3.211   0.837  16.395 -0.1744  0.0558  0.3284
 1619TIP3    H126272   3.267   0.888  16.337  1.1800 -2.1537 -0.4295
 1619TIP3    H226273   3.143   0.801  16.337  0.7638 -1.5720  0.1719
 1620TIP3   OH226274   3.621   2.886  15.346 -0.5530  0.2029  0.2609
 1620TIP3    H126275   3.584   2.799  15.359  1.1617 -0.1553  3.8217
 1620TIP3    H226276   3.580   2.917  15.265 -2.5035 -3.1853 -0.2522
 1621TIP3   OH226277   3.107   5.331  14.043 -0.0031  0.4923 -0.1941
 1621TIP3    H126278   3.166   5.343  14.117 -0.6158  0.8953  0.2420
 1621TIP3    H226279   3.160   5.286  13.977  0.2261 -0.9226  0.9074
 1622TIP3   OH226280   3.190   3.528  16.930 -0.5051 -0.6011  0.1251
 1622TIP3    H126281   3.141   3.504  17.008 -2.2546  2.4417  0.1200
 1622TIP3    H226282   3.204   3.623  16.938  0.7505 -0.4709 -2.4258
 1623TIP3   OH226283   6.024   2.008   1.773 -0.0111 -0.0095  0.5705
 1623TIP3    H126284   6.080   1.933   1.790 -0.5507 -0.7869 -0.9129
 1623TIP3    H226285   6.077   2.066   1.718  0.6782  1.0951  2.3322
 1624TIP3   OH226286   1.404   5.585  15.384 -0.2949  0.1583  0.5793
 1624TIP3    H126287   1.428   5.508  15.333 -4.2977 -0.5579 -0.5327
 1624TIP3    H226288   1.460   5.655  15.348  1.7235 -1.6616 -0.0489
 1625TIP3   OH226289   3.370   6.485  14.357  0.4741  0.0931  0.7320
 1625TIP3    H126290   3.443   6.547  14.358  0.5906 -0.0555  1.4663
 1625TIP3    H226291   3.345   6.475  14.449 -1.2573  1.0782  0.4345
 1626TIP3   OH226292   5.974   1.049   5.252  0.0017 -0.5593 -0.3347
 1626TIP3    H126293   5.921   1.127   5.238  1.7447  1.2249  2.2981
 1626TIP3    H226294   5.915   0.988   5.297 -0.2764  0.8459  1.2936
 1627TIP3   OH226295   2.257   1.477  11.176  0.2613 -0.0141  0.1793
 1627TIP3    H126296   2.238   1.533  11.101 -1.0507 -0.4934  0.1303
 1627TIP3    H226297   2.176   1.428  11.191  0.7185 -0.4189  1.4880
 1628TIP3   OH226298   4.507   2.629  13.949  0.0532  0.3608  0.0185
 1628TIP3    H126299   4.519   2.650  14.042  0.4449  1.7699 -0.3286
 1628TIP3    H226300   4.422   2.586  13.945 -0.1820  0.7090  0.9655
 1629TIP3   OH226301   1.601   3.289   3.599 -0.0523  0.0163  0.1930
 1629TIP3    H126302   1.518   3.245   3.578  0.0818  0.2218 -0.8086
 1629TIP3    H226303   1.668   3.223   3.582  0.0103 -0.1108  0.8891
 1630TIP3   OH226304   2.633   1.111  16.669 -0.4713  0.3097  0.3820
 1630TIP3    H126305   2.715   1.076  16.633 -2.6960 -2.6823 -2.2877
 1630TIP3    H226306   2.608   1.049  16.737 -1.0487  0.6441  0.4834
 1631TIP3   OH226307   2.558   2.355   0.157  0.1309  0.4002  0.2940
 1631TIP3    H126308   2.465   2.332   0.149  0.0606  0.5629  0.6508
 1631TIP3    H226309   2.558   2.440   0.201  0.3054  2.0008 -2.5826
 1632TIP3   OH226310   1.901   3.760   0.550 -0.2274 -0.5291  0.0520
 1632TIP3    H126311   1.909   3.688   0.487  0.9953  0.1297 -0.5834
 1632TIP3    H226312   1.842   3.822   0.508  1.3880  0.3910 -0.9794
 1633TIP3   OH226313   0.169   2.210  13.006  0.6592 -0.1635  0.0401
 1633TIP3    H126314   0.094   2.181  12.955  1.3437 -2.5002  0.2207
 1633TIP3    H226315   0.137   2.216  13.096  0.3542  0.2322 -0.0961
 1634TIP3   OH226316   1.462   4.896  12.982 -0.0752  0.3243 -0.3141
 1634TIP3    H126317   1.394   4.852  13.034  3.4715 -1.6930  3.1932
 1634TIP3    H226318   1.444   4.989  12.992 -1.3827 -0.1029  1.9260
 1635TIP3   OH226319   6.392   3.487   3.597  0.1857 -0.2471  0.4619
 1635TIP3    H126320   6.321   3.479   3.533 -0.3841  2.2371  0.6720
 1635TIP3    H226321   6.471   3.494   3.544 -0.3456  2.5136 -0.1459
 1636TIP3   OH226322   3.171   5.217  15.310  0.0070 -0.0199  0.7639
 1636TIP3    H126323   3.223   5.172  15.243  0.4420 -0.0402  1.1068
 1636TIP3    H226324   3.214   5.303  15.319 -0.8531  0.4969  0.0703
 1637TIP3   OH226325   4.473   4.243   1.753 -0.0612  0.4122  0.0700
 1637TIP3    H126326   4.460   4.200   1.838 -0.1016  0.0833 -0.1031
 1637TIP3    H226327   4.551   4.201   1.716 -0.7067 -0.2534 -0.5646
 1638TIP3   OH226328   1.222   4.332  15.990 -0.1876  0.5569 -0.0630
 1638TIP3    H126329   1.273   4.257  15.957 -1.5871  0.1895 -1.4909
 1638TIP3    H226330   1.214   4.315  16.084  0.8802 -0.2330 -0.0871
 1639TIP3   OH226331   4.174   4.612   0.517  0.2375  0.3411  0.5989
 1639TIP3    H126332   4.114   4.682   0.541  0.1075  0.6717 -0.6289
 1639TIP3    H226333   4.262   4.648   0.532  0.1580  0.3215  1.1315
 1640TIP3   OH226334   2.445   0.172  13.531  0.1263 -0.5843  0.6668
 1640TIP3    H126335   2.467   0.231  13.459  1.2446  0.9921  2.2197
 1640TIP3    H226336   2.489   0.090  13.508 -0.5835 -0.5401 -1.0266
 1641TIP3   OH226337   5.410   0.475  13.506 -0.2501 -0.2509 -0.0685
 1641TIP3    H126338   5.493   0.456  13.464 -0.3936 -1.9089  0.3535
 1641TIP3    H226339   5.415   0.569  13.526  1.2994 -0.2147 -0.4929
 1642TIP3   OH226340   4.166   2.144   1.446 -0.8637 -0.1439 -0.0498
 1642TIP3    H126341   4.163   2.237   1.421  1.1114  0.0536  0.2178
 1642TIP3    H226342   4.173   2.097   1.362 -0.1686  0.0856 -0.1273
 1643TIP3   OH226343   6.502   0.127   5.147  0.1454  0.7087 -0.2261
 1643TIP3    H126344   6.433   0.141   5.212  0.4976  0.2289  0.2592
 1643TIP3    H226345   6.469   0.056   5.091  0.0544  0.7915 -0.2796
 1644TIP3   OH226346   1.375   1.757  16.499 -0.1784 -0.0807 -0.2960
 1644TIP3    H126347   1.353   1.838  16.452 -0.9512  0.3560  0.7546
 1644TIP3    H226348   1.328   1.766  16.582  1.8041 -0.4267  0.9079
 1645TIP3   OH226349   6.493   1.236  12.590  0.1325  0.0714 -0.1383
 1645TIP3    H126350   6.564   1.300  12.593 -0.0320  0.2320  0.6066
 1645TIP3    H226351   6.518   1.170  12.655 -0.3602  0.0947  0.0794
 1646TIP3   OH226352   6.372   5.662  11.833 -0.4400 -0.6553  0.2230
 1646TIP3    H126353   6.431   5.681  11.760  0.3201  1.9409  1.3895
 1646TIP3    H226354   6.421   5.599  11.888  0.2687 -0.3134 -0.0014
 1647TIP3   OH226355   6.023   1.261  14.923 -0.5044  0.4388 -0.7740
 1647TIP3    H126356   6.008   1.280  15.016 -0.0989 -0.5541 -0.4914
 1647TIP3    H226357   6.081   1.332  14.893 -3.6206  3.0000 -1.2981
 1648TIP3   OH226358   4.369   0.504   6.132 -0.0525  0.5798  0.3794
 1648TIP3    H126359   4.449   0.523   6.181 -0.8702  0.9899  1.6002
 1648TIP3    H226360   4.372   0.409   6.118  1.4717  0.7985 -1.1376
 1649TIP3   OH226361   6.492   0.423  12.468 -0.0921  0.1166  0.4103
 1649TIP3    H126362   6.550   0.431  12.392  0.0123 -0.4200  0.4268
 1649TIP3    H226363   6.463   0.512  12.486 -0.3231  0.2140 -0.4163
 1650TIP3   OH226364   3.598   3.873  17.265 -0.4133  0.1287 -0.1999
 1650TIP3    H126365   3.630   3.787  17.290 -0.2954 -0.3577 -1.8721
 1650TIP3    H226366   3.586   3.920  17.347 -0.2926 -1.4130  0.7226
 1651TIP3   OH226367   4.792   5.329   2.153  0.4114  0.0791  0.7822
 1651TIP3    H126368   4.699   5.349   2.157  1.0317  3.4217  0.7674
 1651TIP3    H226369   4.819   5.323   2.244  0.0539 -2.2353  0.8213
 1652TIP3   OH226370   6.510   6.045   4.823 -0.6301 -0.1348  0.1979
 1652TIP3    H126371   6.581   5.985   4.803 -0.5044 -0.1022  0.5371
 1652TIP3    H226372   6.554   6.123   4.858 -0.8481 -0.2499  0.7430
 1653TIP3   OH226373   2.063   2.484  10.942 -0.5117 -0.1772 -0.4606
 1653TIP3    H126374   2.109   2.407  10.975  0.1096  0.3421 -0.0844
 1653TIP3    H226375   2.025   2.456  10.859  0.4273 -0.6484 -0.7440
 1654TIP3   OH226376   6.516   6.405   1.653  0.3290 -0.1355  0.0263
 1654TIP3    H126377   6.557   6.337   1.601 -0.9031  1.0624 -2.6778
 1654TIP3    H226378   6.551   6.487   1.618  0.8219  0.7388  2.3594
 1655TIP3   OH226379   5.469   2.683  13.966  0.1562 -0.0405 -0.2545
 1655TIP3    H126380   5.563   2.702  13.963  0.2787 -0.6529 -0.7739
 1655TIP3    H226381   5.464   2.590  13.942 -0.4711 -0.3947  1.1503
 1656TIP3   OH226382   0.813   1.297   5.821 -0.2992 -0.5532  0.2186
 1656TIP3    H126383   0.749   1.299   5.892 -0.8102 -0.0272 -0.2429
 1656TIP3    H226384   0.806   1.383   5.780  1.8261  0.1127  1.1199
 1657TIP3   OH226385   3.196   5.924   0.732  0.1193  0.1594 -0.0881
 1657TIP3    H126386   3.288   5.913   0.754  0.6168  3.1437 -0.3144
 1657TIP3    H226387   3.195   5.984   0.658 -2.0068  0.3963  0.0493
 1658TIP3   OH226388   1.472   4.999   2.861  0.5995  0.6470 -0.0372
 1658TIP3    H126389   1.477   4.921   2.805  2.3599  0.7365 -0.0580
 1658TIP3    H226390   1.430   4.968   2.941 -1.7411  0.4655 -1.2567
 1659TIP3   OH226391   2.193   0.697  13.390  0.2779  0.6130 -0.4319
 1659TIP3    H126392   2.231   0.775  13.350 -0.8126  1.1648 -0.4398
 1659TIP3    H226393   2.098   0.710  13.383  0.0722 -0.4163  0.1433
 1660TIP3   OH226394   2.680   5.337  13.535 -0.0363  0.1339  0.6660
 1660TIP3    H126395   2.603   5.386  13.564 -0.1070  0.3196  0.1748
 1660TIP3    H226396   2.645   5.253  13.505 -0.1162  0.3929  0.0008
 1661TIP3   OH226397   0.173   3.117   1.153 -0.2655  0.4357 -0.1988
 1661TIP3    H126398   0.221   3.182   1.205  1.1944 -0.0520 -0.8748
 1661TIP3    H226399   0.166   3.041   1.212  1.7601 -0.2707 -0.7716
 1662TIP3   OH226400   4.864   4.590   3.875  0.4415  0.4359 -0.3765
 1662TIP3    H126401   4.887   4.575   3.967  0.0229  0.7196 -0.2220
 1662TIP3    H226402   4.849   4.684   3.868 -3.0562  0.0667  0.1418
 1663TIP3   OH226403   2.200   1.182   3.186 -0.0314  0.3653 -0.0237
 1663TIP3    H126404   2.108   1.154   3.186  0.0507  0.0724  0.9695
 1663TIP3    H226405   2.198   1.270   3.226 -0.1653  1.4427 -2.2375
 1664TIP3   OH226406   0.461   2.481   2.714  0.7521  0.4720  0.1576
 1664TIP3    H126407   0.421   2.527   2.789  1.1527 -1.2317  1.4795
 1664TIP3    H226408   0.525   2.422   2.754  1.9522  0.4860 -1.6659
 1665TIP3   OH226409   1.221   1.976   6.010 -0.2610 -0.2224  0.4185
 1665TIP3    H126410   1.268   1.894   5.994 -1.0881 -0.6607  0.1513
 1665TIP3    H226411   1.274   2.043   5.967 -1.2393 -1.0660 -2.3699
 1666TIP3   OH226412   4.838   3.604   4.010  0.2087 -0.0174 -0.3465
 1666TIP3    H126413   4.837   3.572   3.920  1.3763 -0.2218 -0.3142
 1666TIP3    H226414   4.806   3.531   4.062  0.9087 -0.4282 -0.4733
 1667TIP3   OH226415   3.502   6.549   2.855  0.3347 -0.2299  0.1829
 1667TIP3    H126416   3.456   6.633   2.850  0.8265  0.0882  0.9119
 1667TIP3    H226417   3.472   6.501   2.777 -1.5664 -0.1983  0.8485
 1668TIP3   OH226418   3.267   1.641   0.411 -0.1681 -0.2567 -0.8211
 1668TIP3    H126419   3.309   1.727   0.414  0.0164 -0.3657 -0.0208
 1668TIP3    H226420   3.292   1.606   0.325  2.1730 -0.6877 -0.0491
 1669TIP3   OH226421   6.546   0.816  13.139 -0.1249 -0.0472 -0.5341
 1669TIP3    H126422   6.620   0.756  13.130 -0.9096 -0.9002 -1.7215
 1669TIP3    H226423   6.545   0.840  13.231  0.9818 -0.8756 -0.2894
 1670TIP3   OH226424   4.244   6.193   0.189 -0.3064  0.3632  0.2498
 1670TIP3    H126425   4.157   6.228   0.174 -0.4454  0.0024  0.2132
 1670TIP3    H226426   4.246   6.111   0.140  0.2687  0.6774 -0.2825
 1671TIP3   OH226427   4.307   1.351  11.169  0.9573  0.3670  0.3657
 1671TIP3    H126428   4.280   1.270  11.212  0.2190  1.4788  2.0963
 1671TIP3    H226429   4.238   1.369  11.105 -0.1607  0.8486  1.6564
 1672TIP3   OH226430   4.075   0.114   0.771  0.2217  0.2913  0.6224
 1672TIP3    H126431   4.116   0.201   0.765  0.0738  0.2789 -1.1480
 1672TIP3    H226432   4.127   0.068   0.837  1.6343  1.0317  0.0788
 1673TIP3   OH226433   5.253   5.732   5.596  0.2104  0.0795 -0.1069
 1673TIP3    H126434   5.239   5.817   5.555 -0.1501 -0.5724 -1.3843
 1673TIP3    H226435   5.270   5.752   5.688 -0.6090  1.4772 -0.2372
 1674TIP3   OH226436   4.272   5.448   2.704  0.5437  0.1950 -0.5129
 1674TIP3    H126437   4.262   5.449   2.609  3.1877  1.2680 -0.8850
 1674TIP3    H226438   4.221   5.522   2.735 -0.6675 -0.4011 -1.0255
 1675TIP3   OH226439   3.153   2.013   5.141  0.5961  0.1489 -0.0462
 1675TIP3    H126440   3.189   1.926   5.159 -1.7339 -0.7193  0.8908
 1675TIP3    H226441   3.189   2.068   5.211  0.9809 -0.4022  0.2055
 1676TIP3   OH226442   5.104   4.519   2.551  0.0535 -0.4063  0.2904
 1676TIP3    H126443   5.088   4.602   2.507 -0.2720 -0.5833  0.0674
 1676TIP3    H226444   5.183   4.534   2.603 -0.1121  0.0975  0.4028
 1677TIP3   OH226445   6.596   0.566   2.362  0.3875  0.0202 -0.0169
 1677TIP3    H126446   6.618   0.650   2.323  1.1974  0.0058  0.3848
 1677TIP3    H226447   6.618   0.501   2.295 -0.0572  0.1182 -0.2556
 1678TIP3   OH226448   2.600   1.374  15.709  0.8495  0.3278  0.3059
 1678TIP3    H126449   2.650   1.414  15.638  0.3882 -0.3519 -0.4221
 1678TIP3    H226450   2.557   1.447  15.752  1.0613  0.7456 -0.1777
 1679TIP3   OH226451   1.707   2.341  17.189 -0.7580  0.0173 -0.2604
 1679TIP3    H126452   1.771   2.289  17.237  1.3084 -1.2986 -4.0182
 1679TIP3    H226453   1.752   2.423  17.168 -1.6621  0.6247  0.0826
 1680TIP3   OH226454   6.202   6.513   1.965  0.3701 -0.5984 -0.2895
 1680TIP3    H126455   6.145   6.529   1.889 -1.7669 -2.5221  0.7968
 1680TIP3    H226456   6.261   6.588   1.966 -2.0731  1.5187 -1.5867
 1681TIP3   OH226457   2.021   1.569  16.018 -0.3359  0.3210  0.1790
 1681TIP3    H126458   2.110   1.547  15.991 -0.0686  0.3386  1.0081
 1681TIP3    H226459   2.032   1.615  16.101 -1.0660  1.1507 -0.1778
 1682TIP3   OH226460   3.845   5.898   3.643  0.3665 -0.2248  0.0360
 1682TIP3    H126461   3.815   5.947   3.720 -0.9327 -0.1689 -0.4852
 1682TIP3    H226462   3.915   5.842   3.677 -0.9364 -1.0416  1.5245
 1683TIP3   OH226463   5.694   6.178  13.543  0.3229  0.1487  0.2899
 1683TIP3    H126464   5.618   6.120  13.545  0.0537  0.4679 -0.5001
 1683TIP3    H226465   5.769   6.120  13.537  0.0007 -0.1183 -1.7021
 1684TIP3   OH226466   2.410   2.006  11.981 -0.9118 -0.4124 -0.2942
 1684TIP3    H126467   2.390   2.068  11.912 -3.5487 -1.0553 -0.2149
 1684TIP3    H226468   2.394   1.920  11.942  2.8224 -1.1946 -0.4547
 1685TIP3   OH226469   2.440   1.487   4.058 -0.5026  0.2698  0.2239
 1685TIP3    H126470   2.530   1.471   4.029 -0.1646  1.4915  0.5331
 1685TIP3    H226471   2.386   1.454   3.986  0.2646  1.3191 -0.8822
 1686TIP3   OH226472   4.469   6.260   5.753  0.3278  0.0679  0.0409
 1686TIP3    H126473   4.563   6.239   5.758  0.0711 -1.0582  0.3625
 1686TIP3    H226474   4.465   6.333   5.691  1.3197 -0.5509 -0.8023
 1687TIP3   OH226475   6.737   0.184  14.403 -0.5451  0.0814  0.4896
 1687TIP3    H126476   6.645   0.206  14.412  0.0091  2.4593  0.9792
 1687TIP3    H226477   6.771   0.246  14.338  0.9332  0.0287  1.1632
 1688TIP3   OH226478   1.767   2.597  17.107 -0.3097  0.0472  0.3962
 1688TIP3    H126479   1.789   2.582  17.015 -0.0106 -0.7580  0.5839
 1688TIP3    H226480   1.827   2.666  17.135 -0.8963  0.8116 -0.1959
 1689TIP3   OH226481   3.362   4.895   2.797 -0.5280  0.7892 -0.4410
 1689TIP3    H126482   3.368   4.952   2.874 -1.7271  1.1224 -0.5659
 1689TIP3    H226483   3.380   4.807   2.831  2.4545  1.3024 -0.4490
 1690TIP3   OH226484   5.105   5.668   5.139  0.2651  0.2151 -0.2693
 1690TIP3    H126485   5.113   5.600   5.072 -1.8363 -0.0026 -0.3714
 1690TIP3    H226486   5.190   5.667   5.184  0.9546 -1.1407 -1.5123
 1691TIP3   OH226487   4.412   3.739  13.681  0.3330  0.2208  0.2763
 1691TIP3    H126488   4.494   3.785  13.701 -0.2610  1.1893  0.5783
 1691TIP3    H226489   4.371   3.725  13.767  0.6665 -1.2116  0.2185
 1692TIP3   OH226490   5.043   4.668  13.847 -0.1512 -0.5432 -0.1371
 1692TIP3    H126491   5.126   4.715  13.834 -0.5623  0.3765  0.4644
 1692TIP3    H226492   5.000   4.670  13.761  0.0287 -0.1876 -0.2212
 1693TIP3   OH226493   3.473   4.710   2.974  0.2571  0.0344 -0.0037
 1693TIP3    H126494   3.556   4.718   2.926  1.2654  1.2497  1.8281
 1693TIP3    H226495   3.488   4.756   3.056 -2.6159  1.3000 -0.0490
 1694TIP3   OH226496   4.645   5.219   0.784  0.3441  0.3894 -0.6226
 1694TIP3    H126497   4.553   5.243   0.770  0.3453  1.3357  0.8364
 1694TIP3    H226498   4.642   5.125   0.804 -0.1607  0.1481 -1.7351
 1695TIP3   OH226499   4.759   5.991   1.020 -0.5067  0.3636  0.3254
 1695TIP3    H126500   4.772   6.013   0.927  0.2646  0.7922  0.5225
 1695TIP3    H226501   4.764   5.895   1.023  3.4626  0.3948  0.4141
 1696TIP3   OH226502   5.369   3.135   0.999  0.0280 -0.2660  0.0744
 1696TIP3    H126503   5.464   3.139   1.011 -0.0293  0.1996  0.4367
 1696TIP3    H226504   5.340   3.066   1.058  0.1960 -0.7387 -0.3988
 1697TIP3   OH226505   3.512   0.303  16.539  0.3154  0.3513 -0.2054
 1697TIP3    H126506   3.486   0.385  16.582  0.3532 -0.5154  1.5602
 1697TIP3    H226507   3.599   0.285  16.574 -0.3304 -1.2324  0.6702
 1698TIP3   OH226508   1.228   3.871   4.327  0.6198 -0.1403 -0.3696
 1698TIP3    H126509   1.192   3.824   4.252  1.1142 -1.5051  0.2297
 1698TIP3    H226510   1.256   3.803   4.388  1.1556  0.9302  0.6282
 1699TIP3   OH226511   3.544   3.830  11.457 -1.0594 -0.2417 -0.2456
 1699TIP3    H126512   3.547   3.741  11.421 -0.9092 -0.4833  0.3434
 1699TIP3    H226513   3.545   3.887  11.381 -0.8864 -0.7428 -0.6261
 1700TIP3   OH226514   3.267   1.936   4.256  0.1922 -0.3723 -0.5640
 1700TIP3    H126515   3.334   1.946   4.323 -0.2652 -0.7496 -0.0397
 1700TIP3    H226516   3.196   1.889   4.300 -1.8110  2.7749 -0.1584
 1701TIP3   OH226517   3.137   2.432  16.672  0.4395  0.0722  0.8995
 1701TIP3    H126518   3.078   2.494  16.715 -0.7199  0.8983 -1.6389
 1701TIP3    H226519   3.225   2.465  16.689 -0.1161  1.8417  0.4817
 1702TIP3   OH226520   0.534   3.930  14.826  0.4935 -0.0293  0.8302
 1702TIP3    H126521   0.572   3.930  14.739  0.9777 -1.2076  1.0352
 1702TIP3    H226522   0.442   3.953  14.811  0.8476  1.0741  0.1644
 1703TIP3   OH226523   5.948   2.017  16.757  0.3704 -0.3404  0.0880
 1703TIP3    H126524   5.906   1.957  16.696 -2.8072 -0.3669  2.0476
 1703TIP3    H226525   5.879   2.080  16.780  1.6112  0.1159  3.0252
 1704TIP3   OH226526   4.757   6.561   3.868 -0.0030  0.0244  0.0977
 1704TIP3    H126527   4.826   6.584   3.929 -0.2997  0.9164  0.1121
 1704TIP3    H226528   4.798   6.565   3.782 -0.4090  2.2937 -0.0633
 1705TIP3   OH226529   1.877   2.498  13.726  0.1864 -0.1072  0.1184
 1705TIP3    H126530   1.920   2.412  13.731  1.2503  0.4040  0.0027
 1705TIP3    H226531   1.882   2.532  13.816  0.5753  0.2212 -0.0304
 1706TIP3   OH226532   3.573   6.620   2.544 -1.1227  0.1236  0.2456
 1706TIP3    H126533   3.550   6.625   2.452 -2.9980 -0.9617  0.6026
 1706TIP3    H226534   3.548   6.532   2.570  2.4909 -0.8319  1.0503
 1707TIP3   OH226535   4.907   4.067   2.314 -0.3919  0.1110 -0.1983
 1707TIP3    H126536   4.989   4.083   2.267 -0.0614 -0.2048  0.2693
 1707TIP3    H226537   4.934   4.036   2.400 -1.0021  0.3573  0.0871
 1708TIP3   OH226538   1.896   6.315  17.179 -0.3844 -0.0929  0.2340
 1708TIP3    H126539   1.824   6.303  17.116  0.8554 -2.5930 -0.8070
 1708TIP3    H226540   1.950   6.238  17.169  1.6608  0.9978  2.1099
 1709TIP3   OH226541   2.098   3.287   0.407  0.9392 -0.1878  0.2490
 1709TIP3    H126542   2.046   3.298   0.327  2.7430 -1.2699 -1.1444
 1709TIP3    H226543   2.035   3.261   0.474 -0.6540  0.9678 -0.7365
 1710TIP3   OH226544   4.437   2.215   2.518  0.1963 -0.0291 -0.3949
 1710TIP3    H126545   4.505   2.277   2.492 -1.0258  1.9373  0.8595
 1710TIP3    H226546   4.473   2.169   2.594 -0.7856  3.0786  2.1768
 1711TIP3   OH226547   0.877   6.490   2.652  0.9810  0.1361 -0.1048
 1711TIP3    H126548   0.837   6.459   2.571  0.7353 -1.8738  0.7269
 1711TIP3    H226549   0.805   6.489   2.715  1.3129  1.0867  0.3020
 1712TIP3   OH226550   3.079   1.524   2.032  0.4211 -0.0770 -0.4727
 1712TIP3    H126551   3.170   1.496   2.019  1.1619  1.5789  0.7289
 1712TIP3    H226552   3.037   1.449   2.073  0.8236 -1.4007 -2.3485
 1713TIP3   OH226553   2.247   2.200   3.709 -0.5032 -0.1800  0.2799
 1713TIP3    H126554   2.243   2.137   3.636 -0.8638 -0.1844  0.3039
 1713TIP3    H226555   2.191   2.273   3.681  1.2502  0.9397 -0.5082
 1714TIP3   OH226556   5.712   3.196   5.554 -0.2566  0.4197 -0.3086
 1714TIP3    H126557   5.703   3.119   5.498 -0.7277  0.9429 -0.9649
 1714TIP3    H226558   5.629   3.200   5.603  1.3233 -1.8853  2.8848
 1715TIP3   OH226559   5.395   2.367   5.541  0.4484  0.1028 -0.2883
 1715TIP3    H126560   5.455   2.375   5.467  0.6029  0.6087 -0.1078
 1715TIP3    H226561   5.438   2.414   5.612  0.5595 -0.8414  0.2880
 1716TIP3   OH226562   1.128   2.432   3.114  0.1774 -0.2604 -0.4941
 1716TIP3    H126563   1.063   2.378   3.069  2.3921 -1.3810 -2.5626
 1716TIP3    H226564   1.142   2.388   3.198 -1.1944 -0.3617 -0.2890
 1717TIP3   OH226565   3.779   5.915   6.159 -0.4742  0.2831  0.3500
 1717TIP3    H126566   3.842   5.851   6.123  0.3277  1.1135  0.2441
 1717TIP3    H226567   3.751   5.966   6.084 -2.0418 -0.6772  0.2282
 1718TIP3   OH226568   5.039   6.417   5.726 -0.1095  0.0620 -0.0126
 1718TIP3    H126569   4.971   6.434   5.661 -1.8573 -1.1917  1.3600
 1718TIP3    H226570   5.030   6.489   5.789  1.2903  1.0419 -0.8979
 1719TIP3   OH226571   1.253   0.338   0.375 -0.6670 -0.4360  0.3590
 1719TIP3    H126572   1.165   0.319   0.343 -0.8974 -0.1853  0.8233
 1719TIP3    H226573   1.240   0.361   0.467 -0.3171  1.0822  0.0626
 1720TIP3   OH226574   2.164   6.745  17.335 -0.0515 -0.1665 -0.0664
 1720TIP3    H126575   2.260   6.748  17.330 -0.0694 -0.2043 -0.4914
 1720TIP3    H226576   2.140   6.664  17.289 -0.2963 -0.0320 -0.1781
 1721TIP3   OH226577   3.553   3.979   2.009 -0.1022  0.0429  0.1553
 1721TIP3    H126578   3.537   4.073   2.002  1.2574  0.3219  0.4927
 1721TIP3    H226579   3.542   3.946   1.920 -1.0109  0.4306  0.1085
 1722TIP3   OH226580   3.062   0.383  15.991  0.1100  0.0810  0.6116
 1722TIP3    H126581   3.088   0.307  15.938 -0.3340 -0.0202  0.5341
 1722TIP3    H226582   3.099   0.365  16.077 -1.9225 -1.3805  1.2624
 1723TIP3   OH226583   3.845   3.067  13.561 -0.2418  0.0995  0.4057
 1723TIP3    H126584   3.807   2.982  13.584  0.5265  0.1707  2.0857
 1723TIP3    H226585   3.937   3.060  13.587  0.1716  0.9784 -0.7433
 1724TIP3   OH226586   5.029   6.125  12.638 -0.5677 -0.1786  0.6700
 1724TIP3    H126587   4.976   6.201  12.613 -0.5486 -0.0951  0.8863
 1724TIP3    H226588   5.009   6.059  12.571 -0.2997  0.1431  0.2651
 1725TIP3   OH226589   2.960   1.216  12.442 -0.0149 -0.4087  0.0106
 1725TIP3    H126590   3.004   1.140  12.480 -0.8326 -0.5021  0.7814
 1725TIP3    H226591   2.867   1.200  12.455 -0.1867  1.0163  0.7962
 1726TIP3   OH226592   5.785   5.055  15.625  0.5961 -0.0896 -0.1074
 1726TIP3    H126593   5.692   5.074  15.617  0.2240 -1.0358  1.5160
 1726TIP3    H226594   5.806   5.004  15.547  0.1440  1.4082 -1.2591
 1727TIP3   OH226595   0.518   4.787   1.431 -0.3605  0.4677  0.1301
 1727TIP3    H126596   0.470   4.769   1.512 -0.5126  0.3997  0.0238
 1727TIP3    H226597   0.457   4.764   1.361 -0.5046  1.2530 -0.0059
 1728TIP3   OH226598   3.174   1.789   6.674  0.1971  0.5661  0.4243
 1728TIP3    H126599   3.080   1.797   6.661 -0.0029  0.8145  1.8896
 1728TIP3    H226600   3.189   1.696   6.689 -0.0229  0.7160  1.6169
 1729TIP3   OH226601   2.519   1.257   2.171 -0.0705 -0.1209 -0.1826
 1729TIP3    H126602   2.570   1.310   2.110  1.1892  0.3157  1.1817
 1729TIP3    H226603   2.584   1.198   2.211 -0.9645 -0.7999  0.2931
 1730TIP3   OH226604   6.284   1.607  15.832 -0.1545 -0.3082  0.3989
 1730TIP3    H126605   6.340   1.668  15.785  1.0616 -0.6812  1.3119
 1730TIP3    H226606   6.324   1.521  15.818  0.2710 -0.4245  2.0926
 1731TIP3   OH226607   1.844   3.030   2.165 -0.0833 -0.0120 -0.7639
 1731TIP3    H126608   1.762   3.051   2.120 -0.0580  0.5541 -0.5510
 1731TIP3    H226609   1.844   3.087   2.242 -0.1754 -1.0252  0.0189
 1732TIP3   OH226610   4.644   1.991   4.790 -0.6265 -0.0320  0.2338
 1732TIP3    H126611   4.632   1.920   4.852  1.8749  0.0464  0.9064
 1732TIP3    H226612   4.688   1.951   4.715  2.0620  0.9512  1.1851
 1733TIP3   OH226613   0.105   6.687  13.932  0.3423  0.2008  0.9748
 1733TIP3    H126614   0.029   6.630  13.925  0.5864  0.0995 -1.6896
 1733TIP3    H226615   0.069   6.774  13.951 -0.4083  0.0266  0.3839
 1734TIP3   OH226616   5.412   4.971   6.194  0.0401  0.2266 -0.2396
 1734TIP3    H126617   5.434   4.973   6.287 -0.3846  0.7136 -0.1452
 1734TIP3    H226618   5.319   4.992   6.191  0.2612  1.1805 -0.8387
 1735TIP3   OH226619   0.519   1.508   4.007  0.0430 -0.1043  0.1003
 1735TIP3    H126620   0.566   1.582   3.970 -0.0008 -0.9794 -1.8296
 1735TIP3    H226621   0.582   1.436   4.003 -0.3069 -0.4641  0.8370
 1736TIP3   OH226622   2.427   0.384   6.018  0.8454 -0.0742 -0.3267
 1736TIP3    H126623   2.495   0.328   5.979  2.1542 -0.8451  2.7573
 1736TIP3    H226624   2.409   0.344   6.103 -2.5669  0.9097 -0.4514
 1737TIP3   OH226625   3.514   5.604   4.507 -0.4812  0.0803  0.2148
 1737TIP3    H126626   3.461   5.525   4.519  0.2863 -0.5400 -0.4016
 1737TIP3    H226627   3.509   5.624   4.414  0.1497  0.1696  0.1909
 1738TIP3   OH226628   2.038   4.684  12.497 -0.1720  0.0920 -0.3021
 1738TIP3    H126629   2.031   4.776  12.520  0.1196  0.0936 -0.2209
 1738TIP3    H226630   2.124   4.675  12.457 -0.4842 -0.0067 -0.9610
 1739TIP3   OH226631   1.892   1.227  12.225 -0.1120  0.2072 -0.2196
 1739TIP3    H126632   1.956   1.295  12.248 -0.8414  0.5901  0.7734
 1739TIP3    H226633   1.872   1.184  12.309 -0.1610 -0.8011 -0.7328
 1740TIP3   OH226634   5.839   5.554   2.221 -0.3262  0.4470 -0.5142
 1740TIP3    H126635   5.816   5.472   2.264  0.2383 -0.6507 -2.2169
 1740TIP3    H226636   5.834   5.534   2.127 -1.1191  2.6212 -0.9924
 1741TIP3   OH226637   0.670   0.801   2.329  0.1482 -0.0025  0.1309
 1741TIP3    H126638   0.650   0.791   2.422 -2.0127 -1.5136 -0.4304
 1741TIP3    H226639   0.695   0.893   2.320 -2.4652  0.9825  1.7500
 1742TIP3   OH226640   6.597   5.475   3.081 -0.2923 -0.3916 -0.1588
 1742TIP3    H126641   6.560   5.429   3.006 -0.9897 -0.5926  0.2948
 1742TIP3    H226642   6.666   5.418   3.113  1.6708  0.7643 -2.0594
 1743TIP3   OH226643   0.545   3.550  16.105 -1.0044 -0.2119 -0.0931
 1743TIP3    H126644   0.494   3.621  16.065  0.1461  0.4601 -0.3934
 1743TIP3    H226645   0.623   3.542  16.050 -0.6864 -1.1111  0.4633
 1744TIP3   OH226646   3.033   5.140   4.203  0.3086 -0.2708 -0.2706
 1744TIP3    H126647   3.049   5.201   4.131  0.3932 -0.3852 -0.3499
 1744TIP3    H226648   2.983   5.069   4.164  0.5998 -0.4729 -0.2856
 1745TIP3   OH226649   6.510   2.401  12.877  0.2564 -0.3566 -0.3152
 1745TIP3    H126650   6.530   2.417  12.969 -2.6375 -3.5922  1.0833
 1745TIP3    H226651   6.571   2.333  12.850  1.6203  1.1214 -1.1418
 1746TIP3   OH226652   0.104   2.683   4.487 -0.6893  0.2711 -0.0186
 1746TIP3    H126653   0.107   2.680   4.391 -0.3303  0.8602 -0.0278
 1746TIP3    H226654   0.025   2.633   4.510 -1.0227  0.5032 -0.6425
 1747TIP3   OH226655   3.046   1.462  13.380  0.6586 -0.3404 -0.4273
 1747TIP3    H126656   3.067   1.392  13.319  2.8722 -0.4054  0.3179
 1747TIP3    H226657   3.057   1.423  13.466  1.3335  0.7259 -0.0029
 1748TIP3   OH226658   4.766   2.552  11.775 -0.4805 -0.2214  0.3478
 1748TIP3    H126659   4.773   2.545  11.680  0.1840 -2.1850  0.5007
 1748TIP3    H226660   4.680   2.516  11.795 -0.3173 -0.5072  0.5417
 1749TIP3   OH226661   5.439   0.252  15.079 -0.0053  0.0649 -0.1421
 1749TIP3    H126662   5.463   0.177  15.025 -0.3504 -0.1789  0.0403
 1749TIP3    H226663   5.496   0.322  15.049  1.1255 -0.5692  0.4692
 1750TIP3   OH226664   2.925   3.601  16.058  0.7085  0.1710 -0.3452
 1750TIP3    H126665   3.019   3.586  16.058  1.1082  2.3840  0.0965
 1750TIP3    H226666   2.891   3.538  16.122  2.1659  0.7493  1.0806
 1751TIP3   OH226667   1.927   5.694  13.147 -0.1018 -0.7203  0.3462
 1751TIP3    H126668   1.950   5.762  13.210 -0.2343  0.1002 -0.4710
 1751TIP3    H226669   1.991   5.704  13.076  0.1543 -1.7384  0.4207
 1752TIP3   OH226670   4.214   2.409  12.508 -0.2882 -0.1031 -0.6927
 1752TIP3    H126671   4.231   2.502  12.490  1.1131 -0.4316 -1.2220
 1752TIP3    H226672   4.250   2.364  12.431  0.3309 -1.1679  0.1940
 1753TIP3   OH226673   2.316   1.009   1.376 -0.4911 -0.3212 -0.7011
 1753TIP3    H126674   2.252   0.985   1.309  0.2529 -0.8264 -1.2464
 1753TIP3    H226675   2.336   0.926   1.420  0.4194 -0.3241 -1.1031
 1754TIP3   OH226676   3.755   0.075   2.875 -0.2974  0.0788  0.3451
 1754TIP3    H126677   3.736   0.095   2.783 -0.1018 -1.4589 -0.0433
 1754TIP3    H226678   3.670   0.083   2.918 -0.1494  2.2910  0.3568
 1755TIP3   OH226679   0.741   5.929   1.300  0.0497  0.3730 -0.3447
 1755TIP3    H126680   0.663   5.983   1.309 -0.1834 -0.1449  0.9015
 1755TIP3    H226681   0.708   5.845   1.267  0.1522  0.3439 -0.3732
 1756TIP3   OH226682   2.628   0.906   1.449  0.4564 -0.0914 -0.2647
 1756TIP3    H126683   2.714   0.911   1.493  0.5065 -0.5574 -0.2999
 1756TIP3    H226684   2.606   0.997   1.429  1.0853  0.0133 -0.5247
 1757TIP3   OH226685   6.161   0.633   0.750  0.1916 -0.3466 -0.0860
 1757TIP3    H126686   6.196   0.546   0.730  2.7348  0.3693  0.9099
 1757TIP3    H226687   6.089   0.644   0.688  0.8383 -2.5126 -1.3406
 1758TIP3   OH226688   2.243   2.697  12.145 -0.2452  0.4700  0.5231
 1758TIP3    H126689   2.159   2.697  12.190  0.3487 -1.8884  1.8006
 1758TIP3    H226690   2.225   2.658  12.060 -0.1642 -1.9934  1.5685
 1759TIP3   OH226691   5.630   0.739  13.452  0.4917 -0.3215 -0.0546
 1759TIP3    H126692   5.553   0.791  13.429  0.3826 -0.3631  0.2156
 1759TIP3    H226693   5.658   0.700  13.369  0.9546  0.6702 -0.3796
 1760TIP3   OH226694   1.663   5.654  12.868 -0.4839  0.1521 -0.0329
 1760TIP3    H126695   1.622   5.725  12.819 -1.0882  1.2975  1.9999
 1760TIP3    H226696   1.757   5.667  12.855 -0.6278 -0.0070 -1.4052
 1761TIP3   OH226697   5.363   4.715   2.012 -0.1270  0.0318  0.0835
 1761TIP3    H126698   5.299   4.703   1.942  0.7959 -0.1477 -0.7537
 1761TIP3    H226699   5.383   4.808   2.010 -1.4772  0.3746  1.3669
 1762TIP3   OH226700   0.895   1.469   2.145  0.1783 -0.1335 -0.1695
 1762TIP3    H126701   0.990   1.466   2.133  0.3380  1.7920  0.3009
 1762TIP3    H226702   0.883   1.491   2.238 -0.7325 -0.5010 -0.1884
 1763TIP3   OH226703   3.580   5.822   4.843  0.3428  0.6088  0.2784
 1763TIP3    H126704   3.633   5.772   4.780 -1.5002 -0.9872 -0.1080
 1763TIP3    H226705   3.569   5.763   4.917 -1.2136  0.7189  0.1657
 1764TIP3   OH226706   5.434   0.213  11.919 -0.2548 -0.6523 -0.0936
 1764TIP3    H126707   5.396   0.192  12.004  0.8014  0.3742  0.6574
 1764TIP3    H226708   5.396   0.148  11.859 -1.6298 -0.8972  0.9879
 1765TIP3   OH226709   6.330   4.265  12.124 -0.2124  0.1612 -0.7732
 1765TIP3    H126710   6.261   4.299  12.180  0.2466  2.7384 -1.6781
 1765TIP3    H226711   6.305   4.290  12.036  0.3233 -1.6745 -1.4935
 1766TIP3   OH226712   4.491   6.412  16.985 -0.1249 -0.2080  0.5370
 1766TIP3    H126713   4.572   6.460  17.004 -0.4922  1.5013 -1.7459
 1766TIP3    H226714   4.424   6.461  17.032 -0.8038  3.0850 -3.2599
 1767TIP3   OH226715   4.383   1.119  16.425  0.3065  0.4239  0.0544
 1767TIP3    H126716   4.369   1.081  16.339 -1.9928 -3.0741  1.7397
 1767TIP3    H226717   4.477   1.134  16.431  0.3555  2.6213 -3.6159
 1768TIP3   OH226718   3.917   2.751   4.376 -0.2651 -0.3903 -0.1597
 1768TIP3    H126719   3.913   2.655   4.375  1.8744 -0.5510  1.0949
 1768TIP3    H226720   3.891   2.776   4.465 -3.2723  0.4493 -1.1457
 1769TIP3   OH226721   6.093   5.114  16.367  0.9179  0.1562 -0.1111
 1769TIP3    H126722   6.150   5.142  16.295 -0.4129  1.8751 -0.5581
 1769TIP3    H226723   6.075   5.194  16.416  0.0758 -0.6206  0.8988
 1770TIP3   OH226724   0.409   1.926  11.248 -0.0170  0.5197  0.1519
 1770TIP3    H126725   0.370   1.877  11.320  0.6362 -0.1035  0.0993
 1770TIP3    H226726   0.461   1.861  11.201  0.1906  1.0910 -0.4200
 1771TIP3   OH226727   3.258   2.205   1.269  0.0752  0.1916 -0.3495
 1771TIP3    H126728   3.204   2.127   1.255  2.3822 -1.3952 -1.0456
 1771TIP3    H226729   3.196   2.277   1.273 -2.0503 -1.4809 -1.3251
 1772TIP3   OH226730   1.360   4.778  13.964 -0.3192  0.1843  0.2399
 1772TIP3    H126731   1.325   4.866  13.975  0.7843  0.7603 -0.6902
 1772TIP3    H226732   1.296   4.734  13.907 -0.1701  0.8515 -0.4711
 1773TIP3   OH226733   4.005   4.858   0.487 -0.1463  0.3192  0.4062
 1773TIP3    H126734   4.038   4.948   0.489  0.3504  0.2776 -2.0383
 1773TIP3    H226735   3.942   4.854   0.559 -2.3009  3.5175 -1.0457
 1774TIP3   OH226736   2.831   6.098   2.524 -0.3228  0.2923  0.4895
 1774TIP3    H126737   2.838   6.114   2.618  1.0749  1.1953  0.2543
 1774TIP3    H226738   2.917   6.064   2.498 -0.5089  0.5771 -0.5526
 1775TIP3   OH226739   0.139   5.089  16.721  0.2576 -0.2382  0.5040
 1775TIP3    H126740   0.161   5.170  16.768 -0.2746  1.6369 -2.1882
 1775TIP3    H226741   0.052   5.104  16.686 -0.7053 -2.8766  1.5314
 1776TIP3   OH226742   3.372   5.243   2.409 -0.1331  0.3487 -0.1357
 1776TIP3    H126743   3.311   5.316   2.400  0.2549  0.5242 -1.7403
 1776TIP3    H226744   3.441   5.276   2.466  0.5756  1.6581 -1.6700
 1777TIP3   OH226745   6.663   1.185   3.532 -0.2029 -0.1843 -0.1894
 1777TIP3    H126746   6.598   1.115   3.526 -1.0120  0.6027 -0.9043
 1777TIP3    H226747   6.612   1.263   3.552  0.4482  0.5479 -1.2841
 1778TIP3   OH226748   4.126   5.448   6.471 -0.2702 -0.4909  0.4276
 1778TIP3    H126749   4.078   5.365   6.473 -1.6782  0.2741  3.0233
 1778TIP3    H226750   4.095   5.493   6.393 -1.0891 -1.5223  0.1429
 1779TIP3   OH226751   2.155   5.998  16.235 -0.3660 -0.4397 -0.5382
 1779TIP3    H126752   2.115   5.921  16.194  0.5594 -1.6267  0.6533
 1779TIP3    H226753   2.107   6.072  16.201 -2.6460 -1.6951 -0.2296
 1780TIP3   OH226754   6.682   1.016  11.464 -0.0162  0.1501 -0.5077
 1780TIP3    H126755   6.763   0.965  11.470  0.4571  1.0471  1.4972
 1780TIP3    H226756   6.615   0.959  11.500  0.1452  0.2255 -0.0871
 1781TIP3   OH226757   2.827   6.682  11.736  0.1538  0.0240  0.2834
 1781TIP3    H126758   2.793   6.613  11.679  2.6010 -0.5784 -0.5462
 1781TIP3    H226759   2.752   6.741  11.748 -0.8591 -0.5449 -2.4130
 1782TIP3   OH226760   4.031   6.137  14.044  0.2524 -0.1843 -0.1962
 1782TIP3    H126761   4.020   6.077  13.970 -0.0585 -1.5149  0.8884
 1782TIP3    H226762   3.965   6.109  14.108 -0.1409  1.5451  0.2263
 1783TIP3   OH226763   4.593   0.770  13.707 -0.3916 -0.0070  0.2841
 1783TIP3    H126764   4.504   0.791  13.678 -0.5066 -1.5736 -0.5799
 1783TIP3    H226765   4.588   0.772  13.802 -1.0125  1.2344  0.2478
 1784TIP3   OH226766   4.938   6.024   4.687  0.2821 -0.0625  0.0827
 1784TIP3    H126767   4.905   6.100   4.734 -1.7670 -0.7772 -0.1159
 1784TIP3    H226768   4.945   5.956   4.754  0.5849 -0.1512 -0.0360
 1785TIP3   OH226769   6.382   4.564  16.174 -0.2065 -0.6036  0.9750
 1785TIP3    H126770   6.396   4.609  16.091  1.0789  1.9776  2.4558
 1785TIP3    H226771   6.287   4.554  16.181 -0.6068  2.2972  0.6791
 1786TIP3   OH226772   2.014   3.268   3.497  0.2894 -0.3903 -0.3868
 1786TIP3    H126773   2.036   3.184   3.537 -0.9854 -0.3171  0.5141
 1786TIP3    H226774   1.933   3.251   3.448 -1.0875  0.7220  1.3925
 1787TIP3   OH226775   6.421   4.598  13.034 -0.1742 -0.7103  0.6112
 1787TIP3    H126776   6.433   4.688  13.066  0.2726 -0.5931  0.1371
 1787TIP3    H226777   6.492   4.548  13.074  1.5870 -0.1743 -1.6029
 1788TIP3   OH226778   5.265   4.311   1.856  0.8472  0.0552  0.0830
 1788TIP3    H126779   5.245   4.219   1.836 -0.3163  0.3917 -0.3921
 1788TIP3    H226780   5.216   4.328   1.937  1.2065  0.2075  0.2684
 1789TIP3   OH226781   6.121   5.887   2.767  0.2388  0.1127 -0.3583
 1789TIP3    H126782   6.052   5.928   2.818  0.7846  0.9782 -0.2888
 1789TIP3    H226783   6.144   5.953   2.701 -0.2113 -0.8454 -1.5045
 1790TIP3   OH226784   1.630   4.494   6.348  0.5078 -0.2909 -0.2971
 1790TIP3    H126785   1.639   4.588   6.337  2.7796 -0.4294 -0.1693
 1790TIP3    H226786   1.703   4.457   6.298 -2.3643 -2.2869 -3.4466
 1791TIP3   OH226787   2.153   6.192   0.479 -0.4192 -0.6391 -0.5203
 1791TIP3    H126788   2.083   6.253   0.500 -0.9965 -1.5949  0.4753
 1791TIP3    H226789   2.206   6.188   0.558  0.6836 -0.0591 -1.2059
 1792TIP3   OH226790   3.983   5.933  17.104 -0.1715 -0.0513 -0.3457
 1792TIP3    H126791   4.034   5.852  17.110 -1.1337 -0.7510 -1.2024
 1792TIP3    H226792   3.932   5.934  17.185  0.1256 -0.0906 -0.1538
 1793TIP3   OH226793   1.538   5.861  14.253  0.2718  0.1988  0.2984
 1793TIP3    H126794   1.552   5.912  14.174  1.6675  1.2579  1.1746
 1793TIP3    H226795   1.488   5.784  14.224  0.3939  0.7615 -1.5077
 1794TIP3   OH226796   0.317   5.467  16.594  0.2607  0.5951  0.5017
 1794TIP3    H126797   0.278   5.453  16.680 -0.7637  0.0667 -0.0434
 1794TIP3    H226798   0.269   5.410  16.535 -0.1878  2.1724 -0.7459
 1795TIP3   OH226799   5.857   0.537  14.087  0.4199  0.3474 -0.0741
 1795TIP3    H126800   5.942   0.574  14.111  1.4870 -0.7412 -1.8863
 1795TIP3    H226801   5.874   0.491  14.005 -1.2648 -2.3415  0.9608
 1796TIP3   OH226802   3.028   3.737   5.080  0.2338  0.2198  0.3873
 1796TIP3    H126803   2.989   3.754   4.994 -0.5308 -1.0977  0.4619
 1796TIP3    H226804   3.123   3.741   5.065  0.1002  0.6343 -0.3708
 1797TIP3   OH226805   3.427   2.812  14.990 -0.9448 -0.3104 -0.2483
 1797TIP3    H126806   3.473   2.808  14.907  0.2346 -1.0372  0.4156
 1797TIP3    H226807   3.464   2.889  15.035  2.0901 -2.6554  1.6200
 1798TIP3   OH226808   4.724   0.042   2.670 -0.1266 -0.3924 -0.2739
 1798TIP3    H126809   4.808   0.009   2.637  0.6426  0.3801  0.8464
 1798TIP3    H226810   4.697   0.107   2.605  1.1436  0.7826  0.3143
 1799TIP3   OH226811   4.406   3.232  12.772  0.3601  0.4954  0.8198
 1799TIP3    H126812   4.339   3.201  12.710  0.4509  0.5678  0.6856
 1799TIP3    H226813   4.361   3.232  12.857 -0.0527  1.2661  0.6215
 1800TIP3   OH226814   0.572   1.274  12.038  0.1898 -0.3306 -0.1885
 1800TIP3    H126815   0.637   1.236  11.979  0.5915 -0.4129  0.2984
 1800TIP3    H226816   0.512   1.202  12.057 -0.0824 -0.2422 -0.6757
 1801TIP3   OH226817   5.075   6.460  11.208 -0.3957 -0.2297  0.4751
 1801TIP3    H126818   5.048   6.440  11.118  2.5626 -1.4835 -0.2620
 1801TIP3    H226819   5.118   6.545  11.201  0.4257 -0.6310  0.5344
 1802TIP3   OH226820   5.682   3.606  17.088 -0.4166 -0.0951  0.4464
 1802TIP3    H126821   5.603   3.552  17.078 -1.0658  0.7873  0.7012
 1802TIP3    H226822   5.660   3.669  17.156  1.7184 -1.9803  3.1001
 1803TIP3   OH226823   2.252   4.806   0.199 -0.1613  0.1116  0.1614
 1803TIP3    H126824   2.300   4.733   0.159  0.7835  1.0967 -0.5820
 1803TIP3    H226825   2.237   4.778   0.290  0.2567 -0.9587 -0.0807
 1804TIP3   OH226826   4.673   4.803  15.068 -0.2223  0.1180 -0.2647
 1804TIP3    H126827   4.715   4.848  14.994  0.2245  0.9687  0.4951
 1804TIP3    H226828   4.720   4.834  15.145 -1.4823  0.1768  0.5036
 1805TIP3   OH226829   1.960   3.286  16.342  0.4899  0.1012 -0.0036
 1805TIP3    H126830   1.887   3.224  16.343 -0.9145  1.6777 -0.0866
 1805TIP3    H226831   1.919   3.371  16.325  2.6413  0.6658 -3.4997
 1806TIP3   OH226832   4.176   1.791   1.926  0.2589 -0.0308 -0.4991
 1806TIP3    H126833   4.203   1.702   1.948  0.5331  0.1369 -0.1457
 1806TIP3    H226834   4.109   1.813   1.990 -0.4473 -0.3003 -1.1302
 1807TIP3   OH226835   3.366   6.668   3.493 -0.5203  0.2616  0.1985
 1807TIP3    H126836   3.296   6.608   3.521  0.3165 -1.0617 -0.4285
 1807TIP3    H226837   3.352   6.678   3.399 -0.0647  0.2441  0.1273
 1808TIP3   OH226838   2.707   2.744  12.393  0.0065  0.0596 -0.2656
 1808TIP3    H126839   2.720   2.695  12.474  0.0108 -1.7604 -1.3039
 1808TIP3    H226840   2.638   2.696  12.346 -0.6944  1.6256 -0.9281
 1809TIP3   OH226841   1.562   2.391   2.684 -0.5314 -0.1944  0.1989
 1809TIP3    H126842   1.601   2.447   2.617  0.3283 -1.0917 -0.0743
 1809TIP3    H226843   1.468   2.400   2.671 -0.4015  0.8428 -0.1162
 1810TIP3   OH226844   6.025   1.587   2.156  0.3049  0.0233 -0.5492
 1810TIP3    H126845   5.968   1.546   2.221  2.3704  0.3613  1.6286
 1810TIP3    H226846   6.033   1.678   2.184  0.6963  0.3684 -1.7132
 1811TIP3   OH226847   1.782   4.771   5.763 -0.0298 -0.3114 -0.1286
 1811TIP3    H126848   1.829   4.697   5.725  0.0028 -1.2816  1.7125
 1811TIP3    H226849   1.689   4.748   5.754 -0.0018 -1.0980  1.3736
 1812TIP3   OH226850   1.632   5.143   6.672  0.5625 -0.4262 -0.5645
 1812TIP3    H126851   1.609   5.207   6.605  1.5845  0.3618 -0.1854
 1812TIP3    H226852   1.588   5.173   6.751 -1.5299 -1.9394 -1.0569
 1813TIP3   OH226853   6.159   0.099  11.902 -0.4303 -0.1160  0.7016
 1813TIP3    H126854   6.240   0.142  11.930 -1.2517  1.2154  1.1819
 1813TIP3    H226855   6.187   0.018  11.861  1.1753  0.5466  0.4087
 1814TIP3   OH226856   0.036   5.800  15.784  0.2463  0.1198  0.1401
 1814TIP3    H126857   0.083   5.842  15.712 -0.1134 -0.4606 -0.4506
 1814TIP3    H226858  -0.057   5.805  15.758  0.0489  0.5515  0.9093
 1815TIP3   OH226859   5.512   2.282   1.887  0.0938  0.1100  0.1493
 1815TIP3    H126860   5.537   2.236   1.807  0.5879  0.0845  0.3137
 1815TIP3    H226861   5.588   2.272   1.946 -0.0627  0.5486  0.4360
 1816TIP3   OH226862   3.549   3.756   1.032 -0.4295  0.6904 -0.7200
 1816TIP3    H126863   3.536   3.679   1.087 -1.1359  1.3049  0.0007
 1816TIP3    H226864   3.611   3.810   1.080 -0.0566  0.6462 -1.1461
 1817TIP3   OH226865   3.105   5.901  13.445 -0.7966 -0.5520  0.5178
 1817TIP3    H126866   3.108   5.809  13.417  0.4004 -0.6410  0.9056
 1817TIP3    H226867   3.083   5.896  13.538 -3.3711 -0.3051  0.0196
 1818TIP3   OH226868   2.484   6.348  12.106 -1.0085  0.1520 -0.1422
 1818TIP3    H126869   2.504   6.325  12.197  0.4891 -0.3193 -0.5664
 1818TIP3    H226870   2.468   6.264  12.063 -1.4376  0.3544 -0.3869
 1819TIP3   OH226871   1.628   1.630   0.292  0.6759 -0.3412  0.0702
 1819TIP3    H126872   1.637   1.659   0.382  0.1650 -0.2339  0.0924
 1819TIP3    H226873   1.676   1.695   0.240  1.2190 -0.5653  0.2842
 1820TIP3   OH226874   1.916   1.177   3.177 -0.1960 -0.4131  0.2826
 1820TIP3    H126875   1.900   1.255   3.123  0.0174 -0.3976  0.2384
 1820TIP3    H226876   1.904   1.208   3.267 -1.0634 -0.5645  0.2278
 1821TIP3   OH226877   5.463   4.634  16.344  0.1826  0.0215  0.0497
 1821TIP3    H126878   5.538   4.596  16.390  0.4867  2.0900  1.3992
 1821TIP3    H226879   5.399   4.562  16.338  2.0597 -1.6773 -0.7992
 1822TIP3   OH226880   3.534   3.263  13.087  0.1000 -0.9673 -0.3490
 1822TIP3    H126881   3.464   3.206  13.056  0.0367  0.0231 -2.1884
 1822TIP3    H226882   3.614   3.223  13.053  0.0414  0.0576 -1.7987
 1823TIP3   OH226883   5.742   5.390   5.286 -0.1364 -0.3007  0.4148
 1823TIP3    H126884   5.706   5.368   5.201 -2.1248  0.3266  1.0400
 1823TIP3    H226885   5.724   5.313   5.341 -0.0045 -0.2060  0.5943
 1824TIP3   OH226886   0.217   0.087  13.684 -0.7980 -0.1416 -0.0551
 1824TIP3    H126887   0.214   0.057  13.775  0.2732 -0.1606 -0.0194
 1824TIP3    H226888   0.254   0.175  13.689 -4.6663  1.7215 -0.0568
 1825TIP3   OH226889   4.865   1.118   2.270  0.5388  0.3123 -0.2570
 1825TIP3    H126890   4.791   1.115   2.209 -0.5862  2.7362  0.8409
 1825TIP3    H226891   4.861   1.035   2.318 -0.5870 -0.2004 -1.1840
 1826TIP3   OH226892   0.566   3.155   6.054  0.1076  0.1508 -0.3691
 1826TIP3    H126893   0.533   3.202   6.131 -0.5520  1.8447 -1.6186
 1826TIP3    H226894   0.487   3.119   6.013  0.4065 -0.3326 -0.5199
 1827TIP3   OH226895   0.590   2.362   4.715 -0.0002  0.0210 -0.0463
 1827TIP3    H126896   0.616   2.422   4.645 -1.3484  1.5055  0.6675
 1827TIP3    H226897   0.506   2.327   4.686  0.3966 -0.9441 -0.0758
 1828TIP3   OH226898   2.011   3.539   2.015 -0.2856 -0.0425 -0.0222
 1828TIP3    H126899   2.093   3.490   2.015 -0.6154 -0.6395  1.5142
 1828TIP3    H226900   2.018   3.600   2.088 -0.7864  0.6675 -0.5466
 1829TIP3   OH226901   6.336   1.275  11.257 -0.2639  0.0832 -0.4434
 1829TIP3    H126902   6.397   1.201  11.259  0.5818  0.7540 -0.8754
 1829TIP3    H226903   6.351   1.317  11.172 -0.6375  0.8207 -0.1555
 1830TIP3   OH226904   5.948   1.302   2.636 -0.4589  0.3582  0.3698
 1830TIP3    H126905   5.963   1.212   2.664 -0.2065  0.0935 -0.5808
 1830TIP3    H226906   5.857   1.304   2.607 -0.4852  0.4285  0.4555
 1831TIP3   OH226907   1.491   0.284   3.595 -0.2212 -0.1623 -0.2974
 1831TIP3    H126908   1.572   0.274   3.646  1.3370  0.0068 -2.5528
 1831TIP3    H226909   1.440   0.349   3.643  0.5824 -0.8855  1.6376
 1832TIP3   OH226910   2.771   0.348  16.905  0.2245  0.1289  0.6228
 1832TIP3    H126911   2.710   0.342  16.831 -1.5648  0.1995  2.0154
 1832TIP3    H226912   2.772   0.441  16.927 -0.1637 -0.0424  1.3887
 1833TIP3   OH226913   6.555   3.406  15.187  0.2228 -0.1900 -0.0713
 1833TIP3    H126914   6.527   3.424  15.097  0.1348  1.6833  0.2935
 1833TIP3    H226915   6.475   3.379  15.231 -0.2844  1.3172  0.0073
 1834TIP3   OH226916   2.787   2.553   2.299 -0.3815 -0.1741  0.6822
 1834TIP3    H126917   2.704   2.506   2.296 -0.9972  0.9244 -0.9736
 1834TIP3    H226918   2.851   2.491   2.263 -1.3986  0.5094 -2.6833
 1835TIP3   OH226919   1.487   3.565   0.178  0.2136 -0.2708 -0.3535
 1835TIP3    H126920   1.416   3.602   0.124 -0.7909 -1.2069  0.2831
 1835TIP3    H226921   1.485   3.471   0.159  1.4072 -0.2929 -0.4431
 1836TIP3   OH226922   0.678   5.622   0.642 -0.2864  0.1329  0.4136
 1836TIP3    H126923   0.645   5.575   0.566 -0.6848 -3.9302  2.7821
 1836TIP3    H226924   0.599   5.651   0.688 -0.0938  1.1094  0.1503
 1837TIP3   OH226925   3.004   2.189  12.768 -0.1206 -0.2854  0.3475
 1837TIP3    H126926   3.024   2.098  12.789  0.0925 -0.0743  1.0883
 1837TIP3    H226927   3.067   2.212  12.700 -0.1140 -0.6683  0.2245
 1838TIP3   OH226928   0.014   4.924   4.301  0.2628  0.0869  0.1769
 1838TIP3    H126929   0.029   5.018   4.313 -0.0026  0.0060  1.2064
 1838TIP3    H226930  -0.036   4.918   4.219 -1.9372  1.0738  1.3782
 1839TIP3   OH226931   0.897   2.397   4.811  0.4676 -0.7800  0.4011
 1839TIP3    H126932   0.974   2.440   4.773  0.0889 -0.8405 -0.4454
 1839TIP3    H226933   0.893   2.312   4.769  0.2864 -1.0194  0.8943
 1840TIP3   OH226934   3.114   0.346  15.676  0.1338 -0.2429  0.5695
 1840TIP3    H126935   3.148   0.386  15.597 -0.2084 -1.0455 -0.0021
 1840TIP3    H226936   3.179   0.366  15.744  0.0212  1.1536  0.2938
 1841TIP3   OH226937   2.263   5.121  12.386 -0.2661 -0.0410 -0.2824
 1841TIP3    H126938   2.200   5.147  12.453 -0.8310 -1.0689 -0.3967
 1841TIP3    H226939   2.289   5.203  12.344 -2.9323  0.2807 -1.4970
 1842TIP3   OH226940   1.995   2.357   1.928 -0.0221  0.0603  0.1639
 1842TIP3    H126941   2.089   2.338   1.933  0.2795  0.7543 -2.0707
 1842TIP3    H226942   1.983   2.433   1.985  0.4152 -1.0207  1.7844
 1843TIP3   OH226943   3.294   0.243  13.449 -0.4736 -0.0325  0.2971
 1843TIP3    H126944   3.260   0.308  13.387  0.2270 -0.8911 -1.0492
 1843TIP3    H226945   3.238   0.166  13.436 -1.0130  0.1336  1.5451
 1844TIP3   OH226946   2.925   4.222   5.846 -0.1212 -0.0679  0.1396
 1844TIP3    H126947   2.905   4.269   5.927  2.1429  1.4270 -0.0726
 1844TIP3    H226948   3.002   4.168   5.867 -1.1104 -1.7533 -0.3407
 1845TIP3   OH226949   0.058   3.106   4.899  0.2530  0.4241  0.2448
 1845TIP3    H126950   0.127   3.090   4.834  0.8586 -1.1625  1.2290
 1845TIP3    H226951   0.005   3.176   4.860  1.6466  0.7743 -1.1260
 1846TIP3   OH226952   3.130   3.030  13.845  0.2935 -0.2803 -0.7039
 1846TIP3    H126953   3.072   3.104  13.826  0.4126  0.7573  2.3370
 1846TIP3    H226954   3.072   2.955  13.857 -0.4290  0.5237  1.2716
 1847TIP3   OH226955   4.077   5.275  10.286  1.2179 -0.1353 -0.2825
 1847TIP3    H126956   4.034   5.356  10.259  0.3765 -0.7814 -0.9520
 1847TIP3    H226957   4.022   5.241  10.356  1.0368 -0.6022 -0.6482
 1848TIP3   OH226958   6.074   2.940  15.665 -0.4280 -0.0961  0.2489
 1848TIP3    H126959   6.154   2.899  15.697  0.0775  1.9125  1.7969
 1848TIP3    H226960   6.083   2.940  15.570  2.0418  1.1597  0.3978
 1849TIP3   OH226961   1.135   5.520   3.047  0.1717 -0.0164  0.3782
 1849TIP3    H126962   1.125   5.495   3.139  1.1111 -0.2263  0.4341
 1849TIP3    H226963   1.153   5.438   3.002  1.4132  0.2924  0.2782
 1850TIP3   OH226964   5.329   4.982   2.354  0.3313  0.4049 -0.4109
 1850TIP3    H126965   5.363   5.060   2.310  3.5600 -0.0559  1.0012
 1850TIP3    H226966   5.401   4.919   2.350 -1.4264 -1.7784  0.3246
 1851TIP3   OH226967   2.368   6.341   0.864 -0.0314 -0.4128  0.6246
 1851TIP3    H126968   2.355   6.435   0.859  2.0688 -0.1506 -1.5027
 1851TIP3    H226969   2.410   6.326   0.948  1.5442  0.8709  0.1033
 1852TIP3   OH226970   6.311   4.829  14.828 -0.2923  0.0371 -0.0292
 1852TIP3    H126971   6.379   4.817  14.895 -1.3716  0.7497  1.2309
 1852TIP3    H226972   6.241   4.770  14.855 -0.9209  0.6645 -0.2764
 1853TIP3   OH226973   5.219   3.706   2.125 -0.3473 -0.0103 -0.0191
 1853TIP3    H126974   5.248   3.707   2.216 -0.4454  1.7927  0.0204
 1853TIP3    H226975   5.257   3.784   2.086 -0.4879 -0.6398 -1.4828
 1854TIP3   OH226976   3.078   4.298   2.453 -0.3851 -0.2225 -0.4029
 1854TIP3    H126977   2.989   4.275   2.429 -0.1393  0.0314 -1.5913
 1854TIP3    H226978   3.115   4.218   2.489 -0.8225 -0.5570 -0.6982
 1855TIP3   OH226979   6.174   0.606   0.285 -0.0555  0.0637 -0.4859
 1855TIP3    H126980   6.202   0.581   0.197  1.5730  0.8913 -0.2430
 1855TIP3    H226981   6.082   0.630   0.275  0.4180  1.3871 -2.2604
 1856TIP3   OH226982   2.727   1.296   5.970 -0.4297  0.0887  0.1998
 1856TIP3    H126983   2.702   1.269   5.882  2.5548  2.3722 -1.5570
 1856TIP3    H226984   2.669   1.369   5.991  0.9423  1.7770 -1.4722
 1857TIP3   OH226985   2.095   0.669   0.409 -0.1622 -0.2247 -0.1803
 1857TIP3    H126986   2.146   0.749   0.425 -0.1484 -0.5413  1.5434
 1857TIP3    H226987   2.159   0.605   0.378 -0.2510  0.5250 -2.0452
 1858TIP3   OH226988   0.826   1.958  11.774 -1.1741 -0.1695  0.1026
 1858TIP3    H126989   0.917   1.930  11.767 -1.1453  0.0507 -0.4202
 1858TIP3    H226990   0.776   1.876  11.778 -0.8563 -0.3127  1.9427
 1859TIP3   OH226991   2.142   1.710   1.529 -0.0818  0.3539  0.3417
 1859TIP3    H126992   2.230   1.673   1.540  0.1787 -0.4034 -3.0734
 1859TIP3    H226993   2.089   1.636   1.496 -1.4800  1.2879  0.3973
 1860TIP3   OH226994   4.110   3.563  15.295 -0.1652  0.3081 -0.2990
 1860TIP3    H126995   4.041   3.570  15.360  0.1667 -0.9651  0.2189
 1860TIP3    H226996   4.068   3.521  15.219  0.2296 -1.4425  0.3931
 1861TIP3   OH226997   2.661   3.485   6.017  0.0582 -0.1989 -0.0455
 1861TIP3    H126998   2.658   3.395   6.049 -3.3758 -0.1745 -0.0142
 1861TIP3    H226999   2.688   3.536   6.093  3.3666 -1.1735 -0.3781
 1862TIP3   OH227000   5.148   3.995   3.147 -0.3747 -0.3767 -0.2482
 1862TIP3    H127001   5.078   3.929   3.155 -0.5735 -0.0697  0.7381
 1862TIP3    H227002   5.218   3.962   3.203 -1.2451  1.1755  1.9020
 1863TIP3   OH227003   5.505   4.957  16.020  0.3094 -0.7618  0.2446
 1863TIP3    H127004   5.483   5.038  16.066 -0.2863 -0.8496  0.1162
 1863TIP3    H227005   5.592   4.974  15.982  0.0202 -0.0449 -0.1087
 1864TIP3   OH227006   3.476   3.881   0.797  0.5509  0.0595 -0.2800
 1864TIP3    H127007   3.498   3.858   0.887 -0.0794  0.5188 -0.0028
 1864TIP3    H227008   3.561   3.891   0.754  0.8634  0.1149  0.3383
 1865TIP3   OH227009   1.166   2.467  14.709 -0.0201  0.4776  0.3317
 1865TIP3    H127010   1.261   2.465  14.698 -0.1634  1.4678 -1.5630
 1865TIP3    H227011   1.151   2.543  14.766  0.4599 -1.8061  3.7718
 1866TIP3   OH227012   6.256   0.882  15.882  0.5184  0.0977 -0.0143
 1866TIP3    H127013   6.165   0.903  15.860  1.4100  1.1184 -3.3881
 1866TIP3    H227014   6.254   0.790  15.907 -1.4729  0.1693  0.2446
 1867TIP3   OH227015   3.720   3.211  13.372  0.0980  0.3045  0.5087
 1867TIP3    H127016   3.761   3.152  13.435  0.2959 -2.1334 -1.7068
 1867TIP3    H227017   3.786   3.223  13.304 -0.8382  1.0184 -0.3097
 1868TIP3   OH227018   3.754   5.898  12.692  0.0119 -0.0868 -0.5234
 1868TIP3    H127019   3.739   5.841  12.768 -0.0599 -1.2542 -1.3881
 1868TIP3    H227020   3.845   5.880  12.667  0.0570  0.3510 -0.6764
 1869TIP3   OH227021   1.330   4.164  17.248  0.5132 -0.0931  0.3306
 1869TIP3    H127022   1.268   4.097  17.218  0.9409 -1.4977  2.3793
 1869TIP3    H227023   1.311   4.240  17.193  0.0868 -1.8947 -2.1862
 1870TIP3   OH227024   5.850   4.396  12.252 -0.1533 -0.2840 -0.8522
 1870TIP3    H127025   5.785   4.347  12.301  1.7129 -1.1185  0.9559
 1870TIP3    H227026   5.808   4.415  12.168 -2.5951 -0.9506  0.1335
 1871TIP3   OH227027   5.678   5.888   4.522  0.3716 -0.2342 -0.6039
 1871TIP3    H127028   5.669   5.807   4.472  0.2695  0.0726 -1.0932
 1871TIP3    H227029   5.660   5.863   4.612  1.7066 -1.0391 -0.5342
 1872TIP3   OH227030   0.467   2.155   3.974  0.3900  0.0922 -0.2610
 1872TIP3    H127031   0.546   2.102   3.962  1.2817  1.3395 -0.0667
 1872TIP3    H227032   0.494   2.225   4.032 -0.7776  0.7307 -0.4711
 1873TIP3   OH227033   3.731   1.047  17.139 -0.2475  0.1988 -0.5181
 1873TIP3    H127034   3.790   1.114  17.103  0.8115  0.4578  1.5328
 1873TIP3    H227035   3.675   1.095  17.200 -0.4794 -0.5445 -0.1406
 1874TIP3   OH227036   5.082   0.127   4.256 -0.2233 -0.2665 -0.8524
 1874TIP3    H127037   5.027   0.087   4.323 -1.4970  1.0625 -1.0634
 1874TIP3    H227038   5.148   0.177   4.304 -3.3412  3.8233 -0.3307
 1875TIP3   OH227039   4.728   4.575  13.190  0.6791  0.7787 -0.1662
 1875TIP3    H127040   4.752   4.601  13.101  1.0315  0.9141 -0.0358
 1875TIP3    H227041   4.722   4.658  13.238  0.6780  0.6933 -0.0179
 1876TIP3   OH227042   0.275   6.533   0.370  0.1640 -0.0653  0.5869
 1876TIP3    H127043   0.326   6.468   0.418  0.3798  1.6900  2.9419
 1876TIP3    H227044   0.301   6.522   0.279  1.5488 -2.0062  1.1502
 1877TIP3   OH227045   4.651   6.712   3.257 -0.1916 -0.4537  0.1252
 1877TIP3    H127046   4.713   6.742   3.191  1.2563 -0.8437  1.2574
 1877TIP3    H227047   4.629   6.791   3.307 -1.6882 -0.0569 -1.0833
 1878TIP3   OH227048   1.841   1.332  14.184 -0.4806 -0.3303  0.3043
 1878TIP3    H127049   1.930   1.298  14.191 -0.6024 -0.4666  1.3600
 1878TIP3    H227050   1.821   1.329  14.090  1.2638  1.3532 -0.1899
 1879TIP3   OH227051   3.707   5.746  12.905  0.2582 -0.4755  0.4864
 1879TIP3    H127052   3.747   5.659  12.899 -1.9293 -1.5081 -0.1281
 1879TIP3    H227053   3.620   5.730  12.939  0.5784  1.7944  2.5917
 1880TIP3   OH227054   6.104   1.435  12.433  0.7982  0.1058 -0.1436
 1880TIP3    H127055   6.153   1.514  12.454 -0.4841  0.9758 -0.3375
 1880TIP3    H227056   6.048   1.420  12.510  3.1989 -2.4541  1.3180
 1881TIP3   OH227057   0.547   4.683  10.772 -0.1258  0.3862 -0.5710
 1881TIP3    H127058   0.555   4.772  10.807  0.9593  0.7722 -1.7246
 1881TIP3    H227059   0.594   4.686  10.689 -0.1864 -1.2447 -0.6898
 1882TIP3   OH227060   0.694   0.602   5.018 -0.6672 -0.0187  0.1462
 1882TIP3    H127061   0.626   0.622   5.083 -2.0811 -0.2654 -1.2003
 1882TIP3    H227062   0.646   0.566   4.944  1.1691 -2.2525 -0.0529
 1883TIP3   OH227063   5.555   2.532  16.662  0.3461 -0.3633 -0.1201
 1883TIP3    H127064   5.494   2.508  16.593  1.2241 -1.7240 -0.4760
 1883TIP3    H227065   5.636   2.555  16.615  0.7489 -0.6615  0.4178
 1884TIP3   OH227066   0.360   2.869   2.722  0.4731  0.2540 -0.4473
 1884TIP3    H127067   0.390   2.943   2.669 -3.2012 -0.0065 -3.2868
 1884TIP3    H227068   0.293   2.826   2.669 -0.8831 -2.3960  2.9691
 1885TIP3   OH227069   0.615   0.382   5.313  0.1748  0.2085 -0.0329
 1885TIP3    H127070   0.597   0.343   5.399 -2.1733 -1.7219 -1.2528
 1885TIP3    H227071   0.535   0.431   5.292  0.4984  0.2188 -1.3293
 1886TIP3   OH227072   1.375   0.010  11.733  0.0234 -0.0948  0.2184
 1886TIP3    H127073   1.412  -0.063  11.784 -1.2623 -0.7045  0.3172
 1886TIP3    H227074   1.404  -0.007  11.644 -2.0008 -2.0113 -0.1859
 1887TIP3   OH227075   6.321   1.089  11.824 -0.1687 -0.3376 -0.2799
 1887TIP3    H127076   6.416   1.094  11.834 -0.2926  0.1286  0.8775
 1887TIP3    H227077   6.305   1.099  11.730  0.8671  0.5593 -0.3717
 1888TIP3   OH227078   4.137   0.456  11.487 -0.1616  0.3596 -0.1868
 1888TIP3    H127079   4.168   0.394  11.421  0.5455 -0.8797  1.2417
 1888TIP3    H227080   4.214   0.477  11.539 -0.3159  2.7344 -0.7963
 1889TIP3   OH227081   0.125   0.922   4.451  0.3119 -0.3139 -0.2066
 1889TIP3    H127082   0.083   1.007   4.457  0.9699  0.1167 -1.4075
 1889TIP3    H227083   0.061   0.867   4.406 -0.0668 -0.4346  0.4666
 1890TIP3   OH227084   2.470   0.876   4.988 -0.2515  0.1145 -0.0331
 1890TIP3    H127085   2.496   0.789   5.018 -0.6029 -0.0797 -0.2905
 1890TIP3    H227086   2.430   0.916   5.066  0.3055  0.2118  0.2079
 1891TIP3   OH227087   0.108   0.565   2.747  0.1168  0.4263 -0.2340
 1891TIP3    H127088   0.094   0.474   2.722  1.0825  0.6502 -1.7610
 1891TIP3    H227089   0.037   0.613   2.706 -0.3585  0.3782  0.5211
 1892TIP3   OH227090   2.374   5.336   2.827 -0.5205  0.4083  0.1798
 1892TIP3    H127091   2.330   5.410   2.787 -2.3081 -0.8659 -0.3617
 1892TIP3    H227092   2.445   5.314   2.767 -0.7901  0.8821 -0.3185
 1893TIP3   OH227093   3.096   1.639  14.880  0.6334  0.1788 -0.3334
 1893TIP3    H127094   3.093   1.555  14.927 -0.3026  0.2028 -0.3337
 1893TIP3    H227095   3.187   1.647  14.851  1.4218  0.4401  1.9740
 1894TIP3   OH227096   5.341   1.130   3.467  0.1268 -0.4101 -0.8120
 1894TIP3    H127097   5.280   1.178   3.412  0.3899 -0.4476 -1.1375
 1894TIP3    H227098   5.408   1.194   3.490 -0.8424  0.0769  0.8456
 1895TIP3   OH227099   3.096   4.582  14.121 -0.0135  0.1304 -0.2482
 1895TIP3    H127100   3.118   4.505  14.069 -1.2043  1.2525 -2.5930
 1895TIP3    H227101   3.129   4.656  14.070  0.4329  1.2521  1.5507
 1896TIP3   OH227102   1.301   3.446  16.350 -0.0661  0.1042 -0.5763
 1896TIP3    H127103   1.322   3.463  16.442  1.1498 -1.0502 -0.6149
 1896TIP3    H227104   1.212   3.480  16.339 -0.0562  0.6669  0.9031
 1897TIP3   OH227105   5.685   4.995   4.149  0.3218 -0.2799  0.2714
 1897TIP3    H127106   5.596   5.030   4.160 -0.0797 -1.1700 -0.0506
 1897TIP3    H227107   5.732   5.024   4.227 -0.7852 -1.3903  1.4019
 1898TIP3   OH227108   5.095   2.907  11.607  0.0431  0.0690  0.0123
 1898TIP3    H127109   5.007   2.913  11.645  0.3552 -0.9868  0.9310
 1898TIP3    H227110   5.114   2.997  11.579 -0.7715  0.5953  1.0559
 1899TIP3   OH227111   3.997   0.994   2.364 -0.2785  0.3568 -0.6308
 1899TIP3    H127112   3.981   0.977   2.457 -2.2599 -1.1863 -1.1957
 1899TIP3    H227113   4.038   0.914   2.332 -0.6433  0.4470 -1.3231
 1900TIP3   OH227114   0.593   4.934  16.993  0.3579  0.1905  0.2919
 1900TIP3    H127115   0.559   4.848  16.967 -1.9399  1.2135 -0.3882
 1900TIP3    H227116   0.531   4.996  16.955  0.5373  2.0779  2.8297
 1901TIP3   OH227117   3.751   1.073   6.378  0.2109 -0.3895 -0.2955
 1901TIP3    H127118   3.799   1.072   6.295  1.1424 -0.5237  0.2417
 1901TIP3    H227119   3.803   1.019   6.437  0.4097  1.0272  0.8674
 1902TIP3   OH227120   3.680   2.501   2.309 -0.0501 -0.0695  0.1816
 1902TIP3    H127121   3.726   2.546   2.239 -0.4045  2.9472  1.7214
 1902TIP3    H227122   3.598   2.472   2.270 -0.6445  2.3507 -0.4946
 1903TIP3   OH227123   4.433   3.575   2.259 -0.0765 -0.0505 -0.5587
 1903TIP3    H127124   4.468   3.532   2.337 -1.1477 -1.0943 -0.6084
 1903TIP3    H227125   4.509   3.608   2.213  0.5850  0.5442  0.8979
 1904TIP3   OH227126   0.106   3.158   4.230  0.3708 -0.3817  0.1520
 1904TIP3    H127127   0.049   3.231   4.253 -0.1465 -1.0835  1.1929
 1904TIP3    H227128   0.081   3.088   4.291  2.7164 -0.5349  1.0325
 1905TIP3   OH227129   0.545   0.315   0.781 -0.6271  0.3971 -0.2904
 1905TIP3    H127130   0.465   0.262   0.778  0.2223 -1.2608  2.5979
 1905TIP3    H227131   0.515   0.402   0.806 -1.5029 -0.5067  2.0169
 1906TIP3   OH227132   5.819   4.335   0.457 -0.1175 -0.0406 -0.0984
 1906TIP3    H127133   5.865   4.364   0.536 -0.5172  0.4927 -0.0514
 1906TIP3    H227134   5.732   4.374   0.465  0.4170  1.6236 -1.7082
 1907TIP3   OH227135   1.771   2.258  13.981 -0.2210  0.2565  0.3830
 1907TIP3    H127136   1.855   2.283  13.941  1.4544 -0.7991  2.9190
 1907TIP3    H227137   1.717   2.336  13.974  0.3711  0.5172 -2.6585
 1908TIP3   OH227138   5.164   5.516  16.808 -0.6779 -0.4264  0.5194
 1908TIP3    H127139   5.083   5.550  16.771 -1.4474 -0.8199  1.7711
 1908TIP3    H227140   5.201   5.589  16.857  0.5412  0.2127 -1.2697
 1909TIP3   OH227141   6.200   2.295  11.875  0.2973 -0.1557 -0.7317
 1909TIP3    H127142   6.257   2.305  11.951 -2.0261 -0.8941  1.2481
 1909TIP3    H227143   6.152   2.378  11.870 -2.3338 -1.3983  1.1853
 1910TIP3   OH227144   5.304   4.520   2.170 -0.3847 -0.4930  0.1584
 1910TIP3    H127145   5.216   4.499   2.139 -0.9739 -0.2645  1.5766
 1910TIP3    H227146   5.326   4.602   2.125 -1.1292 -0.2543  0.2126
 1911TIP3   OH227147   2.333   2.623   6.044 -0.5169  0.0406  0.1603
 1911TIP3    H127148   2.362   2.626   6.135 -0.9852 -1.1597  0.3592
 1911TIP3    H227149   2.239   2.607   6.049 -0.3370 -1.3652 -0.5447
 1912TIP3   OH227150   2.537   3.521   4.351  0.5209 -0.2135 -0.8851
 1912TIP3    H127151   2.483   3.599   4.337  1.3050  0.1937 -1.7347
 1912TIP3    H227152   2.491   3.472   4.419 -0.0820  0.8947 -0.4723
 1913TIP3   OH227153   0.253   4.638  14.393  0.4156 -0.1730 -0.0320
 1913TIP3    H127154   0.302   4.610  14.316  0.7875 -1.9048  0.7738
 1913TIP3    H227155   0.164   4.653  14.361  0.7445 -0.0885 -0.9276
 1914TIP3   OH227156   4.997   4.138   0.718  0.3131 -0.1906 -0.7474
 1914TIP3    H127157   5.026   4.196   0.788  0.5514  0.5960 -1.4808
 1914TIP3    H227158   5.067   4.141   0.653  0.3328 -1.3243 -0.7933
 1915TIP3   OH227159   5.449   6.565   5.427  0.5528  0.1344  0.2231
 1915TIP3    H127160   5.475   6.557   5.335  1.0394 -0.7100  0.4195
 1915TIP3    H227161   5.368   6.516   5.433 -1.3392  2.9319 -0.4314
 1916TIP3   OH227162   3.181   1.541  13.935  0.1834  0.5930 -0.1199
 1916TIP3    H127163   3.192   1.602  14.008 -0.9586  0.5572  0.0927
 1916TIP3    H227164   3.224   1.460  13.965 -0.4026  0.5317  0.5776
 1917TIP3   OH227165   0.601   1.166  17.341 -0.1212 -0.5048  0.1263
 1917TIP3    H127166   0.690   1.201  17.332  0.3442 -0.9805  2.3212
 1917TIP3    H227167   0.546   1.244  17.349 -0.0117 -0.1917 -1.7078
 1918TIP3   OH227168   0.535   6.314   2.442 -0.3824  0.0264  0.8343
 1918TIP3    H127169   0.524   6.221   2.463 -2.1675 -0.4670 -1.7536
 1918TIP3    H227170   0.495   6.360   2.516 -0.0435 -1.2493  1.8540
 1919TIP3   OH227171   4.793   4.480   1.691 -0.0500  0.4380 -0.4981
 1919TIP3    H127172   4.816   4.404   1.743 -0.3621  0.5883 -0.1383
 1919TIP3    H227173   4.701   4.495   1.710  0.2554  1.5165  0.2335
 1920TIP3   OH227174   1.532   2.139  13.889  0.1608 -0.1166 -0.2563
 1920TIP3    H127175   1.619   2.165  13.918 -0.3328  1.7048 -0.3064
 1920TIP3    H227176   1.493   2.095  13.964  0.4282  0.7841  0.4169
 1921TIP3   OH227177   4.772   4.208   5.341 -0.2998  0.4049 -0.1263
 1921TIP3    H127178   4.829   4.178   5.270 -2.3512 -0.2633 -1.5913
 1921TIP3    H227179   4.720   4.278   5.302  1.2489  2.8851  1.9481
 1922TIP3   OH227180   3.322   4.069  11.792 -0.0528  0.3535 -0.2742
 1922TIP3    H127181   3.232   4.047  11.767 -0.7928  1.9001  0.8286
 1922TIP3    H227182   3.375   4.041  11.718 -1.2400 -2.0022 -0.3068
 1923TIP3   OH227183   4.605   4.699   2.058  0.1560 -0.6166 -0.3705
 1923TIP3    H127184   4.660   4.655   2.122 -0.2403 -0.6671 -0.0589
 1923TIP3    H227185   4.546   4.631   2.025  0.2604 -0.5579 -0.6791
 1924TIP3   OH227186   0.246   3.626  14.322  0.2012 -0.0478 -0.0824
 1924TIP3    H127187   0.181   3.619  14.392 -0.7400 -1.1949 -1.0148
 1924TIP3    H227188   0.325   3.658  14.365  0.1316 -2.1855  1.8369
 1925TIP3   OH227189   0.474   1.348  13.530 -0.4452 -0.4010 -0.3599
 1925TIP3    H127190   0.480   1.284  13.460 -0.0274  1.3603 -2.0099
 1925TIP3    H227191   0.561   1.388  13.534 -1.5997  2.4896 -1.8457
 1926TIP3   OH227192   4.364   3.713  12.315 -0.0073  0.0577  0.4283
 1926TIP3    H127193   4.325   3.773  12.379  1.3540  0.1556  1.2278
 1926TIP3    H227194   4.309   3.721  12.238 -1.0496  0.8041  1.2087
 1927TIP3   OH227195   1.875   3.434   6.757 -0.3238 -0.1155  0.3110
 1927TIP3    H127196   1.931   3.491   6.809  0.4170  0.0531 -0.6427
 1927TIP3    H227197   1.914   3.436   6.669 -0.9462 -1.1925 -0.0051
 1928TIP3   OH227198   6.404   0.453  13.666 -0.1758  0.7825  0.0225
 1928TIP3    H127199   6.333   0.517  13.659 -0.6244  0.2773 -0.1469
 1928TIP3    H227200   6.362   0.374  13.698  0.4736  0.7300  0.7734
 1929TIP3   OH227201   1.149   3.569  15.189  0.2355  0.2285 -0.4356
 1929TIP3    H127202   1.137   3.621  15.109 -1.1745 -0.4767 -0.7071
 1929TIP3    H227203   1.118   3.482  15.165 -0.9562  0.1965  1.1252
 1930TIP3   OH227204   3.824   0.580  11.814  0.1427  0.5129 -0.2259
 1930TIP3    H127205   3.796   0.664  11.777 -1.5291  1.6345  3.1017
 1930TIP3    H227206   3.873   0.605  11.893 -0.5705 -1.6330  0.9644
 1931TIP3   OH227207   4.215   5.156  15.874  0.2118  0.0797 -0.2545
 1931TIP3    H127208   4.225   5.163  15.969  0.1280  1.3056 -0.3203
 1931TIP3    H227209   4.262   5.232  15.839  0.8356 -0.7252 -1.2430
 1932TIP3   OH227210   1.585   6.259   4.357  0.0143  0.2031  0.5061
 1932TIP3    H127211   1.567   6.174   4.397  0.1363  0.0906  0.3246
 1932TIP3    H227212   1.502   6.306   4.361 -0.5327 -0.5824 -0.9840
 1933TIP3   OH227213   5.341   3.068   5.557 -0.1709  0.1350  0.4255
 1933TIP3    H127214   5.325   3.006   5.486 -0.9950  1.4304 -0.5706
 1933TIP3    H227215   5.257   3.074   5.602 -0.3086  1.0351  0.0711
 1934TIP3   OH227216   3.024   5.318  11.153 -0.2924 -0.2997  0.1477
 1934TIP3    H127217   3.031   5.287  11.063 -1.0508 -0.2038  0.0525
 1934TIP3    H227218   2.931   5.310  11.175 -0.8114  3.1769 -0.3338
 1935TIP3   OH227219   0.183   6.533   4.520 -0.0934 -0.5443  0.1750
 1935TIP3    H127220   0.148   6.595   4.585 -0.1977 -0.8127  0.3760
 1935TIP3    H227221   0.135   6.452   4.536 -0.4441 -0.4906 -0.5334
 1936TIP3   OH227222   2.487   3.024   0.064  0.4654  0.8113 -0.2238
 1936TIP3    H127223   2.418   3.083   0.035  1.4975  1.0683 -2.3784
 1936TIP3    H227224   2.566   3.077   0.064  1.3208 -0.3776 -1.6413
 1937TIP3   OH227225   4.557   1.548   2.744  0.3532  0.8549  0.5672
 1937TIP3    H127226   4.624   1.610   2.774  0.5765  1.2884 -0.7943
 1937TIP3    H227227   4.583   1.524   2.656  0.3811 -1.3868  1.1262
 1938TIP3   OH227228   0.201   0.133  15.007 -0.2493 -0.3802 -0.2088
 1938TIP3    H127229   0.154   0.215  15.024 -0.3964 -0.8510  1.8610
 1938TIP3    H227230   0.152   0.091  14.936  0.2559  1.6114 -1.8516
 1939TIP3   OH227231   3.001   2.858   4.940  0.3046  0.4466  0.4469
 1939TIP3    H127232   2.983   2.803   4.864 -0.2159  0.6993  0.3788
 1939TIP3    H227233   2.951   2.939   4.923  0.6717  0.7455  0.7689
 1940TIP3   OH227234   1.333   0.173  15.514  0.1871 -0.1503  0.5416
 1940TIP3    H127235   1.291   0.087  15.505 -1.1169  0.5245 -0.2413
 1940TIP3    H227236   1.378   0.170  15.598 -0.6423 -1.2763  0.9600
 1941TIP3   OH227237   0.664   4.274   4.284  0.0308  0.4191  0.1764
 1941TIP3    H127238   0.719   4.305   4.211 -0.4036 -1.2050 -0.8966
 1941TIP3    H227239   0.604   4.212   4.244  0.6169 -1.5390  2.1138
 1942TIP3   OH227240   2.741   1.194   2.306 -0.2872  0.4531 -0.5218
 1942TIP3    H127241   2.828   1.211   2.343 -0.0007  1.5747 -1.6788
 1942TIP3    H227242   2.707   1.122   2.360  1.4158 -0.1365 -0.1627
 1943TIP3   OH227243   0.330   2.735   1.118 -0.3189 -0.3388  0.2832
 1943TIP3    H127244   0.248   2.746   1.070 -0.3950 -0.7519  0.3132
 1943TIP3    H227245   0.387   2.690   1.056 -0.9123 -2.2728  1.0740
 1944TIP3   OH227246   4.134   6.652  11.977 -0.1369 -0.4021  0.7874
 1944TIP3    H127247   4.096   6.684  12.059 -0.9412 -1.0852  0.6900
 1944TIP3    H227248   4.071   6.677  11.910  0.7170  0.5253  0.2981
 1945TIP3   OH227249   6.612   0.333   0.500  0.6098  0.2017  0.3194
 1945TIP3    H127250   6.569   0.302   0.579  1.8968 -1.3182  0.4946
 1945TIP3    H227251   6.655   0.414   0.526 -1.4445  1.3547  0.3215
 1946TIP3   OH227252   6.323   1.262   3.397 -0.0464 -0.4528  0.6843
 1946TIP3    H127253   6.359   1.317   3.466 -2.0782  0.3477  1.1541
 1946TIP3    H227254   6.290   1.323   3.332 -0.5057 -1.1645  0.2353
 1947TIP3   OH227255   0.132   0.931  16.800 -0.6287 -0.1023  0.1287
 1947TIP3    H127256   0.206   0.875  16.821  0.1233  1.1829  1.0204
 1947TIP3    H227257   0.119   0.985  16.877 -0.2177  2.1402 -1.2730
 1948TIP3   OH227258   3.166   4.056  15.139 -0.1671  0.1652  0.1157
 1948TIP3    H127259   3.095   4.062  15.203 -1.2065  0.3916 -1.0263
 1948TIP3    H227260   3.211   4.141  15.146  0.1945 -0.0864  1.0425
 1949TIP3   OH227261   0.938   2.872  11.946 -0.0531 -0.2165  0.1717
 1949TIP3    H127262   0.935   2.926  11.867  0.6362 -0.7083 -0.2082
 1949TIP3    H227263   0.861   2.815  11.939  0.3992 -0.7621 -0.5278
 1950TIP3   OH227264   4.101   1.638   4.329  0.1178 -0.5233 -0.0774
 1950TIP3    H127265   4.008   1.655   4.347 -0.0823 -1.2117 -0.4079
 1950TIP3    H227266   4.117   1.550   4.364  0.5901 -0.4915 -0.2045
 1951TIP3   OH227267   5.102   3.612  11.652 -0.3899 -0.5992  0.0361
 1951TIP3    H127268   5.173   3.553  11.678 -1.1148 -1.1985  0.7270
 1951TIP3    H227269   5.025   3.576  11.696 -1.2186 -0.2467 -1.0810
 1952TIP3   OH227270   0.119   6.297   4.660 -0.2090  0.3618 -0.1333
 1952TIP3    H127271   0.069   6.216   4.666 -0.9563  0.7660 -0.7251
 1952TIP3    H227272   0.144   6.317   4.750  2.0286 -1.7505 -0.1517
 1953TIP3   OH227273   4.263   6.014  12.364 -0.4006 -0.0293  0.2914
 1953TIP3    H127274   4.227   5.925  12.367  0.7424 -0.4947  0.7149
 1953TIP3    H227275   4.330   6.010  12.296 -1.4551  0.9668 -0.8669
 1954TIP3   OH227276   1.614   5.923   0.469 -0.4102 -0.5383 -0.0039
 1954TIP3    H127277   1.548   5.865   0.431 -0.9403  0.2733 -0.3615
 1954TIP3    H227278   1.663   5.867   0.529 -1.7009 -1.0771  0.6080
 1955TIP3   OH227279   1.470   4.225   5.905 -0.2993  0.2846  0.2316
 1955TIP3    H127280   1.431   4.139   5.920  3.4398 -1.3007  2.0887
 1955TIP3    H227281   1.521   4.214   5.825 -0.1452  0.9552  0.2317
 1956TIP3   OH227282   3.321   2.475  13.983  0.0598  0.3521  0.2340
 1956TIP3    H127283   3.355   2.485  14.072  0.4978 -0.6327  0.1889
 1956TIP3    H227284   3.386   2.516  13.927  0.5119 -0.3197  0.2580
 1957TIP3   OH227285   5.559   6.073   3.185 -0.5405 -0.1082 -0.0252
 1957TIP3    H127286   5.579   6.150   3.132 -0.0854  0.6794  1.2317
 1957TIP3    H227287   5.645   6.034   3.204 -0.6345  0.0443  0.7306
 1958TIP3   OH227288   6.206   2.277  12.732 -0.1522  0.1940 -0.0270
 1958TIP3    H127289   6.264   2.211  12.695  0.6739  0.5764  0.5764
 1958TIP3    H227290   6.182   2.333  12.658  1.2628  0.7857 -0.0597
 1959TIP3   OH227291   6.293   5.443   5.352 -0.3432  0.4471 -0.0594
 1959TIP3    H127292   6.245   5.453   5.434 -0.7134  0.0558 -0.2229
 1959TIP3    H227293   6.369   5.500   5.361 -0.0547 -0.0602  0.8048
 1960TIP3   OH227294   5.505   4.651  11.156  0.3037 -0.7338 -0.4781
 1960TIP3    H127295   5.427   4.656  11.211  0.8697  1.5517  0.2003
 1960TIP3    H227296   5.575   4.623  11.215  0.1848 -2.0810 -0.9335
 1961TIP3   OH227297   5.657   1.038  13.774 -0.4695 -0.0464 -0.0410
 1961TIP3    H127298   5.694   0.950  13.769 -1.3901 -0.4305 -0.4176
 1961TIP3    H227299   5.569   1.029  13.737 -0.3414  1.1777 -0.6986
 1962TIP3   OH227300   1.290   5.531   2.456  0.4674  0.4896 -0.3437
 1962TIP3    H127301   1.247   5.613   2.429  1.4616  1.2384  0.2706
 1962TIP3    H227302   1.222   5.484   2.505 -0.1209  0.9509 -0.6966
 1963TIP3   OH227303   5.682   6.494   5.593 -0.0156 -0.3250 -0.0481
 1963TIP3    H127304   5.629   6.424   5.631 -0.4235 -0.0798 -0.1625
 1963TIP3    H227305   5.620   6.547   5.543  0.3926 -0.2192 -0.4483
 1964TIP3   OH227306   4.986   5.922  10.828 -0.3683 -0.1591 -0.0847
 1964TIP3    H127307   4.896   5.923  10.796 -0.2249  1.6281 -0.5012
 1964TIP3    H227308   5.035   5.976  10.766  0.4710  1.0716  1.5682
 1965TIP3   OH227309   4.223   3.410  11.322  0.0881  0.2602 -0.1189
 1965TIP3    H127310   4.156   3.350  11.291  0.9170 -2.4416  2.8598
 1965TIP3    H227311   4.306   3.370  11.296  0.6529  0.2771  1.5676
 1966TIP3   OH227312   5.174   3.241   4.206  0.2119 -0.5107  0.4617
 1966TIP3    H127313   5.192   3.258   4.113 -1.0599 -1.4739  0.0053
 1966TIP3    H227314   5.235   3.171   4.230  0.2239 -0.5846  0.2182
 1967TIP3   OH227315   4.580   2.848   4.909 -0.0113 -0.2857 -0.0169
 1967TIP3    H127316   4.619   2.916   4.965  0.9115 -0.6153 -0.2421
 1967TIP3    H227317   4.571   2.772   4.966  0.5955 -0.5107 -0.2149
 1968TIP3   OH227318   2.563   5.509  11.305 -0.0262  0.4973  0.1155
 1968TIP3    H127319   2.507   5.516  11.382 -0.3427 -1.6269  0.1348
 1968TIP3    H227320   2.542   5.423  11.267  1.8386  0.4538 -0.9617
 1969TIP3   OH227321   5.807   3.881  13.312  0.4273 -0.9066 -0.3597
 1969TIP3    H127322   5.796   3.839  13.227 -1.3990 -0.6158 -0.3257
 1969TIP3    H227323   5.741   3.840  13.369 -1.2740  1.6542 -0.2569
 1970TIP3   OH227324   5.924   2.069  14.206 -0.4537  0.4645 -0.5015
 1970TIP3    H127325   5.912   2.121  14.127 -0.4418  2.0917  0.5373
 1970TIP3    H227326   5.944   1.981  14.174  0.4087  1.2780 -2.3065
 1971TIP3   OH227327   0.119   4.658  13.697  0.0680  0.3839 -0.5575
 1971TIP3    H127328   0.205   4.636  13.660  0.7675  2.6050 -0.4055
 1971TIP3    H227329   0.075   4.707  13.628 -0.8616 -0.2158 -0.4082
 1972TIP3   OH227330   4.778   4.746   0.752  0.4314  0.2489  0.0407
 1972TIP3    H127331   4.849   4.810   0.745  0.1686  0.6982  1.1947
 1972TIP3    H227332   4.799   4.695   0.830 -0.0672 -0.1745 -0.0947
 1973TIP3   OH227333   0.588   0.863   0.862  0.1380 -0.3442  0.7237
 1973TIP3    H127334   0.619   0.865   0.953  0.2468 -0.2809  0.6846
 1973TIP3    H227335   0.661   0.826   0.812  0.2775  0.1222  0.5807
 1974TIP3   OH227336   0.371   1.662  15.173 -0.2239  0.5259  0.4016
 1974TIP3    H127337   0.358   1.743  15.123 -2.4801  0.1168  0.2043
 1974TIP3    H227338   0.445   1.618  15.130  0.5023  2.0725  0.0046
 1975TIP3   OH227339   6.176   6.470  15.665 -0.4897 -0.0741  0.3875
 1975TIP3    H127340   6.125   6.522  15.602  1.4318  2.2357  0.5997
 1975TIP3    H227341   6.111   6.438  15.727 -2.0704  0.0592 -1.0993
 1976TIP3   OH227342   3.080   2.013  16.021  0.3672 -0.2370 -0.1740
 1976TIP3    H127343   3.061   2.024  15.928  0.6625 -1.3401 -0.3818
 1976TIP3    H227344   3.166   2.054  16.032 -0.7443  2.1951  0.1813
 1977TIP3   OH227345   2.400   5.178   3.419 -0.7746 -0.3732 -0.2417
 1977TIP3    H127346   2.415   5.086   3.441  0.4067 -0.0264  0.5065
 1977TIP3    H227347   2.410   5.182   3.324 -0.0353 -0.8864 -0.1967
 1978TIP3   OH227348   2.311   3.218  13.371 -0.1236  0.1867  0.0517
 1978TIP3    H127349   2.317   3.197  13.278  0.9893  0.0950  0.1198
 1978TIP3    H227350   2.373   3.157  13.412  0.6454  1.3333  0.6453
 1979TIP3   OH227351   2.058   1.814   4.672  0.5446  0.4577  0.6179
 1979TIP3    H127352   2.096   1.790   4.588 -0.1444 -1.3799  0.7759
 1979TIP3    H227353   1.999   1.887   4.652  0.8834  0.4732 -0.3658
 1980TIP3   OH227354   2.817   2.649  15.040  0.3008 -0.1544  0.0229
 1980TIP3    H127355   2.739   2.630  15.092  2.1368 -2.2037  2.3223
 1980TIP3    H227356   2.789   2.641  14.949 -2.0436 -1.3416  0.7668
 1981TIP3   OH227357   0.498   4.323  14.287 -0.1876  0.3254  0.4890
 1981TIP3    H127358   0.551   4.366  14.353 -0.3368  0.7499  0.3320
 1981TIP3    H227359   0.560   4.272  14.235 -0.0748 -0.0424  0.9750
 1982TIP3   OH227360   4.272   1.463   0.072 -0.5391  0.6067  0.2896
 1982TIP3    H127361   4.287   1.488   0.164  0.7496  3.4499 -0.5844
 1982TIP3    H227362   4.356   1.430   0.042 -0.7341  0.4771 -0.1183
 1983TIP3   OH227363   5.923   6.139   2.111  0.8798 -0.1460 -0.5532
 1983TIP3    H127364   5.987   6.185   2.055  0.3427  1.0922 -0.1847
 1983TIP3    H227365   5.843   6.136   2.058  0.2877  1.2727  0.2143
 1984TIP3   OH227366   4.772   3.215  11.815  0.0608 -0.4906  0.0476
 1984TIP3    H127367   4.719   3.252  11.886 -0.2303 -2.9344  1.2328
 1984TIP3    H227368   4.851   3.269  11.814 -1.3629  1.7172 -0.1211
 1985TIP3   OH227369   1.461   1.294   2.374 -0.2964  0.0028 -0.1367
 1985TIP3    H127370   1.467   1.382   2.412 -0.3299  0.4531 -1.1543
 1985TIP3    H227371   1.544   1.281   2.329 -0.5803 -0.2013 -0.6038
 1986TIP3   OH227372   5.955   1.960  12.451  0.2868 -0.8160  0.0998
 1986TIP3    H127373   5.977   1.872  12.420  1.3140 -0.8950  0.9755
 1986TIP3    H227374   5.928   1.948  12.542 -0.4583 -0.3225 -0.0467
 1987TIP3   OH227375   4.301   0.312  16.357  0.0945  0.3442  0.2977
 1987TIP3    H127376   4.343   0.396  16.376 -1.6591  1.3226  0.1316
 1987TIP3    H227377   4.215   0.336  16.323 -0.1903 -1.5282 -0.4410
 1988TIP3   OH227378   2.612   0.666  13.609  0.0665 -0.5459  0.4860
 1988TIP3    H127379   2.642   0.608  13.680  0.4577 -1.0979 -0.1197
 1988TIP3    H227380   2.539   0.619  13.569 -0.8558  0.2463  1.1786
 1989TIP3   OH227381   6.669   0.793  16.096  0.0284  0.2224  0.3430
 1989TIP3    H127382   6.617   0.777  16.018 -0.3414 -1.9939  0.9862
 1989TIP3    H227383   6.738   0.853  16.067 -0.8226  0.4209 -1.3569
 1990TIP3   OH227384   0.206   4.721   2.925  0.2454 -0.3102 -0.2173
 1990TIP3    H127385   0.240   4.721   3.015  2.1251  0.2933 -0.8790
 1990TIP3    H227386   0.235   4.805   2.889  0.2158 -0.8923 -1.6413
 1991TIP3   OH227387   2.819   0.690   1.966 -0.0141 -0.5337  0.2014
 1991TIP3    H127388   2.896   0.644   1.934 -0.3058 -0.6251 -0.3724
 1991TIP3    H227389   2.776   0.629   2.025 -0.5109 -1.0821 -0.7125
 1992TIP3   OH227390   3.225   0.623  15.874 -0.1349 -0.6001  0.5146
 1992TIP3    H127391   3.308   0.670  15.864 -1.0744  0.7196 -1.8454
 1992TIP3    H227392   3.247   0.532  15.854  0.5437 -0.0350 -1.5435
 1993TIP3   OH227393   2.127   2.568   2.168 -0.1398  0.4803 -0.2472
 1993TIP3    H127394   2.076   2.648   2.184 -2.0833 -0.6387 -0.5471
 1993TIP3    H227395   2.169   2.550   2.252  1.9221  2.8124 -0.6620
 1994TIP3   OH227396   1.535   1.377  12.553  0.6652 -0.5393  0.3527
 1994TIP3    H127397   1.566   1.368  12.643  0.8682 -0.2002  0.3184
 1994TIP3    H227398   1.439   1.369  12.559  0.7775 -2.1003  0.3973
 1995TIP3   OH227399   5.165   5.158  15.218  0.1439  0.3186 -0.1403
 1995TIP3    H127400   5.231   5.094  15.191  0.8489  0.4270  1.1959
 1995TIP3    H227401   5.179   5.233  15.160  1.8346  0.6849  0.6577
 1996TIP3   OH227402   5.577   0.672   2.495  0.1909  0.1335 -0.0510
 1996TIP3    H127403   5.482   0.663   2.505  0.2296 -0.6386 -0.3202
 1996TIP3    H227404   5.589   0.688   2.401  0.3087  0.5748  0.0366
 1997TIP3   OH227405   1.369   2.976  15.021 -0.4182  0.1607 -0.5277
 1997TIP3    H127406   1.319   3.012  15.094  3.1545  0.5001  1.9949
 1997TIP3    H227407   1.416   3.051  14.984 -2.1774  0.0139 -3.3785
 1998TIP3   OH227408   1.781   2.079   6.863  0.1701 -0.0815  0.6697
 1998TIP3    H127409   1.842   2.025   6.913  1.0021 -0.7558 -0.9864
 1998TIP3    H227410   1.736   2.017   6.805  0.1286  0.8022 -0.2730
 1999TIP3   OH227411   4.526   6.473  15.535 -0.4067 -0.0359 -0.2857
 1999TIP3    H127412   4.437   6.471  15.500  0.2087 -1.4235 -1.9217
 1999TIP3    H227413   4.537   6.389  15.580 -0.4395  0.8150  1.3971
 2000TIP3   OH227414   2.646   4.518   4.849 -0.2868 -0.9115 -0.4692
 2000TIP3    H127415   2.683   4.443   4.895 -0.5560 -1.9642 -1.9331
 2000TIP3    H227416   2.668   4.505   4.757 -3.2883 -1.0292 -1.2688
 2001TIP3   OH227417   3.336   4.067   4.674 -0.7325 -0.0900 -0.1835
 2001TIP3    H127418   3.388   4.094   4.598 -1.5975  0.3131 -0.6443
 2001TIP3    H227419   3.362   4.129   4.743 -0.9838  0.4431 -0.5611
 2002TIP3   OH227420   1.023   3.877   5.108  0.4944  0.4210 -0.8995
 2002TIP3    H127421   1.039   3.783   5.096 -3.4681 -0.4996 -0.5446
 2002TIP3    H227422   1.072   3.900   5.186  1.6037 -1.3340 -1.0262
 2003TIP3   OH227423   4.679   0.349  15.736 -0.8318  0.2735 -0.2509
 2003TIP3    H127424   4.584   0.342  15.745 -1.1079  1.0483 -2.0989
 2003TIP3    H227425   4.700   0.302  15.655  0.2506  0.7815 -0.2947
 2004TIP3   OH227426   4.866   2.964   3.492 -0.4163 -0.3849 -0.1407
 2004TIP3    H127427   4.900   2.968   3.403  1.0959 -0.8116  0.3836
 2004TIP3    H227428   4.906   3.038   3.537 -0.3665 -0.7468  0.4312
 2005TIP3   OH227429   2.751   0.687  11.710 -0.0856  0.1794  0.1264
 2005TIP3    H127430   2.702   0.751  11.762  2.1516  0.2674  2.2606
 2005TIP3    H227431   2.813   0.739  11.659 -0.3230 -0.1107 -0.4740
 2006TIP3   OH227432   3.252   0.744   4.969 -0.0228 -0.1043 -0.5739
 2006TIP3    H127433   3.277   0.817   5.026  0.5627 -1.2679  0.7458
 2006TIP3    H227434   3.156   0.743   4.972 -0.0873  1.1975 -1.4268
 2007TIP3   OH227435   4.099   3.480  11.700 -0.1459  0.5252  0.4879
 2007TIP3    H127436   4.186   3.483  11.741  0.5254  1.2477 -0.8992
 2007TIP3    H227437   4.055   3.559  11.731  0.2536  0.9277  0.0371
 2008TIP3   OH227438   4.705   5.035  11.159 -0.1331 -0.6390 -0.2931
 2008TIP3    H127439   4.708   5.130  11.148  0.2593 -0.6488 -0.2699
 2008TIP3    H227440   4.626   5.020  11.211 -0.2790 -0.3378 -0.4264
 2009TIP3   OH227441   5.923   1.355  15.457  0.4801 -0.2625 -0.4488
 2009TIP3    H127442   5.832   1.333  15.438  0.2843  0.0275  0.1112
 2009TIP3    H227443   5.949   1.292  15.525  0.8284 -0.6058 -0.8970
 2010TIP3   OH227444   1.876   3.030  13.469  0.1418  0.2305 -0.1436
 2010TIP3    H127445   1.846   2.986  13.390  1.2244  1.4514 -1.3016
 2010TIP3    H227446   1.798   3.040  13.523 -0.1705 -2.9886  0.2009
 2011TIP3   OH227447   5.322   2.236   0.774 -0.5572  0.7580  0.3662
 2011TIP3    H127448   5.364   2.303   0.720  0.7723 -1.2488 -1.2541
 2011TIP3    H227449   5.228   2.256   0.768 -0.2513  2.0466 -0.6515
 2012TIP3   OH227450   3.854   6.535  11.125  0.5299 -0.1477 -0.1986
 2012TIP3    H127451   3.799   6.457  11.131  0.1352 -0.0766 -2.1513
 2012TIP3    H227452   3.922   6.511  11.062  2.2487  0.0981  1.4469
 2013TIP3   OH227453   3.827   2.520  16.320  0.1873  0.5079  0.4009
 2013TIP3    H127454   3.749   2.572  16.299  0.5407  0.2300 -1.8265
 2013TIP3    H227455   3.893   2.584  16.347  0.7448  1.3858 -2.6912
 2014TIP3   OH227456   2.015   5.944   0.732  0.4624  0.0477 -0.1314
 2014TIP3    H127457   2.094   5.965   0.680  0.5201  0.0297 -0.0507
 2014TIP3    H227458   2.037   5.973   0.820  0.2268  0.4136 -0.1898
 2015TIP3   OH227459   3.366   5.347   3.628  0.8618  0.1136 -0.9773
 2015TIP3    H127460   3.349   5.253   3.614  0.8868 -0.0244 -0.1247
 2015TIP3    H227461   3.313   5.370   3.704  2.2899  0.3456 -0.0060
 2016TIP3   OH227462   5.200   3.042  15.432  0.4329 -0.6774 -0.2111
 2016TIP3    H127463   5.122   3.014  15.480  1.3559 -0.9436  1.1922
 2016TIP3    H227464   5.177   3.129  15.398  0.0116 -0.1174  1.4109
 2017TIP3   OH227465   3.003   4.894  13.332  0.3142  0.2617 -0.0497
 2017TIP3    H127466   3.080   4.902  13.388 -0.1839  1.4491  0.5015
 2017TIP3    H227467   3.028   4.936  13.250  0.6851 -0.5320 -0.3524
 2018TIP3   OH227468   5.330   5.994   4.930 -0.2064 -0.5919 -0.3847
 2018TIP3    H127469   5.260   5.951   4.978  0.5522  1.9163  3.3176
 2018TIP3    H227470   5.288   6.066   4.884 -0.4253 -0.8511 -0.5963
 2019TIP3   OH227471   6.323   2.442  14.068  0.1398 -0.0871 -1.1992
 2019TIP3    H127472   6.385   2.409  14.003  1.0788 -0.4148 -0.1741
 2019TIP3    H227473   6.251   2.378  14.066  0.3841 -0.3563 -1.5814
 2020TIP3   OH227474   0.740   5.255   5.550  0.4128  0.0289  0.1450
 2020TIP3    H127475   0.646   5.258   5.566  0.2910 -1.3395 -0.1662
 2020TIP3    H227476   0.749   5.211   5.465  1.3722 -1.4304  0.9632
 2021TIP3   OH227477   1.765   0.995  16.890 -0.4239 -0.6411 -0.1644
 2021TIP3    H127478   1.815   0.949  16.958 -1.0539  0.2278  0.9387
 2021TIP3    H227479   1.703   0.931  16.858  0.1387 -1.1775 -0.1979
 2022TIP3   OH227480   1.030   4.883  17.338  0.2840  0.3160 -0.7357
 2022TIP3    H127481   0.952   4.908  17.286  1.3558  1.2205 -1.9867
 2022TIP3    H227482   1.030   4.788  17.336 -0.2190  0.3173 -1.6327
 2023TIP3   OH227483   6.388   0.146   3.260  0.0275  0.4661  0.8808
 2023TIP3    H127484   6.319   0.099   3.214  0.1189  0.3073  0.9056
 2023TIP3    H227485   6.440   0.078   3.302  1.0069  0.4733 -0.2578
 2024TIP3   OH227486   0.652   5.660   5.976 -0.2549  0.3429 -0.4440
 2024TIP3    H127487   0.597   5.622   5.907 -0.0134 -2.3967  0.7611
 2024TIP3    H227488   0.598   5.656   6.055  1.2369 -1.4925  0.5630
 2025TIP3   OH227489   6.165   1.662   1.072 -0.4245  0.0468 -0.3240
 2025TIP3    H127490   6.167   1.714   1.152 -0.1712  1.4396 -1.2062
 2025TIP3    H227491   6.257   1.650   1.048 -0.5178  1.6283 -1.6255
 2026TIP3   OH227492   6.642   5.408   5.584  0.6307  0.0935 -0.2526
 2026TIP3    H127493   6.624   5.453   5.502  0.0547 -1.1500 -0.8278
 2026TIP3    H227494   6.708   5.343   5.561 -0.8669 -1.5096 -0.1657
 2027TIP3   OH227495   4.959   2.209  12.223  0.0933  0.0750 -0.6462
 2027TIP3    H127496   4.920   2.258  12.151 -1.3052  0.1682  0.1361
 2027TIP3    H227497   4.899   2.135  12.236 -0.0896  0.4568  0.8624
 2028TIP3   OH227498   5.144   4.710   5.712  0.8973  0.5399 -0.0977
 2028TIP3    H127499   5.218   4.698   5.771  0.6188 -0.2856  0.1074
 2028TIP3    H227500   5.083   4.639   5.735  0.1051  1.1223 -0.3494
 2029TIP3   OH227501   5.994   1.877  13.841  0.7008  0.0777  0.4405
 2029TIP3    H127502   5.912   1.844  13.877  0.4023 -0.2946 -0.5497
 2029TIP3    H227503   6.049   1.800  13.831  1.0719  0.2841  0.7980
 2030TIP3   OH227504   6.368   0.360   2.531  0.2548  0.0463 -0.2535
 2030TIP3    H127505   6.377   0.264   2.536 -2.4160 -0.3160 -0.9884
 2030TIP3    H227506   6.452   0.393   2.562  2.0352 -2.5563 -1.8405
 2031TIP3   OH227507   2.891   2.154  16.306  0.1076 -0.3312  0.5083
 2031TIP3    H127508   2.918   2.243  16.330  0.9276 -0.5427  0.3772
 2031TIP3    H227509   2.858   2.162  16.217 -0.6984  0.0069  0.8228
 2032TIP3   OH227510   0.564   5.615   3.096  0.3784 -0.1085 -0.0153
 2032TIP3    H127511   0.496   5.677   3.121  0.0247  0.5568 -2.3979
 2032TIP3    H227512   0.525   5.562   3.026  1.2982 -1.8225  0.6792
 2033TIP3   OH227513   2.358   4.498  12.089  0.6089 -0.3222  0.6643
 2033TIP3    H127514   2.375   4.415  12.134  0.0199 -0.9713 -0.2930
 2033TIP3    H227515   2.415   4.496  12.012 -0.9312 -0.7920 -0.4926
 2034TIP3   OH227516   2.166   4.254   4.297  0.3211 -0.4256 -0.8356
 2034TIP3    H127517   2.230   4.188   4.324 -0.6936 -0.7829  0.8794
 2034TIP3    H227518   2.186   4.330   4.352 -1.7586 -1.1386  1.0197
 2035TIP3   OH227519   6.236   2.240  17.375 -0.4238  0.2323  0.2228
 2035TIP3    H127520   6.325   2.233  17.340 -0.8145  0.7423 -0.9022
 2035TIP3    H227521   6.232   2.328  17.413 -0.8272  0.6893 -0.8492
 2036TIP3   OH227522   0.748   5.383  16.818 -0.1942  0.7745  0.1448
 2036TIP3    H127523   0.725   5.301  16.774  0.4006  0.2560  0.7812
 2036TIP3    H227524   0.678   5.444  16.793 -0.4536  0.1812 -0.6175
 2037TIP3   OH227525   0.212   3.164  15.228 -0.1537  0.5074 -0.4808
 2037TIP3    H127526   0.225   3.073  15.201 -1.6531 -0.0102  0.4046
 2037TIP3    H227527   0.298   3.193  15.258  0.4509 -0.4555 -1.2325
 2038TIP3   OH227528   1.871   4.896   1.424 -0.3370  0.4386  0.1336
 2038TIP3    H127529   1.892   4.809   1.457  2.9720  1.2242  0.3943
 2038TIP3    H227530   1.863   4.950   1.503 -1.7368  0.5584 -0.0569
 2039TIP3   OH227531   4.721   4.158  13.127  0.3426  0.5416  0.0665
 2039TIP3    H127532   4.768   4.143  13.209  0.2492 -0.1459 -0.0019
 2039TIP3    H227533   4.629   4.152  13.150  0.2721  1.7584  0.1739
 2040TIP3   OH227534   5.545   1.568   2.151  0.0216  0.1173 -0.2906
 2040TIP3    H127535   5.627   1.614   2.172  0.2230 -0.6585  0.7111
 2040TIP3    H227536   5.574   1.488   2.107 -0.1631 -0.2751  0.2791
 2041TIP3   OH227537   3.723   3.357   2.711 -0.2930  0.2471 -0.2626
 2041TIP3    H127538   3.697   3.394   2.627  0.1658 -1.0227 -0.9835
 2041TIP3    H227539   3.783   3.423   2.748  0.6026  0.2069 -1.5719
 2042TIP3   OH227540   3.807   2.411  11.526 -0.1111  0.4172  0.0526
 2042TIP3    H127541   3.832   2.319  11.536  4.1246  1.2967 -0.4559
 2042TIP3    H227542   3.780   2.419  11.435 -0.3346 -0.2775  0.0537
 2043TIP3   OH227543   3.856   1.678  16.155 -0.8559 -0.4711 -0.1189
 2043TIP3    H127544   3.868   1.734  16.232 -0.9674 -1.0083  0.2996
 2043TIP3    H227545   3.820   1.597  16.191 -1.4892 -0.5060 -0.8152
 2044TIP3   OH227546   1.072   3.345  13.869 -0.3486  0.3549 -0.1575
 2044TIP3    H127547   1.059   3.254  13.844 -0.8552  0.3048  0.2574
 2044TIP3    H227548   1.150   3.373  13.822  0.0990 -0.4380  0.1008
 2045TIP3   OH227549   4.454   6.536  13.056 -0.4478  0.2038 -0.1793
 2045TIP3    H127550   4.433   6.449  13.023 -0.5227 -0.2843  1.1342
 2045TIP3    H227551   4.541   6.554  13.021 -0.2678 -0.5635 -0.1420
 2046TIP3   OH227552   3.544   5.471  11.994 -0.4127  0.3768 -0.9454
 2046TIP3    H127553   3.503   5.536  11.938  0.1800 -0.6065 -2.5871
 2046TIP3    H227554   3.630   5.455  11.955 -0.0997 -0.5837  0.0559
 2047TIP3   OH227555   3.986   0.545   3.957 -0.4107 -1.1580  0.2393
 2047TIP3    H127556   3.943   0.468   3.919 -1.0523 -0.2237 -0.9746
 2047TIP3    H227557   4.015   0.515   4.043 -1.7519 -2.3934  0.3044
 2048TIP3   OH227558   1.318   4.604  15.726 -0.0820 -0.1731 -0.1887
 2048TIP3    H127559   1.247   4.655  15.689 -1.3643 -0.6175  1.5260
 2048TIP3    H227560   1.385   4.669  15.747  0.6654  0.1031 -3.0171
 2049TIP3   OH227561   1.318   2.930  10.532  0.1990 -0.2621 -0.5168
 2049TIP3    H127562   1.318   3.015  10.488 -0.5932  0.7827  1.3830
 2049TIP3    H227563   1.381   2.940  10.604 -1.6194 -0.4016  1.1831
 2050TIP3   OH227564   3.756   2.992   6.172 -0.1200 -0.0854 -0.1729
 2050TIP3    H127565   3.741   2.969   6.081 -0.0000  1.2601 -0.5496
 2050TIP3    H227566   3.778   2.909   6.214 -0.3432 -0.7493 -1.3231
 2051TIP3   OH227567   2.451   0.103   4.085  0.2421  0.6572  0.2238
 2051TIP3    H127568   2.415   0.055   4.010 -0.1970  0.9414  0.2460
 2051TIP3    H227569   2.536   0.135   4.056  0.3237  0.2750  0.0436
 2052TIP3   OH227570   5.911   3.449  12.115 -0.5050 -0.1511  0.0493
 2052TIP3    H127571   5.900   3.539  12.145 -0.2728 -0.1721  0.1995
 2052TIP3    H227572   5.841   3.436  12.050  0.7224  0.8143 -1.5273
 2053TIP3   OH227573   1.115   2.301  10.694 -0.4227 -0.0008 -0.4812
 2053TIP3    H127574   1.022   2.322  10.692 -0.7200 -1.3094 -0.8417
 2053TIP3    H227575   1.133   2.281  10.786 -0.2220  1.3534 -0.2016
 2054TIP3   OH227576   0.699   4.981  14.920 -0.3015  0.4549 -0.3870
 2054TIP3    H127577   0.741   4.895  14.921 -1.9639 -0.4789 -2.2308
 2054TIP3    H227578   0.610   4.964  14.951 -0.2465  1.7962  0.5593
 2055TIP3   OH227579   0.383   1.284  14.274 -0.4937 -0.1139  0.1878
 2055TIP3    H127580   0.356   1.350  14.338  2.3593  0.2049  1.1996
 2055TIP3    H227581   0.440   1.331  14.214  0.8937 -1.4438  0.4074
 2056TIP3   OH227582   0.620   2.004   2.635 -0.0777  0.0706 -0.0504
 2056TIP3    H127583   0.549   1.988   2.573 -1.1059 -0.6005  1.2313
 2056TIP3    H227584   0.659   1.917   2.650  1.2649  0.4786 -0.9903
 2057TIP3   OH227585   4.471   1.368  16.322  0.0558 -0.0724  0.0874
 2057TIP3    H127586   4.454   1.274  16.318 -0.4552  0.0584 -0.9144
 2057TIP3    H227587   4.541   1.383  16.259 -0.7727  0.4092 -0.7381
 2058TIP3   OH227588   0.271   6.516  13.075  0.0497 -0.1574  0.7462
 2058TIP3    H127589   0.280   6.536  12.981  0.8077  0.2456  0.8952
 2058TIP3    H227590   0.248   6.600  13.114 -2.2709 -0.6947  0.6925
 2059TIP3   OH227591   3.441   5.841   5.878 -0.4503 -0.5954 -0.4207
 2059TIP3    H127592   3.478   5.878   5.798 -0.6314  0.1754 -0.1568
 2059TIP3    H227593   3.419   5.750   5.855  2.2414 -1.3215 -0.3868
 2060TIP3   OH227594   2.143   1.121   5.066  0.0530 -0.1855 -0.2680
 2060TIP3    H127595   2.170   1.124   4.974 -1.6763 -0.0335 -0.8039
 2060TIP3    H227596   2.223   1.100   5.114  1.0143 -0.1374 -1.7912
 2061TIP3   OH227597   1.188   0.099   1.975  0.5863 -0.2201 -0.6384
 2061TIP3    H127598   1.135   0.041   2.029  0.7731  1.0789  1.0034
 2061TIP3    H227599   1.133   0.116   1.898 -0.8168 -0.0320  0.3661
 2062TIP3   OH227600   4.390   2.217   3.945 -0.4425  0.0603 -0.0115
 2062TIP3    H127601   4.480   2.183   3.938 -0.8417 -1.0042 -0.0441
 2062TIP3    H227602   4.393   2.299   3.896  0.6740  0.3651  0.5230
 2063TIP3   OH227603   0.558   5.284  15.757  0.2239  0.4508 -0.1666
 2063TIP3    H127604   0.505   5.307  15.680  1.1775  1.7588 -0.4533
 2063TIP3    H227605   0.611   5.361  15.775  2.5190 -0.9715 -0.2909
 2064TIP3   OH227606   4.389   0.465  14.215 -0.3455 -0.4935 -0.1522
 2064TIP3    H127607   4.320   0.466  14.149 -0.7962 -1.4899  0.2828
 2064TIP3    H227608   4.350   0.505  14.292 -0.3309 -0.7489 -0.0102
 2065TIP3   OH227609   1.182   2.948  11.701  0.2760 -0.2070  0.6837
 2065TIP3    H127610   1.086   2.940  11.700  0.2575 -0.2648  1.9498
 2065TIP3    H227611   1.212   2.879  11.760  1.2268 -1.1417 -0.8278
 2066TIP3   OH227612   1.883   3.512   0.080  0.0122  0.0402  0.1854
 2066TIP3    H127613   1.833   3.593   0.093 -0.4531 -0.0898 -0.6817
 2066TIP3    H227614   1.950   3.534   0.015 -1.1637 -0.6438 -1.3472
 2067TIP3   OH227615   6.594   1.873   0.466  0.2586  0.3110  0.1048
 2067TIP3    H127616   6.520   1.927   0.441  0.8780  1.1633  0.0625
 2067TIP3    H227617   6.561   1.816   0.536 -0.8388 -0.4100 -0.9580
 2068TIP3   OH227618   2.694   0.537  12.150 -0.2608  0.3570  0.0025
 2068TIP3    H127619   2.668   0.612  12.097  0.5311 -0.0032 -0.9202
 2068TIP3    H227620   2.778   0.510  12.114  0.1096 -0.1487  1.1991
 2069TIP3   OH227621   5.735   6.656   0.200 -0.2051 -0.7436 -0.5578
 2069TIP3    H127622   5.820   6.619   0.225  0.5337  1.1858  0.0202
 2069TIP3    H227623   5.744   6.676   0.107 -0.1604 -0.9063 -0.5877
 2070TIP3   OH227624   0.137   0.207   6.478 -0.4494 -0.2368  0.2551
 2070TIP3    H127625   0.169   0.230   6.391  0.4002 -3.3350 -0.3726
 2070TIP3    H227626   0.209   0.229   6.537 -0.3784  0.3128 -0.0261
 2071TIP3   OH227627   2.041   4.668   3.409 -0.2496 -0.1140 -0.3088
 2071TIP3    H127628   2.107   4.601   3.392 -1.5707 -0.4783 -5.4797
 2071TIP3    H227629   1.960   4.618   3.425 -0.3549  0.3334  0.6408
 2072TIP3   OH227630   1.490   0.924  14.322  0.5156  0.2619 -0.1273
 2072TIP3    H127631   1.443   0.864  14.379  1.4941 -0.1407  0.2848
 2072TIP3    H227632   1.536   0.866  14.260 -0.5369  0.6840 -1.3585
 2073TIP3   OH227633   1.059   1.132   0.466 -0.0122  0.2359  0.5550
 2073TIP3    H127634   1.010   1.200   0.421 -1.6067 -0.6836  0.8307
 2073TIP3    H227635   1.111   1.090   0.398 -0.0667  0.8306  0.1405
 2074TIP3   OH227636   0.994   1.963  15.594  0.2076  0.0010 -0.5534
 2074TIP3    H127637   0.943   1.889  15.560  1.4759 -0.2180 -2.0829
 2074TIP3    H227638   0.928   2.021  15.632 -0.8614 -1.6669  0.2683
 2075TIP3   OH227639   3.548   1.419  12.787  0.1528  0.0237 -0.4116
 2075TIP3    H127640   3.632   1.465  12.781 -0.0013  0.5962  1.2330
 2075TIP3    H227641   3.490   1.481  12.831 -0.0436 -1.7092  1.9705
 2076TIP3   OH227642   3.260   2.822   1.916 -0.2228 -0.5015  0.0649
 2076TIP3    H127643   3.335   2.876   1.894  0.7843 -1.0202  2.0151
 2076TIP3    H227644   3.205   2.878   1.971  0.4759 -1.1572  1.4960
 2077TIP3   OH227645   1.995   2.274  13.816 -0.1470  0.2915  0.2010
 2077TIP3    H127646   2.002   2.181  13.797 -2.6216 -0.2920  1.7048
 2077TIP3    H227647   2.059   2.289  13.886  0.0387 -0.3188  0.1690
 2078TIP3   OH227648   2.983   0.651  14.946 -0.1808  0.0731 -0.4784
 2078TIP3    H127649   3.046   0.594  14.902 -0.3350 -1.1207  0.7694
 2078TIP3    H227650   2.909   0.657  14.887  0.0019 -0.7127 -0.7914
 2079TIP3   OH227651   2.161   5.819  13.003 -0.6976  0.2620  0.0530
 2079TIP3    H127652   2.196   5.888  12.946  0.0750  1.1020  1.4859
 2079TIP3    H227653   2.092   5.778  12.951 -0.2355  1.1960 -1.3594
 2080TIP3   OH227654   4.538   0.486  12.154  0.6255  0.1690  0.6622
 2080TIP3    H127655   4.603   0.448  12.214 -1.9686  0.3797  3.9341
 2080TIP3    H227656   4.455   0.478  12.201 -1.6233  0.8194 -2.8421
 2081TIP3   OH227657   0.147   1.490   0.168  0.6275 -0.3740 -0.6395
 2081TIP3    H127658   0.235   1.502   0.204  0.9254  0.0127 -1.4679
 2081TIP3    H227659   0.107   1.424   0.224  0.1039  2.0485  2.0763
 2082TIP3   OH227660   3.095   2.412   2.010  0.2011  0.1031 -0.2230
 2082TIP3    H127661   3.167   2.473   2.024  0.1113  0.0941  0.3118
 2082TIP3    H227662   3.125   2.330   2.048  0.5448 -0.3591 -1.4394
 2083TIP3   OH227663   3.596   0.200  14.589  0.3922 -0.1641  0.3638
 2083TIP3    H127664   3.638   0.203  14.674  1.1559  0.6205 -0.0318
 2083TIP3    H227665   3.667   0.205  14.526 -0.2306  0.2626 -0.3239
 2084TIP3   OH227666   4.424   6.328   4.355 -0.4495  0.3873  0.7236
 2084TIP3    H127667   4.450   6.418   4.373 -0.4757  0.2252  1.6016
 2084TIP3    H227668   4.355   6.309   4.419 -0.2989 -0.3182  0.6925
 2085TIP3   OH227669   3.216   1.916   1.786  0.6935  0.3699  0.2691
 2085TIP3    H127670   3.307   1.916   1.815  0.3383 -1.4384  1.5660
 2085TIP3    H227671   3.166   1.898   1.865 -0.8861  2.0424 -0.2838
 2086TIP3   OH227672   4.753   4.183  10.694  0.0785 -0.0136  0.3083
 2086TIP3    H127673   4.765   4.096  10.657 -0.1081  0.7644 -1.7464
 2086TIP3    H227674   4.842   4.216  10.708  0.1504 -0.3820  0.7280
 2087TIP3   OH227675   5.213   2.840   4.242 -0.2838  0.3708  0.0951
 2087TIP3    H127676   5.259   2.916   4.279 -2.0225  1.0929  0.9169
 2087TIP3    H227677   5.165   2.803   4.316  0.3072 -1.4004 -0.3562
 2088TIP3   OH227678   1.569   5.852  13.410  0.1158 -0.1138 -0.4272
 2088TIP3    H127679   1.620   5.836  13.330  0.0481 -0.1593 -0.4616
 2088TIP3    H227680   1.478   5.850  13.381  0.0412 -1.2779 -0.1558
 2089TIP3   OH227681   4.114   2.864  13.802 -0.2666 -0.7262 -0.1112
 2089TIP3    H127682   4.126   2.792  13.864 -1.1506 -0.5351  0.2940
 2089TIP3    H227683   4.020   2.880  13.802 -0.1425  0.0470 -0.6367
 2090TIP3   OH227684   2.442   2.902  16.854  0.0018 -0.4404  0.0154
 2090TIP3    H127685   2.464   2.951  16.933 -0.5312 -0.2699  0.0630
 2090TIP3    H227686   2.412   2.969  16.792  1.2453 -0.4667 -0.6386
 2091TIP3   OH227687   5.234   4.154  12.435  0.5447 -0.0481  0.3632
 2091TIP3    H127688   5.195   4.070  12.460  1.5198 -1.1957 -1.6944
 2091TIP3    H227689   5.160   4.206  12.402  0.1781 -0.7184  0.1172
 2092TIP3   OH227690   3.120   3.389   4.640 -0.4789 -0.0682 -0.6010
 2092TIP3    H127691   3.145   3.297   4.640 -0.3249 -0.0285 -0.9776
 2092TIP3    H227692   3.197   3.436   4.672 -0.0927  0.0442 -1.6579
 2093TIP3   OH227693   5.868   2.900   0.400 -0.5960 -0.1462 -0.2830
 2093TIP3    H127694   5.823   2.983   0.381  1.0019  1.3281  1.8579
 2093TIP3    H227695   5.826   2.868   0.479 -0.6235 -0.9497 -0.6175
 2094TIP3   OH227696   4.038   3.433  12.823 -0.4728 -0.4664  0.0997
 2094TIP3    H127697   3.963   3.492  12.831 -0.1123  0.0689 -0.3839
 2094TIP3    H227698   4.111   3.491  12.802  0.0406 -1.0054  0.3797
 2095TIP3   OH227699   6.606   3.530  12.222 -0.6478 -0.6434 -0.1214
 2095TIP3    H127700   6.578   3.557  12.309  0.8043  0.6410 -0.0130
 2095TIP3    H227701   6.528   3.540  12.167 -0.5923  2.5618  0.2034
 2096TIP3   OH227702   6.326   4.417   0.248 -0.1835  0.4743 -0.1020
 2096TIP3    H127703   6.245   4.415   0.301 -0.0833  1.7536  0.1383
 2096TIP3    H227704   6.352   4.326   0.241 -1.4941  0.0631  0.0729
 2097TIP3   OH227705   1.790   3.545  14.577  0.5243  0.4935 -0.0513
 2097TIP3    H127706   1.757   3.456  14.590  0.3000  0.5437 -0.2588
 2097TIP3    H227707   1.782   3.559  14.482 -0.8770  1.2878  0.1613
 2098TIP3   OH227708   3.788   0.270   1.953 -0.2293 -0.5359  0.2793
 2098TIP3    H127709   3.829   0.192   1.988  3.1142  0.9007 -0.0980
 2098TIP3    H227710   3.776   0.327   2.029 -0.8069 -0.6374  0.2679
 2099TIP3   OH227711   1.037   3.537   1.811 -0.6629  0.3716 -0.4850
 2099TIP3    H127712   1.094   3.536   1.734 -0.3306  0.5485 -0.2456
 2099TIP3    H227713   0.948   3.540   1.776 -0.5181  3.9001 -0.9072
 2100TIP3   OH227714   3.255   4.720  12.105  0.0012 -0.5627  0.3098
 2100TIP3    H127715   3.175   4.726  12.053  0.4958 -1.4264 -0.5784
 2100TIP3    H227716   3.298   4.640  12.074 -0.4789 -2.0480  3.1965
 2101TIP3   OH227717   1.563   3.738   1.326 -0.4565  1.0378 -0.0756
 2101TIP3    H127718   1.469   3.757   1.326 -1.4050 -2.7608 -1.2404
 2101TIP3    H227719   1.589   3.749   1.234  0.2190  1.8869  0.2117
 2102TIP3   OH227720   6.081   5.095  13.111  0.2339 -0.1520  1.0083
 2102TIP3    H127721   5.994   5.057  13.102  0.3113 -0.0495 -0.4240
 2102TIP3    H227722   6.065   5.184  13.144 -0.0696 -0.6812  2.3584
 2103TIP3   OH227723   5.260   2.975   1.514 -0.4284  0.2556  0.1763
 2103TIP3    H127724   5.313   2.916   1.459  0.4589  1.3930 -0.2317
 2103TIP3    H227725   5.170   2.959   1.485 -0.0380  0.4041 -1.2296
 2104TIP3   OH227726   5.142   5.771   4.174  0.1456 -0.4035 -0.7876
 2104TIP3    H127727   5.129   5.811   4.087  2.6127  1.5052 -0.4053
 2104TIP3    H227728   5.231   5.796   4.198 -0.0623 -1.8680  1.8350
 2105TIP3   OH227729   2.840   2.432  14.157 -0.1084 -0.4889  0.5346
 2105TIP3    H127730   2.897   2.419  14.233  0.1817  3.4595  1.2334
 2105TIP3    H227731   2.755   2.455  14.194 -1.0137 -2.0806 -0.4561
 2106TIP3   OH227732   6.552   1.694  10.540  0.2164 -0.1775  0.3283
 2106TIP3    H127733   6.494   1.770  10.541 -0.1768 -0.3136 -2.6243
 2106TIP3    H227734   6.611   1.709  10.467  0.6838 -2.3246  0.1755
 2107TIP3   OH227735   4.924   5.257   5.153 -0.6032  0.1759 -0.1299
 2107TIP3    H127736   4.965   5.297   5.230  1.1316 -1.1064 -0.3221
 2107TIP3    H227737   4.921   5.164   5.174 -1.7671  0.0117 -0.9236
 2108TIP3   OH227738   3.154   5.497  13.542 -0.8971 -0.2391 -0.3855
 2108TIP3    H127739   3.112   5.427  13.493 -0.3810 -0.8670  0.0434
 2108TIP3    H227740   3.229   5.455  13.585 -0.0454  0.7613 -0.8339
 2109TIP3   OH227741   2.500   1.085  13.047  0.6188 -0.0822  0.1198
 2109TIP3    H127742   2.450   1.115  13.123  0.4859 -0.1968  0.0775
 2109TIP3    H227743   2.447   1.111  12.972 -0.7258 -2.5253  0.1157
 2110TIP3   OH227744   1.141   0.291  13.101  0.2221 -0.0928 -0.4058
 2110TIP3    H127745   1.219   0.345  13.088 -0.1097  0.4175 -0.3196
 2110TIP3    H227746   1.130   0.288  13.196 -0.9823  1.5010 -0.4539
 2111TIP3   OH227747   0.941   0.497   3.035  0.8059  0.4625 -0.0357
 2111TIP3    H127748   0.985   0.432   3.089 -0.1207 -1.4925 -1.5056
 2111TIP3    H227749   0.851   0.498   3.068 -0.2589 -2.0770 -2.4907
 2112TIP3   OH227750   6.203   6.046   3.388 -0.3688  0.0224  0.0423
 2112TIP3    H127751   6.256   6.102   3.444 -1.4099 -1.1082  2.2731
 2112TIP3    H227752   6.121   6.096   3.376 -0.0285  0.4077 -0.8336
 2113TIP3   OH227753   3.045   6.475  11.624 -0.2897 -0.2390 -0.1630
 2113TIP3    H127754   3.066   6.413  11.694  2.3562  1.7709  0.9670
 2113TIP3    H227755   2.971   6.526  11.658 -0.9601 -1.2006 -0.1364
 2114TIP3   OH227756   6.691   4.224  12.708 -0.2253 -0.3491 -0.5685
 2114TIP3    H127757   6.724   4.310  12.736 -0.3804 -0.7989  1.0987
 2114TIP3    H227758   6.755   4.193  12.645  0.1244  0.7586 -0.7828
 2115TIP3   OH227759   5.203   0.828   1.238  0.0476  0.3741 -0.0811
 2115TIP3    H127760   5.249   0.828   1.323 -1.2620  0.6308  0.6552
 2115TIP3    H227761   5.207   0.919   1.209 -0.5934  0.5462  0.3396
 2116TIP3   OH227762   0.108   1.089  15.644  0.1921  0.2296  0.0520
 2116TIP3    H127763   0.025   1.125  15.612  0.6131  0.3929 -0.8704
 2116TIP3    H227764   0.153   1.163  15.684  0.0543  0.2167  0.2351
 2117TIP3   OH227765   5.957   4.715   6.151  0.0438  0.1886  0.6415
 2117TIP3    H127766   5.949   4.663   6.231  0.5990  0.7312  1.0581
 2117TIP3    H227767   6.052   4.721   6.136 -0.0497  0.2968  0.0792
 2118TIP3   OH227768   6.220   2.851  17.083 -0.0846 -0.2057 -0.2799
 2118TIP3    H127769   6.236   2.788  17.012  1.3348  0.2371 -0.3815
 2118TIP3    H227770   6.290   2.834  17.146 -1.5496 -0.8655  1.2457
 2119TIP3   OH227771   3.202   2.640   6.532  0.4390 -0.3245  0.2251
 2119TIP3    H127772   3.244   2.669   6.451 -1.3549 -1.5548 -1.2148
 2119TIP3    H227773   3.152   2.716   6.561  2.3834  0.6715  1.1649
 2120TIP3   OH227774   1.621   3.710  11.212 -0.6260 -0.1384 -0.0442
 2120TIP3    H127775   1.600   3.775  11.145  0.5086  0.2835 -0.0176
 2120TIP3    H227776   1.717   3.701  11.207 -0.6926 -1.2766  0.4410
 2121TIP3   OH227777   6.499   0.684  11.326 -0.7382  0.4588 -0.4792
 2121TIP3    H127778   6.594   0.700  11.323 -0.8899  1.6772  0.2444
 2121TIP3    H227779   6.468   0.709  11.238 -0.4576  0.6354 -0.5307
 2122TIP3   OH227780   0.917   1.240   4.243  0.3149 -0.6693  0.7985
 2122TIP3    H127781   0.832   1.203   4.219 -0.0915  0.8031 -0.1115
 2122TIP3    H227782   0.897   1.327   4.278  1.5100  0.1158 -0.3695
 2123TIP3   OH227783   2.755   1.145  17.007 -0.1666  0.0156 -0.0753
 2123TIP3    H127784   2.694   1.083  16.966  1.0942  0.0234 -2.1038
 2123TIP3    H227785   2.817   1.167  16.938  1.0422  1.4626  1.3812
 2124TIP3   OH227786   1.782   1.889   0.229 -0.4154 -0.7576 -0.1578
 2124TIP3    H127787   1.813   1.974   0.261 -0.2047 -1.6281  2.1614
 2124TIP3    H227788   1.860   1.847   0.192 -0.5526  0.0825 -1.4578
 2125TIP3   OH227789   1.892   5.386   6.531 -0.0351  0.9243  0.0142
 2125TIP3    H127790   1.944   5.325   6.583  0.7403 -2.2356 -3.9283
 2125TIP3    H227791   1.801   5.363   6.551  0.2528 -0.8182 -0.4501
 2126TIP3   OH227792   2.810   3.185  17.102  0.1697 -0.3288 -0.4011
 2126TIP3    H127793   2.735   3.216  17.051  0.2887  1.2324  0.3016
 2126TIP3    H227794   2.802   3.230  17.186  0.5051 -2.1168  0.6324
 2127TIP3   OH227795   6.053   0.867   4.269  0.5772 -0.2963  0.0726
 2127TIP3    H127796   6.031   0.862   4.362  0.0385  0.8267  0.0125
 2127TIP3    H227797   5.969   0.879   4.225  0.9505  0.4428 -0.4549
 2128TIP3   OH227798   3.706   5.998   1.589 -0.0758 -0.2958  0.4438
 2128TIP3    H127799   3.781   5.941   1.606  0.6485  0.6263  0.4270
 2128TIP3    H227800   3.630   5.945   1.612  0.5013 -1.6654 -0.6525
 2129TIP3   OH227801   0.650   4.431  16.867 -0.4690 -0.0689 -0.0322
 2129TIP3    H127802   0.598   4.490  16.922 -0.9810  0.0177 -0.5880
 2129TIP3    H227803   0.607   4.436  16.781  1.0947  0.8194 -0.7992
 2130TIP3   OH227804   4.467   5.892  14.642 -0.4361  0.1244 -0.0299
 2130TIP3    H127805   4.489   5.857  14.556 -2.1281 -1.0834 -0.0141
 2130TIP3    H227806   4.530   5.850  14.702  0.8263  1.0614 -0.6455
 2131TIP3   OH227807   1.253   2.016  15.517  0.0455  0.1288  0.0041
 2131TIP3    H127808   1.172   1.978  15.552  0.7770  0.5969  2.3787
 2131TIP3    H227809   1.270   2.092  15.571  1.9494  0.2018 -0.6002
 2132TIP3   OH227810   2.625   5.301   5.644  0.2501 -0.5126 -0.4483
 2132TIP3    H127811   2.601   5.394   5.642 -1.6610 -0.9319  0.4330
 2132TIP3    H227812   2.631   5.275   5.553 -0.3133  0.2214 -0.7027
 2133TIP3   OH227813   3.794   2.786   0.292  0.1322 -0.2016 -0.1988
 2133TIP3    H127814   3.877   2.778   0.338  0.0903 -0.2145 -0.1263
 2133TIP3    H227815   3.787   2.879   0.271  0.5129 -0.3102 -0.8470
 2134TIP3   OH227816   0.002   0.047   5.741  0.5990  0.0318  0.4406
 2134TIP3    H127817  -0.066   0.109   5.715  0.4245 -0.2267  0.2713
 2134TIP3    H227818   0.080   0.101   5.754  1.0514  0.0510 -1.8987
 2135TIP3   OH227819   3.021   1.759  15.637 -0.2098 -0.0642 -0.0491
 2135TIP3    H127820   2.949   1.802  15.591  0.0648  0.0232 -0.4015
 2135TIP3    H227821   2.995   1.667  15.643 -1.5068  0.3712  2.0556
 2136TIP3   OH227822   4.001   6.486  17.049 -0.4932 -0.0284  0.6607
 2136TIP3    H127823   4.008   6.574  17.085 -0.2748  0.5011 -0.6458
 2136TIP3    H227824   3.910   6.461  17.066 -0.3200  0.0783  1.8279
 2137TIP3   OH227825   2.901   0.890   1.564 -0.0823 -0.4827  0.6819
 2137TIP3    H127826   2.927   0.857   1.478  0.8796  0.7903  0.4522
 2137TIP3    H227827   2.962   0.962   1.582  0.1292 -1.0957  2.7001
 2138TIP3   OH227828   4.441   0.876  14.873  0.0870 -0.1736 -0.1316
 2138TIP3    H127829   4.484   0.794  14.896  1.6953  0.8766  0.7303
 2138TIP3    H227830   4.452   0.883  14.778  3.6516  0.9550  0.2215
 2139TIP3   OH227831   1.192   2.758  17.014  0.3764  0.0274 -1.1764
 2139TIP3    H127832   1.205   2.683  16.955 -1.3978  0.3025 -1.9835
 2139TIP3    H227833   1.111   2.737  17.061  1.4204  0.1107  0.7439
 2140TIP3   OH227834   3.708   3.424   5.504 -0.4085  0.1674  0.3054
 2140TIP3    H127835   3.631   3.465   5.544  0.6783  1.7999  0.8130
 2140TIP3    H227836   3.757   3.389   5.578  1.0511  2.2205  0.3946
 2141TIP3   OH227837   5.810   3.225   2.297 -0.1109  0.2070  0.8267
 2141TIP3    H127838   5.892   3.176   2.300  1.2364  2.2432 -0.5017
 2141TIP3    H227839   5.835   3.316   2.312 -2.1493  0.8595  0.5718
 2142TIP3   OH227840   2.625   3.139   3.166  0.4531 -0.3015  0.1529
 2142TIP3    H127841   2.645   3.115   3.257  1.2157  0.8183  0.3072
 2142TIP3    H227842   2.710   3.162   3.128 -0.0933  1.3341 -0.1832
 2143TIP3   OH227843   4.684   2.287   0.099 -0.0828 -0.0817  0.3066
 2143TIP3    H127844   4.740   2.246   0.033 -1.6533  0.2620 -1.3332
 2143TIP3    H227845   4.717   2.376   0.108 -0.4986  0.2116 -0.8724
 2144TIP3   OH227846   2.218   3.596   4.853  0.0973  0.3015  0.2243
 2144TIP3    H127847   2.180   3.509   4.862 -1.1714  0.7906 -0.1760
 2144TIP3    H227848   2.297   3.594   4.907  0.4908 -1.3212 -0.3648
 2145TIP3   OH227849   6.032   2.995  16.835 -0.4447  0.1165 -0.2019
 2145TIP3    H127850   5.956   3.052  16.820  0.1623  0.8138 -0.7417
 2145TIP3    H227851   6.107   3.048  16.806  0.3007 -0.3669  0.7697
 2146TIP3   OH227852   3.965   3.775  13.773 -0.1022 -0.0256 -0.1620
 2146TIP3    H127853   3.870   3.767  13.762 -0.2367  1.3310 -0.0858
 2146TIP3    H227854   3.996   3.684  13.771 -0.9382 -0.4199 -4.1752
 2147TIP3   OH227855   5.659   0.358  14.605 -0.2034  0.0358  0.0567
 2147TIP3    H127856   5.718   0.351  14.529 -0.5949 -0.1688 -0.2318
 2147TIP3    H227857   5.713   0.332  14.679  0.6302  1.6978  0.0723
 2148TIP3   OH227858   0.924   5.197  11.470  0.7127  0.5934 -0.4382
 2148TIP3    H127859   0.905   5.154  11.386  2.2361  1.1073 -1.0864
 2148TIP3    H227860   0.840   5.232  11.498 -0.1701 -1.0672 -0.8810
 2149TIP3   OH227861   4.746   0.828   1.905  0.2325 -0.0509  0.4467
 2149TIP3    H127862   4.804   0.895   1.872 -1.0944  0.7283 -0.3929
 2149TIP3    H227863   4.666   0.837   1.853  0.0466 -2.3611  0.2186
 2150TIP3   OH227864   5.166   1.848   2.889  0.4095  0.3212 -0.3394
 2150TIP3    H127865   5.125   1.935   2.890 -1.8462 -0.6493 -1.2220
 2150TIP3    H227866   5.162   1.819   2.980  2.5296  1.6557  0.2544
 2151TIP3   OH227867   6.578   0.992  16.938  0.0923 -0.5305 -0.0060
 2151TIP3    H127868   6.644   1.055  16.966  1.0774 -1.5573  0.0663
 2151TIP3    H227869   6.556   1.017  16.848 -1.0674  1.1330  0.6798
 2152TIP3   OH227870   2.042   4.020  17.232  0.1780 -0.0401  0.3123
 2152TIP3    H127871   2.127   4.036  17.274 -0.3194 -0.0357  1.3287
 2152TIP3    H227872   2.052   4.058  17.144  0.5422  1.7740  1.1049
 2153TIP3   OH227873   1.524   4.960   3.983 -0.2774  0.1309  0.1778
 2153TIP3    H127874   1.578   4.884   4.006  2.4599  1.7010 -0.5240
 2153TIP3    H227875   1.440   4.945   4.026  0.5405 -2.7236  0.9692
 2154TIP3   OH227876   4.870   6.189  14.041  0.6188 -0.2983 -0.3541
 2154TIP3    H127877   4.834   6.227  13.961  2.0442 -1.6564 -1.7043
 2154TIP3    H227878   4.801   6.201  14.106 -0.8804  0.1993 -1.9569
 2155TIP3   OH227879   5.696   6.396   2.731 -0.3808  0.3532  0.4330
 2155TIP3    H127880   5.645   6.379   2.652 -0.2904 -1.5004  0.7405
 2155TIP3    H227881   5.785   6.370   2.707 -0.5082 -1.0123  1.3860
 2156TIP3   OH227882   6.476   1.862   3.688  0.2298 -0.4454 -0.6688
 2156TIP3    H127883   6.382   1.852   3.703  0.4065  0.4143  1.3797
 2156TIP3    H227884   6.484   1.880   3.594 -1.8830  1.7256 -0.5289
 2157TIP3   OH227885   2.095   4.773   5.568 -0.1901 -0.5224  0.5139
 2157TIP3    H127886   2.122   4.825   5.492  2.6307 -0.2724  1.5713
 2157TIP3    H227887   2.093   4.683   5.537 -2.8575 -0.1445 -0.7389
 2158TIP3   OH227888   2.267   2.742  13.558 -0.3177  0.2671  0.4410
 2158TIP3    H127889   2.322   2.813  13.589  0.6593  0.1284 -0.8920
 2158TIP3    H227890   2.178   2.777  13.562  0.1471  1.5742 -0.2067
 2159TIP3   OH227891   1.352   4.087  15.937 -0.1239 -0.2736 -0.4313
 2159TIP3    H127892   1.316   4.002  15.912 -2.4421 -0.3785  2.6350
 2159TIP3    H227893   1.445   4.071  15.954  0.3383 -1.2680 -3.4518
 2160TIP3   OH227894   2.427   3.635  15.419  0.1618 -0.1132 -0.1961
 2160TIP3    H127895   2.358   3.701  15.414  0.8893  0.6064 -1.1037
 2160TIP3    H227896   2.509   3.685  15.414  0.7388 -1.1647 -2.2500
 2161TIP3   OH227897   0.163   1.193  13.440 -0.2814  0.8673 -0.6299
 2161TIP3    H127898   0.105   1.164  13.510 -0.4651 -1.5793 -1.6978
 2161TIP3    H227899   0.126   1.154  13.360  2.1045  0.2427 -1.5208
 2162TIP3   OH227900   0.714   0.190  15.784  0.4516  0.2155  0.1208
 2162TIP3    H127901   0.775   0.255  15.818  0.4049  1.0800 -1.3504
 2162TIP3    H227902   0.648   0.242  15.738 -1.3902 -0.6885  1.6015
 2163TIP3   OH227903   1.041   4.581   0.013 -0.1081  0.3090 -0.1670
 2163TIP3    H127904   0.996   4.539  -0.060 -1.8791 -1.3412  1.7452
 2163TIP3    H227905   1.134   4.573  -0.009 -0.6084  0.7990 -2.6727
 2164TIP3   OH227906   1.675   2.934  15.274 -0.0217 -0.4700 -0.0561
 2164TIP3    H127907   1.668   2.849  15.229  1.9453 -1.0690  0.6451
 2164TIP3    H227908   1.612   2.929  15.346 -1.3131 -0.5412 -1.1660
 2165TIP3   OH227909   2.349   5.176   5.507  0.0330 -0.1755  0.1930
 2165TIP3    H127910   2.374   5.249   5.451  0.5253  1.2520  2.1327
 2165TIP3    H227911   2.255   5.165   5.492  0.2347 -0.1523 -1.1930
 2166TIP3   OH227912   5.611   3.805  12.092  0.0680  0.4738  0.1155
 2166TIP3    H127913   5.550   3.848  12.033  0.2065 -1.2352 -1.3742
 2166TIP3    H227914   5.577   3.823  12.180 -0.7497  2.1864 -0.5222
 2167TIP3   OH227915   3.962   2.366  12.045 -0.1717 -0.0679 -0.3321
 2167TIP3    H127916   3.905   2.376  11.968 -0.4227  0.9309 -0.0344
 2167TIP3    H227917   3.902   2.373  12.119 -0.3722 -3.7151  0.0032
 2168TIP3   OH227918   5.264   3.278  10.743 -0.1494  0.1717  0.0474
 2168TIP3    H127919   5.273   3.373  10.734  1.7789 -0.1091 -1.8252
 2168TIP3    H227920   5.336   3.242  10.692  0.9239 -2.2973  2.9770
 2169TIP3   OH227921   2.041   3.648   5.268 -0.2451 -0.6670  0.3420
 2169TIP3    H127922   2.073   3.565   5.233 -0.1889 -0.8914  0.9238
 2169TIP3    H227923   1.963   3.625   5.318  0.4852 -0.5540  1.5651
 2170TIP3   OH227924   3.202   6.060   0.517  0.0114  0.0075 -0.1729
 2170TIP3    H127925   3.206   6.155   0.510  1.2695  0.1114  1.4302
 2170TIP3    H227926   3.237   6.028   0.433 -1.1227  0.9213 -1.0196
 2171TIP3   OH227927   3.135   4.045  13.146  0.5076 -0.1500  0.5810
 2171TIP3    H127928   3.190   3.978  13.186 -0.3581  0.2299  2.5342
 2171TIP3    H227929   3.179   4.066  13.064  1.9265 -1.5930  0.9158
 2172TIP3   OH227930   4.612   2.145   3.524  0.1823  0.4653 -0.0710
 2172TIP3    H127931   4.577   2.058   3.507 -0.4282  0.0678  2.6748
 2172TIP3    H227932   4.549   2.205   3.483  1.1037 -0.3045 -2.7987
 2173TIP3   OH227933   1.253   2.478  12.892  0.5547  0.1221  0.2180
 2173TIP3    H127934   1.194   2.502  12.821 -0.0599  2.6422  1.4879
 2173TIP3    H227935   1.200   2.422  12.949  0.7855 -1.1741 -0.7840
 2174TIP3   OH227936   3.587   3.767  16.834 -0.3998 -0.3299  0.2764
 2174TIP3    H127937   3.604   3.792  16.743  0.8510  0.3793  0.6821
 2174TIP3    H227938   3.629   3.835  16.886 -1.3876 -0.5444  1.3984
 2175TIP3   OH227939   5.741   4.000   4.837 -0.3962  0.1133 -0.1173
 2175TIP3    H127940   5.744   3.964   4.926  0.4892 -0.5093 -0.3912
 2175TIP3    H227941   5.647   4.003   4.816 -0.5720 -0.5172  0.5315
 2176TIP3   OH227942   5.601   5.064  14.977 -0.6387  0.3107 -0.6318
 2176TIP3    H127943   5.621   5.122  14.904  1.7601 -0.9756 -1.1108
 2176TIP3    H227944   5.686   5.041  15.014 -1.6290 -1.1570  0.9362
 2177TIP3   OH227945   6.360   0.768   2.367  0.1427  0.2868  0.7901
 2177TIP3    H127946   6.272   0.739   2.345  0.8565 -0.8321 -0.7554
 2177TIP3    H227947   6.401   0.692   2.408 -0.1823  1.4039  3.3790
 2178TIP3   OH227948   6.364   1.639  11.168  0.6925 -0.3845 -0.1502
 2178TIP3    H127949   6.449   1.639  11.211  1.6751 -1.4229 -1.9547
 2178TIP3    H227950   6.365   1.561  11.112 -0.6240  0.6750 -1.7658
 2179TIP3   OH227951   0.945   3.695   4.507 -0.5398 -0.2816 -0.2240
 2179TIP3    H127952   0.863   3.738   4.483 -0.5152  2.1986  3.4444
 2179TIP3    H227953   0.919   3.623   4.564 -0.2327 -0.5502 -0.4209
 2180TIP3   OH227954   6.226   0.683   2.084  0.3491  0.6065 -0.1808
 2180TIP3    H127955   6.241   0.618   2.152 -0.8745  0.2448 -0.2429
 2180TIP3    H227956   6.239   0.635   2.002  0.7258  0.7695 -0.2193
 2181TIP3   OH227957   4.618   4.260  17.054  0.6002 -0.2201 -0.2123
 2181TIP3    H127958   4.648   4.338  17.006  1.6694 -1.3844 -1.5282
 2181TIP3    H227959   4.685   4.245  17.121  1.0567 -0.7073 -0.7693
 2182TIP3   OH227960   4.877   0.632   3.561 -0.0396 -0.4205 -0.2805
 2182TIP3    H127961   4.796   0.623   3.611 -0.1571  1.3062 -0.1048
 2182TIP3    H227962   4.947   0.628   3.626 -0.1055  0.2125 -0.1680
 2183TIP3   OH227963   1.651   2.321  14.778  0.1318 -0.0840  0.1794
 2183TIP3    H127964   1.659   2.274  14.695  0.4085 -0.9071  0.6603
 2183TIP3    H227965   1.560   2.351  14.781 -0.1722 -0.9888  0.0755
 2184TIP3   OH227966   1.771   4.259   4.345 -0.0641  0.2450 -0.2628
 2184TIP3    H127967   1.812   4.250   4.431 -0.5383  1.3983  0.1112
 2184TIP3    H227968   1.748   4.170   4.320 -0.6310 -0.0489  1.1707
 2185TIP3   OH227969   3.635   2.421  13.902 -0.0982  0.5746  0.1998
 2185TIP3    H127970   3.711   2.478  13.887  0.5675 -0.3884 -0.1645
 2185TIP3    H227971   3.661   2.363  13.973 -0.3474 -0.0047 -0.1700
 2186TIP3   OH227972   5.012   3.539   2.781 -0.2941 -0.2249 -0.3773
 2186TIP3    H127973   5.096   3.581   2.793 -0.5431  0.4395 -0.9031
 2186TIP3    H227974   4.968   3.548   2.865  0.3740 -1.0926  0.0815
 2187TIP3   OH227975   5.687   2.837   3.580 -0.4502 -0.7881  1.1810
 2187TIP3    H127976   5.625   2.830   3.652 -0.5413 -2.2823  0.9789
 2187TIP3    H227977   5.748   2.764   3.592  0.9139  0.2815  1.0219
 2188TIP3   OH227978   4.464   1.039  17.224 -0.7692 -0.2512 -0.0022
 2188TIP3    H127979   4.556   1.060  17.209 -1.3085  2.2691 -0.2301
 2188TIP3    H227980   4.465   0.950  17.260  1.6204 -0.8773 -1.3918
 2189TIP3   OH227981   0.123   5.669   2.428 -0.2181  0.0783  0.1511
 2189TIP3    H127982   0.033   5.690   2.452 -0.0106  1.4076 -0.1608
 2189TIP3    H227983   0.173   5.748   2.452  0.5372  0.1439 -1.5096
 2190TIP3   OH227984   5.079   4.269   2.660  0.0071  0.0878 -0.4876
 2190TIP3    H127985   5.094   4.352   2.616  1.2156  0.9444  1.4085
 2190TIP3    H227986   5.164   4.247   2.698 -0.8886 -0.7882  1.0875
 2191TIP3   OH227987   2.157   0.942   1.172  0.1082  0.0143 -0.3240
 2191TIP3    H127988   2.135   0.859   1.129 -1.0864 -1.1114  2.2462
 2191TIP3    H227989   2.075   0.992   1.168 -0.5479 -0.7771  1.9499
 2192TIP3   OH227990   5.893   2.818   0.901 -0.4595  0.0936 -0.1514
 2192TIP3    H127991   5.935   2.747   0.851 -0.2732 -1.3617  1.9611
 2192TIP3    H227992   5.962   2.850   0.959 -0.6498  1.8292 -0.8345
 2193TIP3   OH227993   0.567   2.642  14.964  0.4457 -0.1912  0.0307
 2193TIP3    H127994   0.588   2.552  14.989 -1.0797 -1.2546 -2.1971
 2193TIP3    H227995   0.634   2.666  14.901 -0.6197 -0.7863 -1.3683
 2194TIP3   OH227996   4.399   2.623   1.329 -0.7552 -0.0563 -0.1816
 2194TIP3    H127997   4.368   2.571   1.255 -0.6146  0.0336 -0.3041
 2194TIP3    H227998   4.443   2.698   1.289 -1.4599  0.4657 -0.0115
 2195TIP3   OH227999   1.040   2.903  12.802  0.1905 -0.4632 -0.3635
 2195TIP3    H128000   1.071   2.906  12.893 -0.2280  0.2847 -0.2314
 2195TIP3    H228001   1.116   2.927  12.750  0.8318 -2.3294 -0.3305
 2196TIP3   OH228002   2.310   1.258  10.799  0.2031 -0.4526  0.2304
 2196TIP3    H128003   2.230   1.227  10.842 -0.0606 -3.2687 -1.9496
 2196TIP3    H228004   2.365   1.291  10.870 -1.9868 -0.5479  2.0602
 2197TIP3   OH228005   1.437   4.959   1.640  0.0102 -0.5701  0.0765
 2197TIP3    H128006   1.422   4.977   1.547 -0.9451 -2.9327 -0.2852
 2197TIP3    H228007   1.513   5.012   1.662 -0.5003  1.0129 -1.7132
 2198TIP3   OH228008   3.549   1.526  12.063 -0.0649 -0.3238  0.4236
 2198TIP3    H128009   3.542   1.465  11.989 -1.7449 -0.1057  0.3642
 2198TIP3    H228010   3.509   1.607  12.032 -0.4492 -0.1078  1.4405
 2199TIP3   OH228011   6.065   1.882  14.564  0.2437  0.0669 -0.7380
 2199TIP3    H128012   6.155   1.905  14.540  1.8473 -3.9343  0.6076
 2199TIP3    H228013   6.050   1.798  14.522 -1.6249 -0.9040  1.6389
 2200TIP3   OH228014   4.852   4.892   4.452  0.0276  0.4439  0.6666
 2200TIP3    H128015   4.798   4.890   4.531  1.0563  1.5926  1.4312
 2200TIP3    H228016   4.814   4.961   4.398 -1.1065 -0.8069 -0.2067
 2201TIP3   OH228017   0.813   1.395  14.441 -0.4563  0.0136  0.4711
 2201TIP3    H128018   0.834   1.488  14.451 -0.6747 -0.0125  1.2002
 2201TIP3    H228019   0.719   1.390  14.454 -1.0520  0.1359 -2.8847
 2202TIP3   OH228020   5.970   1.751   0.691 -0.1447 -0.3560 -0.6023
 2202TIP3    H128021   6.048   1.709   0.726  0.5428 -0.6964 -2.4312
 2202TIP3    H228022   5.968   1.837   0.733  0.8202 -0.6082 -0.0113
 2203TIP3   OH228023   1.712   6.727  10.766  0.2748 -0.6444 -0.0170
 2203TIP3    H128024   1.709   6.770  10.680  1.5227  0.8574  0.6506
 2203TIP3    H228025   1.621   6.722  10.793  0.0303  0.8692 -0.4892
 2204TIP3   OH228026   3.212   2.223   0.051  0.4453 -0.2687 -0.3105
 2204TIP3    H128027   3.189   2.314   0.067 -0.0695 -0.4409 -0.0321
 2204TIP3    H228028   3.228   2.218  -0.043  0.8590  0.1868 -0.2668
 2205TIP3   OH228029   0.050   5.283  13.679 -0.5443  0.3610 -0.1846
 2205TIP3    H128030   0.055   5.203  13.626  0.5268  0.8139 -0.8051
 2205TIP3    H228031   0.082   5.352  13.621 -2.4915  1.4643 -0.0323
 2206TIP3   OH228032   3.820   1.388  13.834 -0.1702  0.2302  0.2485
 2206TIP3    H128033   3.901   1.410  13.789 -1.7737  1.9376 -2.0586
 2206TIP3    H228034   3.804   1.296  13.811  0.3135  0.3600 -0.6731
 2207TIP3   OH228035   1.757   2.938  16.614  0.1063  0.4133 -0.0701
 2207TIP3    H128036   1.835   2.922  16.666  1.0059  0.4157 -1.3584
 2207TIP3    H228037   1.749   2.861  16.558  1.9044  2.2653 -3.1784
 2208TIP3   OH228038   1.897   3.023   0.894  0.3031  0.2651  0.0010
 2208TIP3    H128039   1.848   3.049   0.815 -1.1327 -0.7033  0.5394
 2208TIP3    H228040   1.976   2.982   0.860 -0.4756 -0.4968 -0.9738
 2209TIP3   OH228041   1.936   1.077  15.376  0.2055 -1.0293 -0.0975
 2209TIP3    H128042   1.985   1.086  15.457 -0.4456 -0.9257  0.2915
 2209TIP3    H228043   1.957   1.156  15.326  0.4269 -0.9821  0.0676
 2210TIP3   OH228044   4.009   2.332  15.443 -0.1988 -0.1793 -0.0028
 2210TIP3    H128045   3.973   2.384  15.515  0.7046  0.6415 -0.1070
 2210TIP3    H228046   4.096   2.306  15.475  0.0206 -0.1970 -0.6069
 2211TIP3   OH228047   3.868   5.023  15.740  0.1989 -0.7722  0.1651
 2211TIP3    H128048   3.871   5.074  15.821  0.4226 -0.8262  0.1908
 2211TIP3    H228049   3.778   4.991  15.735  0.3849 -1.4130  0.7918
 2212TIP3   OH228050   2.371   5.948   2.652 -0.4298  0.4876 -0.3714
 2212TIP3    H128051   2.426   6.003   2.596 -1.1433  2.3451  0.6706
 2212TIP3    H228052   2.330   6.009   2.713  1.9120 -1.5463  3.6304
 2213TIP3   OH228053   0.878   3.158   5.378  0.1779  0.0097  0.1798
 2213TIP3    H128054   0.796   3.113   5.356  0.7863 -1.3248  0.5051
 2213TIP3    H228055   0.850   3.234   5.429 -0.8341 -1.0487  1.3135
 2214TIP3   OH228056   6.325   0.822   0.625  0.1264  0.6745  0.3741
 2214TIP3    H128057   6.267   0.772   0.683  0.0569  0.7058  0.3326
 2214TIP3    H228058   6.298   0.913   0.638 -1.0863  0.5525 -1.0038
 2215TIP3   OH228059   3.366   1.783   2.066 -0.3007  0.4343  0.5683
 2215TIP3    H128060   3.378   1.699   2.110 -0.7799 -0.2121 -0.4929
 2215TIP3    H228061   3.412   1.773   1.982  1.6853  2.0753  1.3877
 2216TIP3   OH228062   5.998   0.150  16.587 -0.7684  0.3384 -0.0872
 2216TIP3    H128063   5.902   0.150  16.584 -0.7847 -1.2692 -2.3354
 2216TIP3    H228064   6.024   0.230  16.542 -0.9873  1.3133  1.4330
 2217TIP3   OH228065   3.220   3.825  16.931  0.1499 -0.1556  0.1369
 2217TIP3    H128066   3.189   3.915  16.918 -2.0571 -0.5210  2.1592
 2217TIP3    H228067   3.299   3.833  16.984 -0.8446  0.6095  1.5791
 2218TIP3   OH228068   2.016   1.497   6.480 -0.2434 -0.5200  0.4803
 2218TIP3    H128069   2.076   1.428   6.452  0.7724 -0.0270  1.3460
 2218TIP3    H228070   2.073   1.570   6.504 -1.0422 -0.5579  2.8485
 2219TIP3   OH228071   3.715   0.892  12.268  0.3685 -0.0815 -0.2270
 2219TIP3    H128072   3.694   0.863  12.179 -0.4334 -0.3771  0.0462
 2219TIP3    H228073   3.630   0.905  12.310  0.7309 -0.4689  0.6668
 2220TIP3   OH228074   5.489   6.457   3.189 -0.3132 -0.0075 -0.3802
 2220TIP3    H128075   5.480   6.412   3.105  1.2227  1.4942 -1.4227
 2220TIP3    H228076   5.578   6.494   3.187  0.3686 -1.1237  2.5317
 2221TIP3   OH228077   6.281   0.202  13.692  0.4116 -0.1807 -0.2030
 2221TIP3    H128078   6.205   0.191  13.635 -1.2694  0.8662  1.7126
 2221TIP3    H228079   6.277   0.128  13.752  0.7146  0.0432  0.0985
 2222TIP3   OH228080   1.312   2.444   2.749 -0.1389  0.2245 -0.0992
 2222TIP3    H128081   1.315   2.507   2.821  0.5211  0.8362 -0.6406
 2222TIP3    H228082   1.226   2.403   2.756 -0.6634  1.3287  0.1450
 2223TIP3   OH228083   6.685   6.534  14.254 -0.0347 -0.6615 -0.1513
 2223TIP3    H128084   6.777   6.510  14.237  0.8527  1.1845  1.6530
 2223TIP3    H228085   6.690   6.600  14.323 -2.7604 -0.5472  0.0256
 2224TIP3   OH228086   4.719   1.073   1.539 -0.1140  0.2101  0.5776
 2224TIP3    H128087   4.702   1.082   1.633 -0.6026  0.1858  0.4934
 2224TIP3    H228088   4.645   1.022   1.506  0.3492 -0.2803  0.2781
 2225TIP3   OH228089   3.254   3.768   2.184  0.6460  0.3966 -0.2428
 2225TIP3    H128090   3.281   3.858   2.203  0.3786  0.6168 -0.8881
 2225TIP3    H228091   3.159   3.769   2.195  0.6053  0.2753 -0.5855
 2226TIP3   OH228092   1.786   3.729  10.461 -0.4977  0.1921  0.1434
 2226TIP3    H128093   1.819   3.676  10.388 -0.4337 -0.1362  0.4092
 2226TIP3    H228094   1.803   3.676  10.539  1.1401  1.3211  0.6029
 2227TIP3   OH228095   6.614   4.829   3.824 -0.6238 -0.0729  0.0951
 2227TIP3    H128096   6.611   4.924   3.821 -0.0173 -0.0637 -2.3616
 2227TIP3    H228097   6.523   4.802   3.814 -0.8077  0.2266  0.8806
 2228TIP3   OH228098   3.411   0.408   6.688 -0.3559  0.0810 -0.5603
 2228TIP3    H128099   3.500   0.406   6.723 -1.1155 -0.4044  1.4797
 2228TIP3    H228100   3.385   0.500   6.695 -0.4293  0.0224 -0.0127
 2229TIP3   OH228101   1.144   1.219   0.061 -0.0515  0.5553 -0.1785
 2229TIP3    H128102   1.201   1.255  -0.007 -0.1172  0.5005 -0.2628
 2229TIP3    H228103   1.080   1.288   0.078 -1.1321 -0.0810 -1.4390
 2230TIP3   OH228104   5.626   4.667  14.820 -0.2254 -0.5503 -0.2482
 2230TIP3    H128105   5.693   4.672  14.752  0.8349 -0.7377  0.7492
 2230TIP3    H228106   5.566   4.739  14.800  0.5564 -0.0545 -0.8739
 2231TIP3   OH228107   6.093   4.316  15.514  0.3542 -0.2470  0.3372
 2231TIP3    H128108   6.167   4.377  15.505  0.1118  0.0993  0.6358
 2231TIP3    H228109   6.027   4.350  15.453  0.5971 -0.8007 -0.2405
 2232TIP3   OH228110   4.511   1.127   0.228 -0.3649  0.4521  0.2248
 2232TIP3    H128111   4.455   1.196   0.191  0.1915 -0.0822 -1.6998
 2232TIP3    H228112   4.593   1.133   0.179 -0.2625 -1.4981  0.0717
 2233TIP3   OH228113   4.366   3.058  15.317  1.2373 -0.2150  0.0929
 2233TIP3    H128114   4.449   3.065  15.364  0.5607 -0.2762  1.3483
 2233TIP3    H228115   4.309   3.010  15.376  0.0518  0.5668 -0.3698
 2234TIP3   OH228116   0.095   1.921   1.638 -0.2953 -0.2530  0.3065
 2234TIP3    H128117   0.056   1.958   1.560  0.8780 -0.0645 -0.2213
 2234TIP3    H228118   0.026   1.867   1.677 -0.8702 -0.4241 -0.9050
 2235TIP3   OH228119   1.562   4.659  13.551 -0.8271  0.7156 -0.4201
 2235TIP3    H128120   1.539   4.748  13.525 -0.2039  1.1509  0.4595
 2235TIP3    H228121   1.479   4.611  13.546 -1.7242  1.9222  1.4102
 2236TIP3   OH228122   5.987   2.775   2.649  1.1382  0.2961 -0.0538
 2236TIP3    H128123   5.937   2.723   2.712 -1.2131  2.4083 -0.0307
 2236TIP3    H228124   5.976   2.729   2.566  0.2715  0.0152  0.2095
 2237TIP3   OH228125   1.471   3.037  12.030  0.2835  0.6694 -0.1717
 2237TIP3    H128126   1.398   3.026  12.091 -1.0159 -1.6096 -1.9727
 2237TIP3    H228127   1.432   3.079  11.953  0.7961 -0.5668 -1.1530
 2238TIP3   OH228128   3.879   4.442   3.666  0.1159  0.1784  0.5438
 2238TIP3    H128129   3.921   4.524   3.638 -1.0278  0.1471 -1.4738
 2238TIP3    H228130   3.788   4.466   3.682 -0.1725 -0.6267  0.1768
 2239TIP3   OH228131   0.819   4.981  14.174 -0.3093  0.2036 -0.3456
 2239TIP3    H128132   0.779   5.068  14.184  0.5411  0.3816  2.6279
 2239TIP3    H228133   0.913   4.999  14.167 -0.0354 -0.4468  1.2473
 2240TIP3   OH228134   0.527   3.686  16.500  0.3694 -0.6216  0.3027
 2240TIP3    H128135   0.542   3.591  16.494 -1.1828 -0.8142 -1.5962
 2240TIP3    H228136   0.469   3.705  16.426 -0.6180  1.5715  1.5682
 2241TIP3   OH228137   5.551   2.677   0.505  0.0867 -0.1579 -0.2105
 2241TIP3    H128138   5.561   2.735   0.429 -1.0314 -0.5319 -0.6511
 2241TIP3    H228139   5.619   2.707   0.566  1.1485  0.0188 -1.4184
 2242TIP3   OH228140   3.674   0.378   2.180  0.1945 -0.6246 -0.3818
 2242TIP3    H128141   3.676   0.311   2.249  1.7718  0.0152  0.2471
 2242TIP3    H228142   3.686   0.461   2.227 -0.6099  0.0116 -1.2596
 2243TIP3   OH228143   0.077   3.043  15.765  0.2554  0.4076 -0.2867
 2243TIP3    H128144   0.048   3.116  15.820  2.1430  0.6838  0.4308
 2243TIP3    H228145   0.084   2.969  15.825  1.3692  0.4582 -0.3304
 2244TIP3   OH228146   4.710   5.727   1.939  0.8950 -0.9679 -0.8328
 2244TIP3    H128147   4.648   5.769   1.999  1.6888  1.5580 -1.6466
 2244TIP3    H228148   4.655   5.677   1.879 -0.4014  1.0155 -1.3938
 2245TIP3   OH228149   5.816   5.219  11.554 -0.2404 -0.3013 -0.3488
 2245TIP3    H128150   5.810   5.129  11.585  2.5223 -0.2074  0.6840
 2245TIP3    H228151   5.835   5.211  11.461  3.1390 -0.9844  0.2822
 2246TIP3   OH228152   2.013   2.319  15.707  0.9093 -0.2553 -0.2364
 2246TIP3    H128153   2.053   2.268  15.777 -0.8750  2.3892  2.9711
 2246TIP3    H228154   2.088   2.346  15.653  2.8523  0.0659  2.3873
 2247TIP3   OH228155   2.395   2.259   3.100 -0.1819  0.0278 -0.0493
 2247TIP3    H128156   2.308   2.286   3.071  0.0748 -1.1295 -2.0538
 2247TIP3    H228157   2.447   2.339   3.095 -0.6396  0.2831 -0.8862
 2248TIP3   OH228158   1.028   1.684   1.689 -0.8352  0.4252  0.5571
 2248TIP3    H128159   0.933   1.695   1.682 -0.5548  3.6110  0.2509
 2248TIP3    H228160   1.064   1.749   1.630  1.5942 -0.8711  0.4886
 2249TIP3   OH228161   4.440   1.623  16.429  0.1028 -0.1177  0.2482
 2249TIP3    H128162   4.496   1.690  16.391 -0.9476  0.8689  0.3991
 2249TIP3    H228163   4.483   1.540  16.407  2.5925  0.6313  1.9206
 2250TIP3   OH228164   5.705   6.294  15.022  0.2068 -0.0117  0.2041
 2250TIP3    H128165   5.761   6.235  15.072 -1.2130  0.5452  2.6155
 2250TIP3    H228166   5.639   6.237  14.982  1.1964 -0.4352 -0.8643
 2251TIP3   OH228167   3.880   3.176   1.963 -0.1696 -0.4323 -0.1488
 2251TIP3    H128168   3.952   3.129   2.005 -0.3849 -0.6686 -0.0401
 2251TIP3    H228169   3.840   3.227   2.033  1.5067  1.7686 -0.7095
 2252TIP3   OH228170   3.378   3.932  17.139 -0.3397 -0.2917 -0.5572
 2252TIP3    H128171   3.307   3.875  17.170 -0.1322 -0.1299  0.2519
 2252TIP3    H228172   3.452   3.911  17.196 -0.3683  1.0402  0.0122
 2253TIP3   OH228173   2.778   6.056  17.024  0.1065 -0.2695  0.8971
 2253TIP3    H128174   2.684   6.073  17.029 -0.4162 -2.2318 -1.0297
 2253TIP3    H228175   2.804   6.090  16.939  1.4880  1.4509  1.9267
 2254TIP3   OH228176   3.334   1.482   1.945 -0.8201 -0.1969  0.3007
 2254TIP3    H128177   3.395   1.410   1.962  0.2474  0.7918  0.7842
 2254TIP3    H228178   3.364   1.520   1.862 -0.7077  0.3552  0.5905
 2255TIP3   OH228179   2.777   0.141  16.229 -0.2814  0.0476 -0.0974
 2255TIP3    H128180   2.824   0.224  16.228 -1.0966  0.5289 -0.1269
 2255TIP3    H228181   2.782   0.111  16.320 -1.5112  1.0527  0.3315
 2256TIP3   OH228182   2.838   2.505   0.378  0.2306 -0.2951  0.5299
 2256TIP3    H128183   2.853   2.598   0.361  1.9309 -0.2467  2.0422
 2256TIP3    H228184   2.880   2.460   0.305  2.0075  0.0703  1.2836
 2257TIP3   OH228185   3.111   0.653   1.830  0.0971 -0.6379  0.4882
 2257TIP3    H128186   3.122   0.707   1.909 -0.6927  1.7067 -0.8958
 2257TIP3    H228187   3.200   0.638   1.800  0.3432  0.9155  0.3198
 2258TIP3   OH228188   2.294   5.643  11.995 -0.0353  0.5617  0.4021
 2258TIP3    H128189   2.284   5.670  11.904 -0.8724  2.1699  0.9265
 2258TIP3    H228190   2.340   5.716  12.037  1.3973 -0.6502  1.0515
 2259TIP3   OH228191   0.439   1.527  10.874 -0.0072  0.1612  0.4282
 2259TIP3    H128192   0.459   1.434  10.863 -0.0198  0.0731  1.1264
 2259TIP3    H228193   0.477   1.569  10.797  1.4093 -0.2136  0.9014
 2260TIP3   OH228194   0.907   3.749  15.255 -0.3939  0.6832  0.3933
 2260TIP3    H128195   0.873   3.660  15.253 -1.8283  1.1778  0.9347
 2260TIP3    H228196   0.933   3.768  15.165  1.1558 -0.7076  0.5186
 2261TIP3   OH228197   0.342   0.822  14.242  0.1065 -0.1623  0.1021
 2261TIP3    H128198   0.385   0.852  14.162  2.8379 -1.5441  0.9266
 2261TIP3    H228199   0.309   0.903  14.282  1.1554  0.8934 -1.0644
 2262TIP3   OH228200   5.107   3.942  14.879 -0.0020 -0.2469  0.5934
 2262TIP3    H128201   5.172   3.976  14.941  0.1674 -0.8672  0.7559
 2262TIP3    H228202   5.087   3.854  14.910  2.2018 -1.7324 -1.7554
 2263TIP3   OH228203   5.340   5.394   4.330 -0.4026 -0.4322  0.5508
 2263TIP3    H128204   5.411   5.407   4.393  0.6570 -4.2469  0.3897
 2263TIP3    H228205   5.380   5.410   4.245  0.2727 -2.2251  0.4852
 2264TIP3   OH228206   6.336   5.956   0.131 -0.3929  0.1272 -0.1688
 2264TIP3    H128207   6.367   5.920   0.048 -1.2230  0.6016 -0.6989
 2264TIP3    H228208   6.379   6.041   0.137  3.3560 -1.6545  2.1474
 2265TIP3   OH228209   6.159   2.039   5.409 -0.5350  0.4525 -0.0414
 2265TIP3    H128210   6.089   2.038   5.475 -0.2385 -1.6594  0.3091
 2265TIP3    H228211   6.208   1.959   5.425 -0.3460 -0.0489 -2.7416
 2266TIP3   OH228212   1.397   0.962  12.979  0.0380  0.6363  0.0991
 2266TIP3    H128213   1.417   0.919  13.062 -0.7619  0.3496  0.1592
 2266TIP3    H228214   1.373   1.052  13.004 -0.1027  0.5790  0.1751
 2267TIP3   OH228215   2.701   3.148   1.662 -0.0519 -0.0881  0.3459
 2267TIP3    H128216   2.783   3.134   1.708 -1.3879 -0.9243  2.6417
 2267TIP3    H228217   2.663   3.226   1.703 -0.4153  0.2909 -0.6790
 2268TIP3   OH228218   2.937   2.539   5.938 -0.1128 -0.3339 -0.4495
 2268TIP3    H128219   2.965   2.623   5.901 -3.9886  1.7462  0.7860
 2268TIP3    H228220   2.967   2.543   6.029 -1.9912  0.7583  0.1779
 2269TIP3   OH228221   6.648   6.214  16.962 -0.0222  0.2155 -0.2547
 2269TIP3    H128222   6.561   6.247  16.941  0.6538  2.4258  0.1139
 2269TIP3    H228223   6.657   6.134  16.910 -1.7457  0.6610 -1.3259
 2270TIP3   OH228224   3.254   2.256  12.036  0.2000  0.0855  0.1497
 2270TIP3    H128225   3.237   2.181  11.979  1.1962  0.6119 -0.8827
 2270TIP3    H228226   3.176   2.262  12.091  0.8831 -2.8678  1.6470
 2271TIP3   OH228227   3.734   4.712   1.393  0.4228 -0.6939 -0.0044
 2271TIP3    H128228   3.750   4.806   1.402 -0.0509 -0.7228  1.5462
 2271TIP3    H228229   3.804   4.681   1.335  0.0939  0.7310 -1.2095
 2272TIP3   OH228230   5.273   1.658  12.473 -0.6263  0.2561 -0.3538
 2272TIP3    H128231   5.329   1.643  12.549  0.7712  0.4453 -1.2990
 2272TIP3    H228232   5.315   1.731  12.426 -1.0319 -0.3227 -1.6818
 2273TIP3   OH228233   6.382   4.908  13.769 -0.2188 -0.0347 -0.1600
 2273TIP3    H128234   6.311   4.845  13.765  0.0001 -0.3361  0.5536
 2273TIP3    H228235   6.446   4.877  13.705 -1.6028  1.3700 -2.3134
 2274TIP3   OH228236   2.659   0.301  15.123  0.4588 -0.0338  0.5482
 2274TIP3    H128237   2.711   0.380  15.138  0.4282  0.0777  0.0914
 2274TIP3    H228238   2.705   0.255  15.053 -0.9864  0.9499 -1.1291
 2275TIP3   OH228239   1.451   3.391   6.147  0.2904  0.7898  1.0400
 2275TIP3    H128240   1.547   3.387   6.140  0.2590  2.3952 -2.9521
 2275TIP3    H228241   1.435   3.476   6.189  0.5766  0.3853  1.9981
 2276TIP3   OH228242   1.569   5.171  16.921  0.1515  0.2749  0.3781
 2276TIP3    H128243   1.504   5.235  16.952 -0.8584 -1.4958  2.1024
 2276TIP3    H228244   1.518   5.109  16.869  1.4286  1.7793 -2.9591
 2277TIP3   OH228245   1.721   5.346  11.931  0.8124 -0.3614  0.0344
 2277TIP3    H128246   1.634   5.366  11.964  0.7256 -0.2663 -0.2454
 2277TIP3    H228247   1.780   5.365  12.004  0.7378  0.9675 -0.2396
 2278TIP3   OH228248   3.374   4.033   4.311  0.2024  0.4028 -0.0099
 2278TIP3    H128249   3.434   4.056   4.382 -2.7410  3.3865  1.7754
 2278TIP3    H228250   3.338   3.948   4.336 -0.6837  1.3458  2.0946
 2279TIP3   OH228251   2.457   6.561   3.576 -0.4300  0.0998 -0.0168
 2279TIP3    H128252   2.452   6.575   3.482 -2.3178  1.0881  0.1648
 2279TIP3    H228253   2.458   6.650   3.613 -1.1172 -0.2552  0.9082
 2280TIP3   OH228254   0.837   3.491   4.666 -0.2215  0.1975 -0.0509
 2280TIP3    H128255   0.780   3.422   4.634  1.2349 -1.6696  1.1594
 2280TIP3    H228256   0.925   3.453   4.664  0.6051  1.9102  0.9415
 2281TIP3   OH228257   5.635   5.822   0.531  0.0127  0.2027  0.1700
 2281TIP3    H128258   5.686   5.799   0.608 -2.3841 -2.0223  1.2372
 2281TIP3    H228259   5.560   5.869   0.565 -1.3500 -1.2694 -0.6591
 2282TIP3   OH228260   3.164   5.148   1.914 -0.0513  0.3714  0.3675
 2282TIP3    H128261   3.230   5.196   1.964  1.4490  0.0467 -1.1670
 2282TIP3    H228262   3.182   5.056   1.932 -0.5997  0.2907  0.5279
 2283TIP3   OH228263   6.717   6.231   5.861 -0.0981  0.4929 -0.1206
 2283TIP3    H128264   6.777   6.305   5.868  0.5712 -0.0041 -0.5194
 2283TIP3    H228265   6.669   6.247   5.780  0.8105 -0.0444 -0.7881
 2284TIP3   OH228266   0.037   0.916   5.995  0.3682 -0.1630 -0.7967
 2284TIP3    H128267   0.129   0.943   5.993  0.5515 -0.8212 -1.4150
 2284TIP3    H228268   0.010   0.930   6.086  1.3914 -1.0026 -0.3459
 2285TIP3   OH228269   4.806   5.231   5.796  0.3339  0.3753  0.4492
 2285TIP3    H128270   4.772   5.264   5.880 -2.1424 -0.0709 -0.2788
 2285TIP3    H228271   4.799   5.305   5.737 -0.0049  0.1014  0.1383
 2286TIP3   OH228272   0.129   0.887   0.553  0.3217 -0.1287  0.1661
 2286TIP3    H128273   0.206   0.880   0.609  0.1526 -2.2645  0.2287
 2286TIP3    H228274   0.164   0.890   0.464  0.5101 -0.1799  0.2383
 2287TIP3   OH228275   2.635   1.593  15.151  0.1525 -0.3869  0.7938
 2287TIP3    H128276   2.549   1.575  15.113  0.2072 -0.5822  0.7615
 2287TIP3    H228277   2.627   1.565  15.242 -0.4696  1.5156  1.3780
 2288TIP3   OH228278   0.138   6.639  11.334  0.2085  0.5405  0.1248
 2288TIP3    H128279   0.056   6.685  11.316  1.1874  2.4289  0.2914
 2288TIP3    H228280   0.193   6.656  11.257  0.1754 -1.4737 -0.4138
 2289TIP3   OH228281   0.409   6.602   0.094 -0.6890 -0.3128  0.1015
 2289TIP3    H128282   0.354   6.659   0.147 -0.9725  0.8801 -1.4333
 2289TIP3    H228283   0.349   6.558   0.034 -0.1691 -0.2221 -0.5032
 2290TIP3   OH228284   2.411   1.128  16.101  0.0409 -0.8827  0.1212
 2290TIP3    H128285   2.476   1.127  16.172  1.0219 -0.7612 -0.7495
 2290TIP3    H228286   2.463   1.122  16.021 -1.0753 -1.4030 -0.5814
 2291TIP3   OH228287   6.326   0.173  17.286  1.2547 -0.3937  0.1131
 2291TIP3    H128288   6.389   0.245  17.278 -0.5152  1.1447 -0.8413
 2291TIP3    H228289   6.273   0.196  17.363 -0.4266  0.3248 -1.1829
 2292TIP3   OH228290   1.904   0.843  14.906  0.1470 -0.3810  0.1246
 2292TIP3    H128291   1.931   0.786  14.834  1.4400  0.7830 -0.3532
 2292TIP3    H228292   1.867   0.783  14.971 -0.0394 -1.5747 -1.0336
 2293TIP3   OH228293   3.530   4.273  16.567 -0.1500 -0.9586 -0.3526
 2293TIP3    H128294   3.578   4.343  16.521 -0.9038 -0.6820 -0.7355
 2293TIP3    H228295   3.570   4.192  16.536  1.1079 -0.7046  0.5107
 2294TIP3   OH228296   6.694   1.336  14.658 -1.3414 -0.5064 -0.1531
 2294TIP3    H128297   6.639   1.269  14.699 -0.8711  0.2162  1.7258
 2294TIP3    H228298   6.690   1.411  14.717  1.5582 -0.3662  0.0072
 2295TIP3   OH228299   3.257   5.837   2.326  0.3828  0.5859  0.3586
 2295TIP3    H128300   3.317   5.814   2.254  1.9057  3.1951  0.6802
 2295TIP3    H228301   3.304   5.811   2.405 -0.1769  0.0413  0.5140
 2296TIP3   OH228302   2.757   2.118   1.781 -0.5014  0.3165 -0.2445
 2296TIP3    H128303   2.706   2.181   1.729 -3.2285 -0.3646  1.3764
 2296TIP3    H228304   2.800   2.171   1.848 -0.7947  0.7067 -0.3596
 2297TIP3   OH228305   0.510   2.128   3.368 -0.7288 -0.4262 -0.0796
 2297TIP3    H128306   0.587   2.175   3.337 -0.7570 -1.3709 -1.7040
 2297TIP3    H228307   0.541   2.076   3.442 -0.1943  0.4072  0.2944
 2298TIP3   OH228308   2.561   5.101  13.426  0.4615 -0.1059 -0.6331
 2298TIP3    H128309   2.563   5.006  13.422  0.1262 -0.1658  0.3221
 2298TIP3    H228310   2.596   5.130  13.341 -1.7311 -1.0588 -1.9365
 2299TIP3   OH228311   4.021   1.340   0.003  0.1698 -0.2489 -0.3011
 2299TIP3    H128312   3.956   1.393   0.050 -0.5989 -0.1028 -1.4636
 2299TIP3    H228313   4.105   1.374   0.031 -0.2972  0.8059 -0.1322
 2300TIP3   OH228314   6.424   6.561   6.334 -0.5395  0.1691  0.7466
 2300TIP3    H128315   6.348   6.515   6.368  0.0168 -0.9904  0.4942
 2300TIP3    H228316   6.498   6.526   6.384 -0.0959  0.7629  0.5227
 2301TIP3   OH228317   5.466   0.255   5.930 -0.0559 -0.0149 -0.4910
 2301TIP3    H128318   5.486   0.246   6.023 -1.8434  0.1247 -0.0668
 2301TIP3    H228319   5.551   0.247   5.887  0.7645 -0.4164  1.1177
 2302TIP3   OH228320   6.526   5.635  16.656  0.4871 -0.0964 -0.0424
 2302TIP3    H128321   6.462   5.706  16.658  0.2135 -0.3343 -0.3224
 2302TIP3    H228322   6.496   5.575  16.724 -0.7401 -1.1980 -1.5079
 2303TIP3   OH228323   0.513   1.494   2.470  0.1921  0.1437 -0.7230
 2303TIP3    H128324   0.606   1.486   2.447  0.0315 -1.5180 -0.9334
 2303TIP3    H228325   0.512   1.497   2.565  0.3806 -2.1914 -0.5888
 2304TIP3   OH228326   6.713   4.868  11.249 -0.1538  0.3470 -0.2112
 2304TIP3    H128327   6.628   4.873  11.204  0.3561 -0.6072 -1.3127
 2304TIP3    H228328   6.751   4.785  11.221  0.6958  0.2505  1.1180
 2305TIP3   OH228329   4.543   3.261   0.244  0.7521 -0.1703  0.4335
 2305TIP3    H128330   4.458   3.226   0.214  0.9484 -0.6583  0.4450
 2305TIP3    H228331   4.523   3.351   0.271 -0.2967 -1.0422  2.8677
 2306TIP3   OH228332   1.264   4.809   1.181 -0.5434  0.3008  0.0017
 2306TIP3    H128333   1.317   4.729   1.187 -0.4655  0.4059  0.8957
 2306TIP3    H228334   1.198   4.789   1.115 -0.9614 -0.7636  0.7117
 2307TIP3   OH228335   4.665   4.892  15.396 -0.1148 -0.2419 -0.5930
 2307TIP3    H128336   4.579   4.903  15.436  0.4299  1.7247  0.1527
 2307TIP3    H228337   4.701   4.814  15.438 -0.8534 -0.0825  0.3689
 2308TIP3   OH228338   0.159   0.879  11.445  0.4173  0.5336  0.6264
 2308TIP3    H128339   0.191   0.832  11.368  0.3778  1.0857  0.2720
 2308TIP3    H228340   0.239   0.902  11.494  0.4231 -0.1345  0.9449
 2309TIP3   OH228341   4.945   6.049   3.446  0.0737  0.2083 -0.1366
 2309TIP3    H128342   4.859   6.067   3.409 -0.5505 -1.4468  0.4565
 2309TIP3    H228343   4.968   5.962   3.414  1.6090  0.6804 -0.4020
 2310TIP3   OH228344   6.135   1.718  15.195  0.5031 -0.0174 -0.0597
 2310TIP3    H128345   6.046   1.752  15.207 -0.1438 -1.8561  0.8246
 2310TIP3    H228346   6.188   1.766  15.258 -0.2438 -0.1490  0.6885
 2311TIP3   OH228347   2.366   6.666   3.883  0.1171 -0.1193 -0.0154
 2311TIP3    H128348   2.461   6.671   3.867  0.0886 -1.2075 -0.6587
 2311TIP3    H228349   2.347   6.572   3.884 -1.2357  0.0817 -1.7013
 2312TIP3   OH228350   0.455   1.774  17.084 -0.1231  0.7185 -0.4657
 2312TIP3    H128351   0.547   1.795  17.102 -0.5105  0.7962  1.6834
 2312TIP3    H228352   0.441   1.690  17.127 -0.8714  0.3156 -1.4646
 2313TIP3   OH228353   2.957   0.392  11.007 -0.5002 -0.0090 -0.0310
 2313TIP3    H128354   2.932   0.479  10.974 -0.0155  0.2092  0.1730
 2313TIP3    H228355   2.946   0.399  11.102 -1.4358 -0.4889 -0.0915
 2314TIP3   OH228356   0.037   2.028  11.253  0.3965  1.0465 -0.7950
 2314TIP3    H128357  -0.037   2.038  11.312  0.3450  0.6102 -0.7769
 2314TIP3    H228358   0.018   1.947  11.204  2.0692 -0.5575  1.0163
 2315TIP3   OH228359   5.583   6.057  14.428  0.2738 -0.6993 -0.2899
 2315TIP3    H128360   5.662   6.111  14.435 -1.0896  1.5355 -1.0108
 2315TIP3    H228361   5.532   6.078  14.506 -0.0346 -1.4034 -0.2890
 2316TIP3   OH228362   6.466   2.216  16.147 -0.2641  0.0676 -0.0103
 2316TIP3    H128363   6.459   2.121  16.142 -2.1705  0.2324 -2.5517
 2316TIP3    H228364   6.560   2.233  16.150  0.2319 -1.8578 -2.0492
 2317TIP3   OH228365   6.316   3.446  11.415 -0.0940 -0.9077 -0.2760
 2317TIP3    H128366   6.251   3.385  11.380 -0.3967  0.0791 -1.5082
 2317TIP3    H228367   6.326   3.513  11.347 -0.0390  0.6209  1.1592
 2318TIP3   OH228368   4.324   4.293   4.272  0.3024  0.3386 -0.2587
 2318TIP3    H128369   4.416   4.320   4.270  1.0746 -2.0050  0.5510
 2318TIP3    H228370   4.326   4.198   4.265 -2.1523  0.2723 -1.2873
 2319TIP3   OH228371   2.746   0.287   1.993 -0.4157  0.0364  0.1296
 2319TIP3    H128372   2.745   0.301   1.898  0.0473 -0.0317  0.1116
 2319TIP3    H228373   2.726   0.373   2.030 -2.3031 -0.2743 -0.0386
 2320TIP3   OH228374   3.427   0.110  13.828  0.3999  0.7030  0.0063
 2320TIP3    H128375   3.494   0.178  13.823  1.1804 -0.0488 -0.0473
 2320TIP3    H228376   3.477   0.028  13.828 -0.4109  0.1541  2.0262
 2321TIP3   OH228377   4.148   2.070  16.616 -0.6434 -0.5987  0.0025
 2321TIP3    H128378   4.123   2.074  16.523  2.7866 -2.1392 -1.1784
 2321TIP3    H228379   4.115   1.985  16.646 -3.1465  0.5722  0.7602
 2322TIP3   OH228380   2.266   2.563  17.065 -0.3204 -0.5384  0.0986
 2322TIP3    H128381   2.273   2.532  16.975 -2.3864 -1.8087  0.3065
 2322TIP3    H228382   2.247   2.485  17.117  1.9205 -0.0223  1.8582
 2323TIP3   OH228383   0.335   5.594   4.291 -0.0871  0.4474  0.1322
 2323TIP3    H128384   0.279   5.666   4.320  0.8535  1.3352 -0.2261
 2323TIP3    H228385   0.387   5.630   4.220 -0.0887 -0.7938 -0.5325
 2324TIP3   OH228386   2.773   2.336  14.813 -0.0643  0.2969  0.1591
 2324TIP3    H128387   2.833   2.377  14.751 -0.4370 -0.0419 -0.4309
 2324TIP3    H228388   2.816   2.253  14.835 -1.0281 -0.6974 -1.4880
 2325TIP3   OH228389   0.550   4.112   6.220  0.5889  0.1541  0.0105
 2325TIP3    H128390   0.525   4.116   6.128 -1.9626 -0.4432  0.5725
 2325TIP3    H228391   0.534   4.021   6.245  0.1491  0.5538  1.2768
 2326TIP3   OH228392   0.649   6.694   2.336 -0.4595  0.5059 -0.3770
 2326TIP3    H128393   0.629   6.649   2.253  0.6117  1.4423 -1.1780
 2326TIP3    H228394   0.582   6.762   2.342 -0.3615  0.6290 -0.6358
 2327TIP3   OH228395   3.376   0.949   5.687  0.0632  0.1175  0.7179
 2327TIP3    H128396   3.364   0.854   5.695  1.1001 -0.1815 -0.9077
 2327TIP3    H228397   3.437   0.972   5.757  0.2998 -0.5213  0.7240
 2328TIP3   OH228398   1.288   5.830  13.378  0.9229 -0.4809 -0.5351
 2328TIP3    H128399   1.230   5.826  13.453  0.7345 -0.1346 -0.6617
 2328TIP3    H228400   1.250   5.769  13.315  0.4884  0.0161 -0.7609
 2329TIP3   OH228401   2.102   0.223  15.267  0.3389  0.0660 -0.3933
 2329TIP3    H128402   2.072   0.156  15.206  1.0697 -1.0049  0.3718
 2329TIP3    H228403   2.191   0.244  15.239  1.7214 -2.3190  1.6614
 2330TIP3   OH228404   4.870   2.880   6.115 -0.6480  0.6137 -0.2760
 2330TIP3    H128405   4.810   2.860   6.187  0.5749  0.1058  0.6515
 2330TIP3    H228406   4.853   2.812   6.050  0.0434 -0.5574  0.7118
 2331TIP3   OH228407   3.073   1.616   2.941 -0.0394 -0.2285 -0.1287
 2331TIP3    H128408   3.083   1.688   2.878  0.4436 -1.1495 -1.1324
 2331TIP3    H228409   2.985   1.628   2.977 -0.1570  0.5687 -0.6494
 2332TIP3   OH228410   2.563   5.498  10.997 -0.5517  0.3925 -0.3815
 2332TIP3    H128411   2.511   5.499  11.077  1.3019 -1.5113  0.9572
 2332TIP3    H228412   2.565   5.590  10.969 -1.7465  1.0254  1.4115
 2333TIP3   OH228413   6.018   4.586   1.710 -0.5550  0.1990  0.6514
 2333TIP3    H128414   5.958   4.567   1.782 -0.2845 -1.1745  0.5422
 2333TIP3    H228415   6.096   4.534   1.730 -0.2282  0.3037 -0.3071
 2334TIP3   OH228416   5.366   2.824  13.706 -0.0271  0.4690  0.0059
 2334TIP3    H128417   5.348   2.916  13.685  0.0934  0.4904 -0.0028
 2334TIP3    H228418   5.383   2.824  13.800  0.3375  0.5133 -0.0567
 2335TIP3   OH228419   0.984   3.293  11.912 -0.2169 -0.0514 -0.7349
 2335TIP3    H128420   0.918   3.342  11.960  0.3290  1.1169 -1.1449
 2335TIP3    H228421   1.019   3.355  11.849  2.2805 -0.1743  0.4068
 2336TIP3   OH228422   5.656   4.364  12.039 -0.3623  0.1920 -0.4927
 2336TIP3    H128423   5.671   4.270  12.048 -0.2267  0.0128 -2.2692
 2336TIP3    H228424   5.657   4.380  11.944 -1.6856  1.7675 -0.2989
 2337TIP3   OH228425   6.543   3.225   1.236  0.6567  0.0806 -0.2754
 2337TIP3    H128426   6.458   3.213   1.194  1.4680 -1.3133 -1.6352
 2337TIP3    H228427   6.592   3.147   1.211  1.7582  0.0150  1.9404
 2338TIP3   OH228428   0.716   5.285   2.893 -0.3391  0.1917  0.3953
 2338TIP3    H128429   0.767   5.237   2.959  1.0068  1.9622  0.7173
 2338TIP3    H228430   0.631   5.298   2.934  0.0419  0.1062  1.2422
 2339TIP3   OH228431   6.426   1.160   5.143  0.1733 -0.0640 -0.1179
 2339TIP3    H128432   6.457   1.079   5.184  2.8264  1.0807  0.2870
 2339TIP3    H228433   6.343   1.178   5.187  0.2717 -1.7570  0.8436
 2340TIP3   OH228434   5.076   5.670  16.472 -0.0045 -0.9285 -0.0462
 2340TIP3    H128435   5.170   5.667  16.490  0.6686  3.7647 -1.4155
 2340TIP3    H228436   5.038   5.708  16.552 -0.1488  0.4341 -0.7383
 2341TIP3   OH228437   2.947   5.704   3.211  0.6950 -0.2343 -0.6932
 2341TIP3    H128438   2.989   5.733   3.130 -1.2069  0.8116 -1.3506
 2341TIP3    H228439   2.878   5.644   3.183  1.5968 -1.8561  0.3669
 2342TIP3   OH228440   6.584   4.804   2.909  0.5165 -0.3787 -0.0116
 2342TIP3    H128441   6.572   4.761   2.994 -0.6216 -0.3471 -0.1422
 2342TIP3    H228442   6.560   4.895   2.925  1.4393 -0.1103 -0.1016
 2343TIP3   OH228443   3.745   6.666   0.786  0.2604 -0.3873  0.4135
 2343TIP3    H128444   3.839   6.662   0.771  0.3175 -0.3825  0.7664
 2343TIP3    H228445   3.734   6.640   0.878 -0.2582 -2.3016 -0.1420
 2344TIP3   OH228446   5.531   4.009   3.900 -0.2318  0.5081  0.0685
 2344TIP3    H128447   5.585   3.938   3.933  2.2327  1.0112 -2.5254
 2344TIP3    H228448   5.494   4.049   3.978  1.0110 -1.5322  1.8016
 2345TIP3   OH228449   0.562   4.659  17.319 -0.1290 -0.3839 -0.1586
 2345TIP3    H128450   0.542   4.566  17.303 -1.5282 -0.3735  1.2597
 2345TIP3    H228451   0.478   4.697  17.345  1.0316  0.5489  2.5116
 2346TIP3   OH228452   0.420   5.601   1.474 -0.3920  0.2595  0.0569
 2346TIP3    H128453   0.507   5.607   1.436  1.0004  0.2613  2.9539
 2346TIP3    H228454   0.435   5.605   1.569 -3.2151 -2.9573  0.8591
 2347TIP3   OH228455   6.001   3.086   4.815  0.0272  0.3064  0.5442
 2347TIP3    H128456   5.943   3.012   4.795  1.3737 -1.0352  1.3753
 2347TIP3    H228457   5.957   3.132   4.887 -0.0537 -0.6416  1.1152
 2348TIP3   OH228458   6.669   2.533   2.027 -0.1505 -0.4920  0.0077
 2348TIP3    H128459   6.671   2.455   2.081  1.2310 -0.6889 -0.2800
 2348TIP3    H228460   6.761   2.553   2.011 -0.4908  0.8590 -0.4051
 2349TIP3   OH228461   2.960   5.019   4.843  0.1251  0.0094 -0.0057
 2349TIP3    H128462   2.938   4.983   4.757 -0.1235  1.4886 -0.5893
 2349TIP3    H228463   2.876   5.028   4.887  0.2893 -1.1725  0.6053
 2350TIP3   OH228464   6.555   6.149   0.118  0.0094  0.0267 -0.3974
 2350TIP3    H128465   6.589   6.228   0.159 -0.6821 -0.8726  2.1084
 2350TIP3    H228466   6.586   6.153   0.027  0.3361  2.9151 -0.2459
 2351TIP3   OH228467   6.730   1.833   4.495 -0.4164  0.0904  0.4148
 2351TIP3    H128468   6.759   1.752   4.453  1.3999 -1.0961  3.6424
 2351TIP3    H228469   6.635   1.833   4.483 -0.2296 -1.3043 -1.5783
 2352TIP3   OH228470   3.171   0.858  15.006  0.5236 -0.3891  0.3572
 2352TIP3    H128471   3.090   0.808  14.994  1.7892 -2.1716 -1.5425
 2352TIP3    H228472   3.209   0.823  15.087 -0.0188 -0.3976  0.6118
 2353TIP3   OH228473   5.855   4.657  16.846  0.0136  0.6307  0.1106
 2353TIP3    H128474   5.939   4.665  16.801 -0.1705  0.7146 -0.2203
 2353TIP3    H228475   5.855   4.730  16.909  0.3221  0.4388  0.3365
 2354TIP3   OH228476   3.438   4.749   5.954 -0.5182  0.4863 -0.0990
 2354TIP3    H128477   3.443   4.724   6.046 -1.1048  0.5720 -0.0399
 2354TIP3    H228478   3.495   4.826   5.947 -1.2365  1.0697  0.4017
 2355TIP3   OH228479   5.421   3.140   1.342 -0.6546 -0.2472 -0.2257
 2355TIP3    H128480   5.422   3.048   1.315 -0.5159 -0.3565  0.1470
 2355TIP3    H228481   5.362   3.142   1.417  2.1198 -0.7061  2.1297
 2356TIP3   OH228482   2.361   1.137   6.245 -0.2563 -0.0574  0.6308
 2356TIP3    H128483   2.375   1.079   6.319 -1.2321 -1.7969 -0.4823
 2356TIP3    H228484   2.424   1.107   6.179  1.1629  1.9756  0.9661
 2357TIP3   OH228485   0.080   1.262   1.061 -0.2514 -0.6087  0.4302
 2357TIP3    H128486   0.117   1.306   0.984  0.3161 -1.0265  0.4515
 2357TIP3    H228487   0.106   1.316   1.135 -1.4902  0.2321  0.2674
 2358TIP3   OH228488   4.991   4.109  10.919 -0.5835  0.5366  0.1931
 2358TIP3    H128489   5.000   4.185  10.862 -0.2284  0.3102 -0.0613
 2358TIP3    H228490   4.959   4.039  10.862 -3.1363  1.0587  0.8918
 2359TIP3   OH228491   0.036   4.738   0.125 -0.4254  0.8751 -0.0127
 2359TIP3    H128492  -0.036   4.697   0.076 -0.1758  0.4379 -0.0078
 2359TIP3    H228493   0.012   4.831   0.126 -1.5654  0.5951  0.9665
 2360TIP3   OH228494   3.660   1.908  16.617  0.4049 -0.0071  0.5976
 2360TIP3    H128495   3.700   1.906  16.531 -1.8846 -1.1598 -0.5352
 2360TIP3    H228496   3.656   2.001  16.640 -0.6480  0.5067 -1.4521
 2361TIP3   OH228497   4.792   4.188   6.075  0.3171 -0.0026 -0.3802
 2361TIP3    H128498   4.883   4.165   6.058  0.4244  0.3005 -0.2216
 2361TIP3    H228499   4.794   4.236   6.158  0.2214  1.3178 -1.1020
 2362TIP3   OH228500   2.024   1.016  11.823 -0.2947 -0.0880 -0.2076
 2362TIP3    H128501   2.091   0.967  11.774 -1.1033 -2.1981  0.6800
 2362TIP3    H228502   2.074   1.083  11.871  1.2862 -1.8259  0.7203
 2363TIP3   OH228503   5.854   5.523  13.061  0.9717  0.1211 -0.1678
 2363TIP3    H128504   5.934   5.472  13.072 -0.5543 -2.2705  0.6888
 2363TIP3    H228505   5.812   5.520  13.147  0.1245  1.6542 -0.4951
 2364TIP3   OH228506   1.523   3.552   4.213  0.0238  0.3127  0.3646
 2364TIP3    H128507   1.596   3.613   4.208 -0.0854  0.5151  1.0157
 2364TIP3    H228508   1.517   3.531   4.307  0.0640 -0.7005  0.1472
 2365TIP3   OH228509   3.517   5.698   6.119 -0.2004 -0.8553  0.0374
 2365TIP3    H128510   3.609   5.698   6.145  0.2197  1.8111 -1.0955
 2365TIP3    H228511   3.515   5.744   6.035 -2.6909  0.3208  0.6213
 2366TIP3   OH228512   4.300   5.655   6.484  0.4152 -0.1114  0.4560
 2366TIP3    H128513   4.250   5.582   6.521  0.6868  0.0422  1.1202
 2366TIP3    H228514   4.233   5.722   6.466 -0.1054 -1.1305 -1.7616
 2367TIP3   OH228515   3.977   4.267   4.993 -0.0830 -0.8333 -0.2686
 2367TIP3    H128516   3.969   4.338   4.929 -1.5593 -2.1627 -1.6133
 2367TIP3    H228517   3.925   4.296   5.067 -0.4147 -0.3670 -0.6774
 2368TIP3   OH228518   5.562   1.766  16.094  0.0979 -0.3497  0.3043
 2368TIP3    H128519   5.482   1.806  16.061  1.3362  2.5725  0.5160
 2368TIP3    H228520   5.588   1.822  16.168  3.0518 -0.2499 -0.6757
 2369TIP3   OH228521   0.286   4.952   4.502  0.2245  0.2191 -0.1852
 2369TIP3    H128522   0.308   5.044   4.491 -2.2352  1.0295  0.9418
 2369TIP3    H228523   0.344   4.922   4.572  1.9556  0.4781 -1.4329
 2370TIP3   OH228524   5.993   6.744  14.992 -1.0778 -0.4869 -0.2101
 2370TIP3    H128525   5.925   6.801  15.028  0.0168  0.5956  0.1829
 2370TIP3    H228526   6.019   6.688  15.065 -1.2667 -0.6533 -0.2663
 2371TIP3   OH228527   1.131   1.782   2.073 -0.0341  0.1373 -0.2880
 2371TIP3    H128528   1.152   1.853   2.133 -1.3598  0.8006 -0.5537
 2371TIP3    H228529   1.193   1.713   2.094 -0.6099  0.2331  2.0407
 2372TIP3   OH228530   5.290   4.620  11.308  0.1088 -0.7049 -0.6217
 2372TIP3    H128531   5.251   4.593  11.391 -0.0852  1.8917  0.2057
 2372TIP3    H228532   5.215   4.630  11.249  0.0722 -0.9332 -0.6136
 2373TIP3   OH228533   4.114   5.742   5.940  0.1292 -0.3538 -0.3617
 2373TIP3    H128534   4.095   5.834   5.956  2.2555  0.0580  0.1735
 2373TIP3    H228535   4.037   5.695   5.972  0.0755  1.0883  1.8682
 2374TIP3   OH228536   3.801   0.431   3.424 -0.1230  0.2783 -0.7422
 2374TIP3    H128537   3.837   0.473   3.346 -0.7858  0.5989 -0.8806
 2374TIP3    H228538   3.844   0.346   3.427  3.4942  1.9384  1.1511
 2375TIP3   OH228539   0.229   1.626   4.950  0.0326  0.1061  0.2533
 2375TIP3    H128540   0.315   1.616   4.909  0.1246  2.3685 -0.2142
 2375TIP3    H228541   0.248   1.650   5.041 -0.0791  1.2318 -0.0121
 2376TIP3   OH228542   0.742   1.382  13.651  0.3735 -0.7756 -0.1884
 2376TIP3    H128543   0.788   1.330  13.585 -0.4801 -1.3177 -0.3751
 2376TIP3    H228544   0.681   1.320  13.692 -0.4627  0.0021 -0.2146
 2377TIP3   OH228545   1.305   0.730   5.236 -0.2700  0.4702 -0.2602
 2377TIP3    H128546   1.398   0.751   5.227 -0.2509  0.0234 -1.2647
 2377TIP3    H228547   1.259   0.802   5.194 -0.3437  0.2675 -0.5291
 2378TIP3   OH228548   3.099   4.154   0.648 -0.0360  0.2625  0.1223
 2378TIP3    H128549   3.100   4.131   0.555  1.3727 -0.1203  0.2097
 2378TIP3    H228550   3.118   4.072   0.693  1.1482  0.7896  0.6299
 2379TIP3   OH228551   5.615   5.883  13.844  0.4423 -0.4981 -0.1557
 2379TIP3    H128552   5.577   5.815  13.900 -0.1107  1.1426  1.5329
 2379TIP3    H228553   5.554   5.956  13.850  1.4200  0.4474 -1.3030
 2380TIP3   OH228554   2.400   6.590  16.129  0.3985 -0.2982  0.4822
 2380TIP3    H128555   2.351   6.513  16.099  0.1769 -0.0217  0.1361
 2380TIP3    H228556   2.334   6.658  16.140  0.7261  0.1348 -0.1697
 2381TIP3   OH228557   3.397   6.556  16.414  0.1175  0.9440 -0.7817
 2381TIP3    H128558   3.340   6.558  16.337 -1.6138  0.4412  0.4160
 2381TIP3    H228559   3.344   6.514  16.482  2.5941 -1.2769 -0.0633
 2382TIP3   OH228560   4.092   4.110   0.227  0.1737  0.2969 -0.0866
 2382TIP3    H128561   4.085   4.112   0.323  0.3416 -0.4438 -0.0563
 2382TIP3    H228562   4.179   4.146   0.209  1.4905 -2.4992  0.2309
 2383TIP3   OH228563   6.547   0.898   0.773  0.1495  0.7520  0.2652
 2383TIP3    H128564   6.473   0.849   0.739  1.6778 -1.1269 -0.5592
 2383TIP3    H228565   6.580   0.946   0.697  1.6203 -0.9097 -0.2105
 2384TIP3   OH228566   6.069   2.609  12.714 -0.1582  0.1309  0.1924
 2384TIP3    H128567   5.999   2.562  12.668  0.1010  0.2820 -0.3722
 2384TIP3    H228568   6.075   2.693  12.668 -1.1610  1.0684  1.7011
 2385TIP3   OH228569   4.035   1.356   1.417 -0.7840  0.1596  0.1633
 2385TIP3    H128570   3.982   1.362   1.338 -1.3220  0.2970  0.5262
 2385TIP3    H228571   4.048   1.446   1.445  1.0573  0.2503 -0.8212
 2386TIP3   OH228572   0.282   1.652   4.337  0.5705 -0.0493 -0.4608
 2386TIP3    H128573   0.293   1.604   4.420 -0.2664  0.0433 -0.2863
 2386TIP3    H228574   0.293   1.744   4.362  0.5812 -0.0401 -0.5004
 2387TIP3   OH228575   1.356   5.634   2.826  0.0864 -0.0138  0.3349
 2387TIP3    H128576   1.288   5.682   2.874  0.0545 -1.2746  1.5935
 2387TIP3    H228577   1.307   5.572   2.772  0.1919  0.0708  0.1427
 2388TIP3   OH228578   0.526   2.683  13.547  0.2737 -0.0565  0.1359
 2388TIP3    H128579   0.612   2.713  13.577  0.3370  0.6081 -0.7100
 2388TIP3    H228580   0.500   2.618  13.613  1.9461 -1.1567 -0.2240
 2389TIP3   OH228581   2.067   6.075  17.295  0.3027  0.3798  0.1934
 2389TIP3    H128582   2.078   5.981  17.310  0.1806  0.2325 -0.5891
 2389TIP3    H228583   2.071   6.114  17.382  3.4990 -0.0072  0.3325
 2390TIP3   OH228584   2.264   5.738   0.739  0.2887  0.1656 -0.3604
 2390TIP3    H128585   2.250   5.797   0.814 -0.3512 -0.8170  0.3193
 2390TIP3    H228586   2.327   5.784   0.684 -0.2537  1.5200  0.1106
 2391TIP3   OH228587   2.673   4.043  13.314  0.0750 -0.4900  0.1996
 2391TIP3    H128588   2.594   4.068  13.267  0.1839 -1.4712 -0.5467
 2391TIP3    H228589   2.745   4.070  13.257  0.3640  1.4922  1.4074
 2392TIP3   OH228590   0.361   0.815   0.734  0.4821  0.3246  0.0664
 2392TIP3    H128591   0.435   0.854   0.780  0.0657 -0.4791  1.5232
 2392TIP3    H228592   0.333   0.743   0.791 -0.2941 -0.5277 -1.3171
 2393TIP3   OH228593   4.969   6.733   5.208 -0.2622 -0.3691  0.2819
 2393TIP3    H128594   4.901   6.669   5.229 -0.6355  0.1419  0.6609
 2393TIP3    H228595   5.017   6.745   5.291  0.2442 -0.6675  0.0373
 2394TIP3   OH228596   0.105   0.073  11.569 -0.0405  0.2731 -0.0128
 2394TIP3    H128597   0.014   0.047  11.587  0.8691 -1.9815  1.8021
 2394TIP3    H228598   0.137   0.008  11.506  1.1464 -0.8574  1.6697
 2395TIP3   OH228599   2.391   0.790   1.526  0.2834 -0.5897  0.6276
 2395TIP3    H128600   2.476   0.824   1.496  0.2728 -0.9090  0.2287
 2395TIP3    H228601   2.403   0.695   1.530 -0.2124 -0.6851  0.0498
 2396TIP3   OH228602   2.624   4.241   3.948 -0.5043  0.4235  0.0217
 2396TIP3    H128603   2.618   4.236   4.043 -0.3907  0.9163  0.0603
 2396TIP3    H228604   2.696   4.184   3.925  0.6623  1.6836  0.4008
 2397TIP3   OH228605   0.710   6.059   0.286 -0.8540  0.1001  0.2334
 2397TIP3    H128606   0.739   6.094   0.370 -0.3120 -1.0756  0.5657
 2397TIP3    H228607   0.756   5.975   0.279  0.5546  0.9885 -2.0831
 2398TIP3   OH228608   0.443   5.200  11.849 -0.1189  0.2184  0.2943
 2398TIP3    H128609   0.400   5.232  11.928 -0.7345 -0.0610  0.0769
 2398TIP3    H228610   0.372   5.179  11.789  0.3209 -0.1685 -0.1067
 2399TIP3   OH228611   6.093   1.209   5.526  0.4388 -0.4417 -0.2623
 2399TIP3    H128612   6.004   1.189   5.556 -0.4846 -0.1650 -2.5761
 2399TIP3    H228613   6.149   1.148   5.574 -1.0593 -0.9788  0.8766
 2400TIP3   OH228614   5.522   1.651   5.891  0.3246 -0.0737  0.2664
 2400TIP3    H128615   5.461   1.670   5.962  0.3875 -0.0818  0.3231
 2400TIP3    H228616   5.597   1.708   5.907 -0.1619  0.8049 -0.4626
 2401TIP3   OH228617   1.021   3.713   3.492  0.0717 -0.2544 -0.4651
 2401TIP3    H128618   0.982   3.626   3.481  0.7828 -0.7198  0.6138
 2401TIP3    H228619   1.042   3.719   3.585  1.6931  0.3478 -0.8303
 2402TIP3   OH228620   0.457   0.863  16.742  0.0379 -0.1877  0.3307
 2402TIP3    H128621   0.552   0.864  16.729 -0.0055  1.4651 -0.0630
 2402TIP3    H228622   0.423   0.817  16.666  0.3608  1.9780 -1.2133
 2403TIP3   OH228623   3.134   3.094   6.039  0.3295  0.2532  0.0222
 2403TIP3    H128624   3.078   3.016   6.045 -0.9799  1.2746  1.7490
 2403TIP3    H228625   3.084   3.163   6.082  2.2751  1.6094  0.2137
 2404TIP3   OH228626   1.279   4.338   6.823 -0.2986  0.1319  0.5754
 2404TIP3    H128627   1.250   4.260   6.871  0.5718 -0.7424 -0.2772
 2404TIP3    H228628   1.288   4.406   6.891 -3.0453  0.1372  1.0749
 2405TIP3   OH228629   6.582   6.214   2.263  0.0260  0.0271  0.6641
 2405TIP3    H128630   6.626   6.148   2.317 -0.2302 -1.4771 -0.8724
 2405TIP3    H228631   6.584   6.177   2.174  0.1030  2.2304 -0.3102
 2406TIP3   OH228632   5.188   1.899  14.375  0.2130  0.0359  0.4211
 2406TIP3    H128633   5.260   1.842  14.400  1.3201  0.1087 -2.2893
 2406TIP3    H228634   5.141   1.850  14.307  0.0583  1.5141 -0.5968
 2407TIP3   OH228635   4.138   3.273  16.014  0.1543 -0.1917  0.1787
 2407TIP3    H128636   4.206   3.227  16.064 -0.5353 -0.3619  0.9898
 2407TIP3    H228637   4.069   3.207  16.002  0.4634 -0.2654 -1.3424
 2408TIP3   OH228638   2.474   6.201  10.708 -0.6955 -1.0711 -0.1394
 2408TIP3    H128639   2.535   6.145  10.660 -0.3893 -1.1299  0.3187
 2408TIP3    H228640   2.387   6.166  10.685 -0.5891 -0.7373 -1.1019
 2409TIP3   OH228641   4.809   2.383  14.429  0.9352 -0.0227 -0.3080
 2409TIP3    H128642   4.808   2.385  14.333  1.2862 -1.1474 -0.3492
 2409TIP3    H228643   4.782   2.471  14.455  1.8746  0.6326 -1.4380
 2410TIP3   OH228644   3.728   4.496  11.560 -0.3705  0.4639 -0.1249
 2410TIP3    H128645   3.667   4.562  11.592 -1.1197  0.3729 -1.2827
 2410TIP3    H228646   3.803   4.501  11.619  0.0665  3.0647 -0.7861
 2411TIP3   OH228647   3.765   1.132  12.732 -0.2961 -0.4848 -0.0746
 2411TIP3    H128648   3.747   1.196  12.800  1.6022  1.6823 -1.4538
 2411TIP3    H228649   3.699   1.064  12.745 -2.3049  1.6163  1.6264
 2412TIP3   OH228650   6.160   5.153   0.769  0.1709 -0.1050  0.1799
 2412TIP3    H128651   6.184   5.168   0.861  2.3259  1.3078 -0.5414
 2412TIP3    H228652   6.065   5.163   0.767  0.0170 -0.5871  2.3111
 2413TIP3   OH228653   6.282   5.355  14.263  0.0056 -0.1809  0.4522
 2413TIP3    H128654   6.332   5.406  14.326 -1.9386  2.1484  0.2288
 2413TIP3    H228655   6.248   5.419  14.200  0.0124 -2.1340 -1.7041
 2414TIP3   OH228656   2.103   4.937   5.079 -0.1909  0.1390  0.5906
 2414TIP3    H128657   2.171   5.005   5.075  0.3103 -0.2879  1.4144
 2414TIP3    H228658   2.100   4.900   4.991 -0.0923  0.8705  0.2759
 2415TIP3   OH228659   4.229   2.706   2.151 -0.1103  0.6859  0.2953
 2415TIP3    H128660   4.197   2.724   2.063  0.1582 -1.7351 -0.3702
 2415TIP3    H228661   4.322   2.686   2.139 -0.1845 -0.1406  1.0509
 2416TIP3   OH228662   0.240   0.522  10.797 -0.1583  0.1781 -0.0401
 2416TIP3    H128663   0.333   0.505  10.813  0.0806  0.0570 -1.3915
 2416TIP3    H228664   0.238   0.607  10.753 -0.6497  0.0209 -0.3330
 2417TIP3   OH228665   2.657   1.702  15.605 -0.8506 -0.0505 -0.6463
 2417TIP3    H128666   2.717   1.645  15.557 -1.2645 -0.0714 -1.1529
 2417TIP3    H228667   2.700   1.718  15.689 -0.4309 -0.5764 -0.7589
 2418TIP3   OH228668   0.292   2.470   2.058 -0.4611 -0.3954 -0.3139
 2418TIP3    H128669   0.388   2.476   2.058 -0.4951  0.3217  0.2321
 2418TIP3    H228670   0.263   2.557   2.085 -1.2793 -0.4977 -0.8319
 2419TIP3   OH228671   6.550   1.546  13.861 -0.0388  0.0824  0.0736
 2419TIP3    H128672   6.597   1.592  13.931  0.5284  1.3106 -1.0613
 2419TIP3    H228673   6.608   1.473  13.839 -0.8063 -1.0838  1.6884
 2420TIP3   OH228674   1.112   3.621   1.280 -0.5666 -0.3888  0.0716
 2420TIP3    H128675   1.169   3.691   1.311  0.1870 -0.3670 -1.2805
 2420TIP3    H228676   1.044   3.666   1.229  0.9397 -0.6752 -2.3552
 2421TIP3   OH228677   2.533   3.979   5.442  0.5543  0.0751 -0.4408
 2421TIP3    H128678   2.486   3.968   5.359  0.0312  1.4791 -0.3717
 2421TIP3    H228679   2.470   4.025   5.499  0.6919 -1.3738  0.9420
 2422TIP3   OH228680   3.122   1.084   3.874  0.0650  0.1361  0.1614
 2422TIP3    H128681   3.028   1.070   3.866 -0.4037  2.7007  0.4143
 2422TIP3    H228682   3.159   1.049   3.793 -1.4192  1.2783 -1.0602
 2423TIP3   OH228683   1.054   2.706   3.073  0.6881 -0.3118  0.4289
 2423TIP3    H128684   1.038   2.741   3.161  1.9868 -0.5645  0.7855
 2423TIP3    H228685   1.070   2.612   3.087  0.4957 -0.4344 -0.1332
 2424TIP3   OH228686   4.246   4.591   5.761 -0.6579  0.4584 -0.3529
 2424TIP3    H128687   4.228   4.684   5.771 -1.0728  0.4878 -1.3078
 2424TIP3    H228688   4.288   4.566   5.843 -0.0691  1.5979 -0.2909
 2425TIP3   OH228689   4.340   0.849  10.861  0.3925 -0.2766 -0.0414
 2425TIP3    H128690   4.283   0.885  10.793 -0.3910  0.6349  1.0464
 2425TIP3    H228691   4.409   0.914  10.872  0.5277 -0.4301  0.0209
 2426TIP3   OH228692   6.712   5.719  11.441 -0.1542  0.1068  0.7972
 2426TIP3    H128693   6.686   5.679  11.358 -1.8627 -1.0252  1.8029
 2426TIP3    H228694   6.778   5.783  11.417  0.3440 -1.0745 -1.2842
 2427TIP3   OH228695   4.040   4.088   3.469 -0.5117 -0.1472  0.1487
 2427TIP3    H128696   4.052   4.130   3.554 -0.2130  0.5384 -0.2228
 2427TIP3    H228697   4.039   4.161   3.407  2.1424 -0.7836 -0.7604
 2428TIP3   OH228698   6.309   3.216   2.023 -0.3703 -1.0939 -0.2283
 2428TIP3    H128699   6.231   3.207   2.077  0.1685 -1.9751  0.4413
 2428TIP3    H228700   6.303   3.145   1.959 -0.9112 -0.1702 -1.2247
 2429TIP3   OH228701   4.261   6.452   1.764  0.5531  0.0800  0.6514
 2429TIP3    H128702   4.228   6.527   1.715 -0.3669 -0.1135  0.9574
 2429TIP3    H228703   4.275   6.485   1.852 -0.2327 -0.1917  0.8878
 2430TIP3   OH228704   2.430   2.791  14.292 -0.2735 -0.4538 -0.4113
 2430TIP3    H128705   2.521   2.803  14.319 -0.5791  0.5684  0.1965
 2430TIP3    H228706   2.426   2.700  14.260  0.9488 -0.5073 -0.4401
 2431TIP3   OH228707   2.754   5.520  16.230  0.4249 -0.5565 -0.0285
 2431TIP3    H128708   2.839   5.486  16.260 -0.0914 -3.6248 -1.6484
 2431TIP3    H228709   2.693   5.447  16.241 -1.1866  0.3162 -2.2685
 2432TIP3   OH228710   6.405   5.866   3.296  0.7938 -0.1795 -0.0353
 2432TIP3    H128711   6.362   5.924   3.359 -0.2017  0.7989 -1.5667
 2432TIP3    H228712   6.481   5.833   3.344 -0.2902 -0.0397  1.9208
 2433TIP3   OH228713   0.227   1.923  12.655  0.4985 -0.0226  0.4998
 2433TIP3    H128714   0.205   1.833  12.633  0.8860  0.0765 -0.3528
 2433TIP3    H228715   0.320   1.920  12.677  0.4345  0.1160  0.7959
 2434TIP3   OH228716   3.994   2.089  15.009 -0.2452 -0.0405 -0.0287
 2434TIP3    H128717   3.918   2.100  15.065  0.7410 -2.5358  1.9971
 2434TIP3    H228718   4.049   2.165  15.028 -2.1113  1.8177 -1.5489
 2435TIP3   OH228719   4.022   0.160   3.096  0.3176  0.2380 -0.3907
 2435TIP3    H128720   4.044   0.133   3.006  1.7367  0.9198 -0.2664
 2435TIP3    H228721   3.988   0.080   3.136 -1.5253  0.2035 -1.8684
 2436TIP3   OH228722   6.550   1.759  15.961 -0.2316 -0.1391  0.2241
 2436TIP3    H128723   6.455   1.751  15.949 -0.3792  1.9725 -0.4505
 2436TIP3    H228724   6.579   1.670  15.980 -2.5720 -0.6124  2.2365
 2437TIP3   OH228725   3.314   4.788  15.856 -0.0006  0.0499 -0.3003
 2437TIP3    H128726   3.272   4.836  15.928 -1.0533 -0.2564 -0.6897
 2437TIP3    H228727   3.387   4.743  15.897 -2.0704 -2.2340  1.2093
 2438TIP3   OH228728   0.975   0.401  15.024 -0.3893 -0.1862  0.1004
 2438TIP3    H128729   1.029   0.354  15.087 -0.0419 -0.5693 -0.4749
 2438TIP3    H228730   0.971   0.344  14.947 -1.1613  0.0819 -0.0720
 2439TIP3   OH228731   2.436   3.947   3.876 -0.0068  0.4170 -0.6342
 2439TIP3    H128732   2.359   3.980   3.830  0.0527  1.8212  0.2402
 2439TIP3    H228733   2.410   3.859   3.906 -0.8524  0.4223 -1.3126
 2440TIP3   OH228734   6.722   4.735   5.472 -0.0430 -0.3461  0.4657
 2440TIP3    H128735   6.691   4.652   5.436  1.3078 -0.8486  0.4372
 2440TIP3    H228736   6.811   4.744   5.440  0.3050  0.4526  1.5931
 2441TIP3   OH228737   4.775   5.309   3.321 -0.0335 -0.0018 -0.3169
 2441TIP3    H128738   4.752   5.220   3.349  0.1094  0.0512 -0.0391
 2441TIP3    H228739   4.855   5.298   3.270  0.8343  0.1555  0.9850
 2442TIP3   OH228740   4.832   3.706  12.021  0.1166  0.1394 -0.3138
 2442TIP3    H128741   4.763   3.701  12.087 -0.6525  1.0593 -1.0148
 2442TIP3    H228742   4.816   3.789  11.976  1.2762  0.0422 -0.9494
 2443TIP3   OH228743   4.298   3.245   1.599 -0.0421  0.3336  0.1183
 2443TIP3    H128744   4.335   3.331   1.618 -0.1956  0.2744  0.7017
 2443TIP3    H228745   4.244   3.224   1.675  0.7242 -0.6861  0.4038
 2444TIP3   OH228746   0.139   5.025  14.120 -0.2686 -0.5887  0.1169
 2444TIP3    H128747   0.182   5.100  14.080 -0.7506 -1.1889 -1.6253
 2444TIP3    H228748   0.046   5.037  14.101 -0.3413 -1.6505 -0.3107
 2445TIP3   OH228749   2.982   2.467   3.228  0.1527  0.0910  0.6552
 2445TIP3    H128750   3.066   2.449   3.186 -1.1849  0.4627 -2.4559
 2445TIP3    H228751   2.926   2.394   3.203 -0.7169  0.2759  1.9570
 2446TIP3   OH228752   5.807   5.514  17.275  0.3063  0.4122 -1.0739
 2446TIP3    H128753   5.760   5.582  17.322  1.6197 -0.7499  2.2113
 2446TIP3    H228754   5.743   5.442  17.268  0.6155 -0.0654  0.6574
 2447TIP3   OH228755   0.689   3.035  10.730  0.7578 -0.2009 -0.3780
 2447TIP3    H128756   0.656   3.106  10.675  1.2502  0.3975  0.0707
 2447TIP3    H228757   0.698   2.961  10.671  1.6860  0.5486 -1.2183
 2448TIP3   OH228758   0.609   3.612  10.863  0.3027 -0.8672 -0.1037
 2448TIP3    H128759   0.548   3.601  10.790  0.8595  3.0787 -1.3579
 2448TIP3    H228760   0.560   3.664  10.927  1.3377 -0.2314  0.1990
 2449TIP3   OH228761   5.589   3.643   3.165 -0.3470  0.0280 -0.2269
 2449TIP3    H128762   5.520   3.625   3.229 -1.1520 -0.2984 -1.1626
 2449TIP3    H228763   5.647   3.705   3.209  0.6816 -2.2445  1.8866
 2450TIP3   OH228764   4.796   6.560   0.774  0.4615 -0.4589  0.2374
 2450TIP3    H128765   4.852   6.483   0.786  1.7599  0.7228  2.2219
 2450TIP3    H228766   4.711   6.533   0.810  0.7149 -1.1603  0.3344
 2451TIP3   OH228767   3.229   4.124   3.880 -0.3959 -0.5394 -0.2996
 2451TIP3    H128768   3.265   4.212   3.889  0.0509 -0.4684 -2.3025
 2451TIP3    H228769   3.226   4.090   3.970 -1.7261  1.9143  0.6633
 2452TIP3   OH228770   6.730   0.656  13.435  0.2511 -0.6992 -0.1274
 2452TIP3    H128771   6.724   0.588  13.502  2.9970 -0.2099  0.7387
 2452TIP3    H228772   6.787   0.619  13.368  2.5178  0.9540  0.7712
 2453TIP3   OH228773   1.710   6.118   5.938 -0.4563 -0.0151 -0.1444
 2453TIP3    H128774   1.772   6.107   6.010 -0.0260  0.8129 -0.3828
 2453TIP3    H228775   1.658   6.194   5.962  1.2392  1.7492 -1.7633
 2454TIP3   OH228776   2.361   4.803   1.660 -0.0342 -0.3747  0.1535
 2454TIP3    H128777   2.366   4.896   1.637  1.2515 -0.5201 -0.2556
 2454TIP3    H228778   2.332   4.759   1.580  2.3780 -0.6402 -0.6589
 2455TIP3   OH228779   5.344   4.536   3.887 -0.6410 -0.1498  0.3241
 2455TIP3    H128780   5.420   4.592   3.902 -1.1495  0.3661  1.0305
 2455TIP3    H228781   5.288   4.550   3.963 -0.3790 -2.3083  0.9725
 2456TIP3   OH228782   5.553   2.716   1.121 -0.5111  0.0527  0.1836
 2456TIP3    H128783   5.533   2.645   1.060  1.5504 -0.0804 -0.4145
 2456TIP3    H228784   5.582   2.671   1.201 -3.0047  0.2289  1.2922
 2457TIP3   OH228785   1.321   2.292   0.121  0.3852 -0.5208  0.4588
 2457TIP3    H128786   1.408   2.330   0.110 -0.2439  1.2998  1.3741
 2457TIP3    H228787   1.321   2.259   0.211 -0.6611  1.8706  1.4219
 2458TIP3   OH228788   5.364   1.949   0.560  0.3094  0.9024  0.8390
 2458TIP3    H128789   5.448   1.920   0.527  0.2326  0.1623  1.2799
 2458TIP3    H228790   5.330   2.007   0.491  0.5601  0.1253  0.0376
 2459TIP3   OH228791   2.875   3.711   2.188  1.0198 -0.6815  0.2006
 2459TIP3    H128792   2.787   3.694   2.221  1.1349  0.2717  1.0395
 2459TIP3    H228793   2.894   3.801   2.216  2.5149 -1.1099  0.6190
 2460TIP3   OH228794   4.334   4.432  16.092  0.2722 -0.1460  0.1062
 2460TIP3    H128795   4.397   4.471  16.152  0.5384 -0.7730  0.2339
 2460TIP3    H228796   4.256   4.487  16.101  0.4899  0.0878  0.6244
 2461TIP3   OH228797   4.354   1.741   1.725  0.4441  0.6827 -0.8665
 2461TIP3    H128798   4.305   1.747   1.643  0.1184  0.0642 -0.7231
 2461TIP3    H228799   4.288   1.751   1.793  0.2572 -1.6530 -0.6502
 2462TIP3   OH228800   5.255   0.818  14.163  0.1891 -0.3368  0.2053
 2462TIP3    H128801   5.209   0.803  14.245 -1.7424  1.5082 -0.4495
 2462TIP3    H228802   5.248   0.735  14.116 -0.2388 -0.8584  1.1667
 2463TIP3   OH228803   2.717   6.151  12.837  0.1335 -0.8823 -0.1663
 2463TIP3    H128804   2.786   6.213  12.816 -2.4388  1.8590 -1.1441
 2463TIP3    H228805   2.719   6.088  12.765  1.6508 -0.9769 -0.0896
 2464TIP3   OH228806   5.225   0.587   1.125 -0.1219  0.3912 -0.5224
 2464TIP3    H128807   5.152   0.551   1.176  0.7317  0.5158  0.8199
 2464TIP3    H228808   5.236   0.676   1.159  0.9391  0.2230 -0.4186
 2465TIP3   OH228809   2.562   2.310  13.644 -0.0711 -0.1807 -0.7020
 2465TIP3    H128810   2.647   2.354  13.639 -0.0018 -0.2355 -0.1056
 2465TIP3    H228811   2.500   2.380  13.665 -0.6224  0.3496 -3.6711
 2466TIP3   OH228812   2.199   0.077   6.473 -0.0628  0.6739  0.3380
 2466TIP3    H128813   2.158   0.048   6.392 -0.7823  3.8469 -0.5946
 2466TIP3    H228814   2.167   0.016   6.540  0.3432 -1.8731 -1.6459
 2467TIP3   OH228815   4.650   5.809  13.488 -0.0859  0.2874 -0.1972
 2467TIP3    H128816   4.620   5.718  13.493 -0.2987  0.0777 -3.3379
 2467TIP3    H228817   4.729   5.811  13.543  0.2730 -1.9733 -0.5327
 2468TIP3   OH228818   1.556   0.964   6.529  0.5322 -0.4379 -0.3530
 2468TIP3    H128819   1.629   0.921   6.574  0.3568 -1.7309 -1.2638
 2468TIP3    H228820   1.501   0.893   6.498 -0.1010  0.4644 -1.3744
 2469TIP3   OH228821   1.394   5.853  11.620 -0.4389 -0.1626 -0.3327
 2469TIP3    H128822   1.330   5.912  11.580 -1.8037 -1.5943 -0.3619
 2469TIP3    H228823   1.366   5.844  11.710 -1.0169 -1.7241 -0.6380
 2470TIP3   OH228824   3.526   1.982   3.191  0.0196  0.4117  0.3164
 2470TIP3    H128825   3.444   2.023   3.164  0.0159 -0.7964 -1.7315
 2470TIP3    H228826   3.508   1.889   3.190  1.0538  0.1787  1.2223
 2471TIP3   OH228827   1.970   3.207   2.003  0.1129 -0.2247  0.0977
 2471TIP3    H128828   1.914   3.146   2.051  0.1955  0.0528  0.5623
 2471TIP3    H228829   1.982   3.167   1.917  0.9307 -1.3404  0.6913
 2472TIP3   OH228830   2.193   6.489  12.269  0.0413 -0.5676  0.2035
 2472TIP3    H128831   2.202   6.490  12.174 -1.4929 -0.3016  0.0373
 2472TIP3    H228832   2.282   6.471  12.302  0.8520  0.6589 -1.2221
 2473TIP3   OH228833   0.976   1.162  12.641  0.2550 -0.0317  0.5239
 2473TIP3    H128834   1.046   1.202  12.589  0.5666 -0.4710  0.5986
 2473TIP3    H228835   0.915   1.234  12.658  0.3811  0.2185 -0.0598
 2474TIP3   OH228836   5.281   5.372   1.598  0.0976  0.3724 -0.1088
 2474TIP3    H128837   5.236   5.432   1.658 -0.3373 -0.5808  0.5326
 2474TIP3    H228838   5.374   5.391   1.610  0.0395 -0.0721  1.1547
 2475TIP3   OH228839   4.203   6.690   0.971 -0.3031 -0.0506  0.2649
 2475TIP3    H128840   4.295   6.680   0.995 -0.3338 -1.0871  0.0247
 2475TIP3    H228841   4.163   6.734   1.046 -0.0822 -1.8022  1.4905
 2476TIP3   OH228842   1.113   1.785   1.207  0.1791 -0.6338  0.1678
 2476TIP3    H128843   1.120   1.792   1.302  2.7986 -1.7273  0.1425
 2476TIP3    H228844   1.199   1.814   1.174 -1.2494  1.5157 -2.0335
 2477TIP3   OH228845   3.347   4.484   0.726 -0.4184 -0.0892  0.3906
 2477TIP3    H128846   3.410   4.449   0.664  0.1051 -1.3393  1.5730
 2477TIP3    H228847   3.385   4.467   0.812 -2.0247 -0.2348  1.1177
 2478TIP3   OH228848   1.887   3.313  13.111 -0.2218  0.3292  0.2037
 2478TIP3    H128849   1.955   3.246  13.103  0.7547  1.4780 -2.1414
 2478TIP3    H228850   1.930   3.394  13.081 -1.5630  1.9080  2.2704
 2479TIP3   OH228851   5.595   0.998   1.726 -0.2225  0.2552 -0.2339
 2479TIP3    H128852   5.599   1.031   1.636 -0.0397  1.6648  0.2660
 2479TIP3    H228853   5.532   1.055   1.770 -2.3463 -2.0325 -0.0692
 2480TIP3   OH228854   5.052   1.893  14.828 -0.4857  0.0614 -0.9000
 2480TIP3    H128855   5.085   1.825  14.887 -0.0244  1.5885  0.6707
 2480TIP3    H228856   4.960   1.872  14.817 -0.7430  0.0948  0.9248
 2481TIP3   OH228857   2.580   5.936  11.085  0.2054  0.2706 -0.2624
 2481TIP3    H128858   2.650   5.986  11.128  0.2306 -0.0641  0.0916
 2481TIP3    H228859   2.524   6.002  11.045 -0.9998  0.7610  2.0475
 2482TIP3   OH228860   3.425   2.874   3.994 -0.1203 -0.0015  0.2503
 2482TIP3    H128861   3.355   2.849   4.053 -1.1238 -0.9074 -1.2481
 2482TIP3    H228862   3.490   2.805   4.003 -0.0919  0.0665  0.5740
 2483TIP3   OH228863   5.560   6.022   2.243 -0.1351 -0.6437 -0.2888
 2483TIP3    H128864   5.491   6.073   2.199  0.3769 -0.2963 -0.6968
 2483TIP3    H228865   5.577   5.949   2.184 -0.0325 -0.6386 -0.2655
 2484TIP3   OH228866   2.374   3.317   4.509  0.1990 -0.0056 -0.3518
 2484TIP3    H128867   2.285   3.311   4.475  0.6339  0.7286 -1.6629
 2484TIP3    H228868   2.401   3.225   4.520 -1.2438 -0.2679  1.6151
 2485TIP3   OH228869   0.269   0.615  17.091  0.1339 -0.1979 -0.1972
 2485TIP3    H128870   0.175   0.617  17.077  0.0112 -1.4733  0.3317
 2485TIP3    H228871   0.306   0.611  17.002 -0.2830  0.4479 -0.4103
 2486TIP3   OH228872   3.870   1.325  11.736 -0.4980  0.7303 -0.1101
 2486TIP3    H128873   3.912   1.310  11.820 -1.8001  1.7501  0.7655
 2486TIP3    H228874   3.842   1.416  11.738 -1.6361  0.4391 -1.1406
 2487TIP3   OH228875   6.198   0.278   6.013  0.0824 -0.1417  0.2455
 2487TIP3    H128876   6.293   0.275   6.005  0.0522 -1.1626  0.1513
 2487TIP3    H228877   6.166   0.260   5.924 -0.1922 -0.8014  0.4689
 2488TIP3   OH228878   1.176   2.682  14.839  0.1650 -0.0511  0.1243
 2488TIP3    H128879   1.181   2.743  14.765 -1.5827 -0.0136 -0.0119
 2488TIP3    H228880   1.113   2.723  14.898  0.1340 -0.9829  0.7517
 2489TIP3   OH228881   3.193   5.118  15.574  0.3005 -0.0969 -0.0938
 2489TIP3    H128882   3.115   5.065  15.557 -1.0271  1.7099 -0.0104
 2489TIP3    H228883   3.195   5.181  15.501  1.7093 -0.1131 -0.0943
 2490TIP3   OH228884   2.197   4.859   5.322 -0.9339  0.0122 -0.3782
 2490TIP3    H128885   2.224   4.781   5.274 -0.0597  0.4539 -0.6299
 2490TIP3    H228886   2.157   4.916   5.256  0.1188  0.5500 -0.5773
 2491TIP3   OH228887   4.282   2.702  16.334 -0.4888 -0.2789 -0.4227
 2491TIP3    H128888   4.229   2.633  16.373 -1.0325  0.0533 -0.5670
 2491TIP3    H228889   4.339   2.731  16.405 -1.4297  0.2853  0.1259
 2492TIP3   OH228890   5.334   2.326   3.734 -0.1921  0.2246 -0.4745
 2492TIP3    H128891   5.259   2.382   3.713 -0.9154 -0.8050 -0.7278
 2492TIP3    H228892   5.404   2.357   3.676 -0.4517  1.1041 -0.3383
 2493TIP3   OH228893   2.658   1.593   0.581  0.5092  0.4097  0.1710
 2493TIP3    H128894   2.620   1.617   0.666  1.8170  0.9047  0.6396
 2493TIP3    H228895   2.752   1.605   0.592  0.7572 -0.0498 -1.1928
 2494TIP3   OH228896   4.379   6.283  12.966 -0.2923  0.6089  0.1376
 2494TIP3    H128897   4.358   6.210  12.908 -0.4082 -1.2007  2.3308
 2494TIP3    H228898   4.295   6.317  12.994 -0.2803 -0.1645  1.1628
 2495TIP3   OH228899   2.518   1.884   0.588 -0.3147 -0.7463  0.4353
 2495TIP3    H128900   2.604   1.924   0.575 -0.8615  0.6780  1.0411
 2495TIP3    H228901   2.535   1.804   0.639  0.5959 -0.2436  0.9255
 2496TIP3   OH228902   0.521   3.904   1.863  0.5399 -0.4120  0.2393
 2496TIP3    H128903   0.591   3.960   1.897 -1.5452  2.0012  0.8911
 2496TIP3    H228904   0.442   3.938   1.904 -1.3433 -1.4569 -2.2924
 2497TIP3   OH228905   2.768   4.735  16.947  0.1547  0.4014  0.1206
 2497TIP3    H128906   2.692   4.790  16.928  0.1263  0.5819  0.7320
 2497TIP3    H228907   2.735   4.645  16.936 -0.8643  0.3718  2.7345
 2498TIP3   OH228908   4.238   5.171   5.796  0.5336  0.5610  0.1004
 2498TIP3    H128909   4.243   5.109   5.868  0.7745  1.2007  0.6491
 2498TIP3    H228910   4.329   5.192   5.776  0.4658  0.4059 -0.3747
 2499TIP3   OH228911   3.865   2.369  13.007 -0.5368 -0.2592  0.2708
 2499TIP3    H128912   3.883   2.385  12.915  1.5583  0.6853  0.7956
 2499TIP3    H228913   3.816   2.446  13.035 -1.9029 -0.9259 -0.2101
 2500TIP3   OH228914   2.573   6.531  15.211  0.2237  0.3430 -0.2445
 2500TIP3    H128915   2.550   6.538  15.118 -1.1022  2.6744  0.1766
 2500TIP3    H228916   2.504   6.476  15.249  0.9701 -0.9143 -0.6804
 2501TIP3   OH228917   1.371   1.435   5.493 -0.1432  0.3412 -0.3651
 2501TIP3    H128918   1.455   1.444   5.449  1.4541  0.3201  2.4555
 2501TIP3    H228919   1.307   1.469   5.430  2.2346  2.6444 -1.7363
 2502TIP3   OH228920   5.453   1.497   0.832 -0.5656 -0.5361  0.0023
 2502TIP3    H128921   5.438   1.437   0.759 -1.0805  0.1120 -0.4256
 2502TIP3    H228922   5.367   1.537   0.849 -0.8808 -1.9309  2.0891
 2503TIP3   OH228923   0.345   6.290  15.139  0.0556 -0.2584  0.4242
 2503TIP3    H128924   0.368   6.333  15.057 -1.3522 -1.4218 -0.6520
 2503TIP3    H228925   0.249   6.289  15.139 -0.0388 -3.8096  0.0674
 2504TIP3   OH228926   6.007   4.722  12.638 -0.4914  0.1047  0.7921
 2504TIP3    H128927   6.019   4.817  12.636  2.0766 -0.1464  1.3040
 2504TIP3    H228928   6.077   4.690  12.694  0.1793 -2.3097 -1.2593
 2505TIP3   OH228929   2.711   3.946   3.060 -0.1233  0.3070  0.2812
 2505TIP3    H128930   2.784   4.008   3.051  0.5390 -0.5500 -0.5083
 2505TIP3    H228931   2.747   3.876   3.116  0.0194 -0.6031 -0.9021
 2506TIP3   OH228932   5.377   6.570   4.314  0.6703 -0.3450  0.5538
 2506TIP3    H128933   5.368   6.563   4.409 -0.3952 -0.5296  0.4480
 2506TIP3    H228934   5.470   6.554   4.298  1.1485  1.0032  1.6795
 2507TIP3   OH228935   0.122   3.568   0.296 -0.3403 -1.6337  0.4306
 2507TIP3    H128936   0.072   3.487   0.284  0.1959 -2.0321  0.7925
 2507TIP3    H228937   0.159   3.586   0.210 -0.6777 -1.6300  0.2864
 2508TIP3   OH228938   2.524   0.770  15.336  0.2998  0.1874  0.5100
 2508TIP3    H128939   2.549   0.680  15.315 -0.3006 -0.0899  0.9712
 2508TIP3    H228940   2.563   0.822  15.266  2.5281 -0.1680  1.3794
 2509TIP3   OH228941   6.702   1.385  13.501  0.0558  0.1038 -0.1710
 2509TIP3    H128942   6.784   1.382  13.550 -0.5764 -0.7940  0.8926
 2509TIP3    H228943   6.728   1.381  13.409  1.1761 -1.6021  0.1711
 2510TIP3   OH228944   4.429   2.372  15.466 -0.1998 -0.1860 -0.0598
 2510TIP3    H128945   4.522   2.353  15.479 -0.4170 -1.6950 -0.5076
 2510TIP3    H228946   4.426   2.420  15.383  0.2479  0.6090  0.3777
 2511TIP3   OH228947   3.191   6.435   3.314  0.3661  0.1372  0.3425
 2511TIP3    H128948   3.178   6.529   3.302 -0.6385 -0.0277  0.0497
 2511TIP3    H228949   3.108   6.395   3.286  0.6254 -0.8029  0.8595
 2512TIP3   OH228950   2.562   6.502  10.665 -0.0102 -1.2975  0.2139
 2512TIP3    H128951   2.542   6.409  10.674  1.0509 -1.3324  3.0478
 2512TIP3    H228952   2.480   6.546  10.688 -0.2433 -1.5059 -0.1996
 2513TIP3   OH228953   2.092   2.147  15.929 -0.0658 -0.6030  1.3221
 2513TIP3    H128954   2.037   2.097  15.989  1.0372  1.0271  3.8786
 2513TIP3    H228955   2.123   2.221  15.982  0.4634  1.3328 -1.5004
 2514TIP3   OH228956   3.007   6.154   0.770 -0.1182  0.4077 -0.5806
 2514TIP3    H128957   3.018   6.090   0.840 -0.1470  1.2503  0.2135
 2514TIP3    H228958   3.067   6.124   0.701 -0.2799 -0.5714 -0.3151
 2515TIP3   OH228959   6.284   2.535   5.392 -0.2414  0.0284 -0.1366
 2515TIP3    H128960   6.355   2.491   5.439  0.5269  0.6806 -0.6633
 2515TIP3    H228961   6.306   2.628   5.396 -1.0937  0.2480 -0.2725
 2516TIP3   OH228962   6.174   2.584   2.896  0.7894  0.3771 -0.1775
 2516TIP3    H128963   6.205   2.658   2.844  0.5358 -0.1117 -1.0364
 2516TIP3    H228964   6.253   2.549   2.937  0.7434  1.9478  1.3610
 2517TIP3   OH228965   3.278   5.094   3.401 -0.5591  0.2928 -0.0318
 2517TIP3    H128966   3.316   5.081   3.488  1.0232 -0.0062 -0.7522
 2517TIP3    H228967   3.197   5.143   3.418 -0.9085 -0.7965  1.7053
 2518TIP3   OH228968   2.245   3.595   5.864 -0.7120  0.2286  0.4668
 2518TIP3    H128969   2.170   3.633   5.908 -0.0343  0.0744  1.8113
 2518TIP3    H228970   2.220   3.592   5.771 -1.9832  1.0172  0.7626
 2519TIP3   OH228971   1.452   0.307  15.300  0.7394  0.1247 -0.8410
 2519TIP3    H128972   1.518   0.255  15.254  1.0921  0.3431 -0.5871
 2519TIP3    H228973   1.431   0.256  15.378 -2.6710 -2.1903 -2.9912
 2520TIP3   OH228974   0.270   6.108   1.282  0.2117  0.4884 -0.2383
 2520TIP3    H128975   0.175   6.115   1.281  0.1059  0.3873  2.2715
 2520TIP3    H228976   0.288   6.019   1.311  1.1970 -0.5835 -3.6593
 2521TIP3   OH228977   5.582   4.925   3.378 -0.8832  0.0048 -0.1234
 2521TIP3    H128978   5.581   4.836   3.343  0.5958  0.0790 -0.3820
 2521TIP3    H228979   5.497   4.934   3.421 -0.7972 -1.7584  0.4842
 2522TIP3   OH228980   3.790   2.583   0.129 -0.3847  0.3809  0.3497
 2522TIP3    H128981   3.789   2.656   0.191 -2.6359  0.6249  0.1108
 2522TIP3    H228982   3.793   2.505   0.183 -1.9916  0.6014  0.7951
 2523TIP3   OH228983   2.263   4.091   6.262  0.4082  0.0005  1.0835
 2523TIP3    H128984   2.204   4.159   6.295  1.8521  1.0067  1.7411
 2523TIP3    H228985   2.326   4.078   6.333  0.6679 -1.4106  0.6126
 2524TIP3   OH228986   6.554   1.231  11.903 -0.0041 -0.1166 -0.1808
 2524TIP3    H128987   6.491   1.240  11.974  0.2637  1.4468 -0.1117
 2524TIP3    H228988   6.607   1.311  11.908  0.5563 -0.3797 -1.6107
 2525TIP3   OH228989   3.669   0.574  12.964 -0.0933 -0.0172 -0.3787
 2525TIP3    H128990   3.645   0.522  13.040  0.3837  0.2199 -0.0619
 2525TIP3    H228991   3.626   0.530  12.890 -1.6044  0.4629  0.1766
 2526TIP3   OH228992   3.885   0.049  16.320  0.2984  0.0677 -0.3957
 2526TIP3    H128993   3.879  -0.028  16.264 -0.5131 -0.5699  0.5327
 2526TIP3    H228994   3.824   0.032  16.391  2.4142  0.1232  1.5608
 2527TIP3   OH228995   3.349   2.547   1.800 -0.1544 -0.1748 -0.3197
 2527TIP3    H128996   3.434   2.505   1.814 -1.3480 -2.1965  1.3349
 2527TIP3    H228997   3.362   2.637   1.829  1.4353 -0.4022 -0.2020
 2528TIP3   OH228998   6.376   6.050  15.470  0.3705  1.1244  0.7750
 2528TIP3    H128999   6.445   5.989  15.495  0.0946  0.3714 -0.2177
 2528TIP3    H229000   6.322   6.060  15.548  0.9907  0.8801  1.2351
 2529TIP3   OH229001   3.522   0.105   5.406 -0.3574 -0.0807 -0.1636
 2529TIP3    H129002   3.430   0.112   5.432 -0.0185 -0.0197  1.0573
 2529TIP3    H229003   3.550   0.196   5.392 -0.1215 -0.0043  0.7773
 2530TIP3   OH229004   6.204   1.072   0.700 -0.2561  0.1937  0.3856
 2530TIP3    H129005   6.254   1.143   0.741  0.6698 -0.4859  0.4709
 2530TIP3    H229006   6.112   1.095   0.715  0.0395  1.1112  0.8481
 2531TIP3   OH229007   2.792   2.272   4.770 -0.7193  0.1454  0.7833
 2531TIP3    H129008   2.831   2.217   4.837 -3.8802 -0.8730  1.9926
 2531TIP3    H229009   2.806   2.362   4.800 -1.0695 -0.2661  2.2331
 2532TIP3   OH229010   2.399   4.191   0.946  0.1296 -0.4824  0.0111
 2532TIP3    H129011   2.341   4.243   0.891  0.3701  0.3318  0.5095
 2532TIP3    H229012   2.464   4.254   0.978 -0.5854 -0.7085  2.0365
 2533TIP3   OH229013   5.885   3.963   3.625  0.6574 -0.1627  0.1724
 2533TIP3    H129014   5.791   3.944   3.622  0.3283  1.4456 -0.5382
 2533TIP3    H229015   5.915   3.919   3.705 -0.4743 -1.5625 -0.1243
 2534TIP3   OH229016   2.903   2.296   0.583 -0.4667 -0.1699  0.2637
 2534TIP3    H129017   2.970   2.250   0.533 -0.4154 -0.3460  0.4915
 2534TIP3    H229018   2.895   2.381   0.540  0.1065 -0.0418  0.4017
 2535TIP3   OH229019   1.838   0.451   1.319  0.2593 -0.1703 -0.1635
 2535TIP3    H129020   1.830   0.470   1.226 -1.2506  1.2816  0.2150
 2535TIP3    H229021   1.905   0.512   1.351 -1.1228  1.2190  0.1604
 2536TIP3   OH229022   6.236   5.198   1.042 -0.5619  0.5829 -0.0127
 2536TIP3    H129023   6.263   5.124   1.096 -0.0690  0.7081 -0.0865
 2536TIP3    H229024   6.258   5.276   1.093  0.4799  0.7171 -0.6419
 2537TIP3   OH229025   1.224   2.813   2.874 -0.1081 -0.4494 -0.3054
 2537TIP3    H129026   1.312   2.845   2.896  0.5925 -1.2186 -1.8356
 2537TIP3    H229027   1.192   2.774   2.956  0.4576  0.9231  0.6101
 2538TIP3   OH229028   1.678   5.410  12.744  0.4800 -0.0470  0.1871
 2538TIP3    H129029   1.660   5.502  12.765  1.7188  0.0737  0.8470
 2538TIP3    H229030   1.658   5.364  12.825  1.4457 -0.1257  0.3905
 2539TIP3   OH229031   6.025   1.214  13.409  0.0214 -0.3772 -0.2245
 2539TIP3    H129032   6.085   1.289  13.406 -2.0387  1.3553  0.0616
 2539TIP3    H229033   5.993   1.205  13.320 -0.4655 -0.2763 -0.0644
 2540TIP3   OH229034   2.272   2.347  15.616 -0.2414 -0.2623  0.4366
 2540TIP3    H129035   2.341   2.352  15.682 -2.3116 -1.8499  2.8744
 2540TIP3    H229036   2.309   2.294  15.546  2.3293  2.2030 -0.2537
 2541TIP3   OH229037   6.555   2.537  16.495 -0.3609  0.6060 -0.4797
 2541TIP3    H129038   6.633   2.592  16.486  0.2769 -0.3021 -0.6526
 2541TIP3    H229039   6.518   2.532  16.407  0.7638 -0.9103 -0.9059
 2542TIP3   OH229040   0.710   5.048   4.637 -0.3882 -0.0153  0.3467
 2542TIP3    H129041   0.750   4.994   4.569 -1.2360 -0.7031  0.3764
 2542TIP3    H229042   0.627   5.005   4.656 -0.2487  0.2589  1.6977
 2543TIP3   OH229043   1.018   5.697   5.358  0.7157 -0.2119  0.7237
 2543TIP3    H129044   0.988   5.607   5.372 -0.2825  0.0970  0.6402
 2543TIP3    H229045   1.040   5.729   5.445 -1.8398  0.4454  1.1897
 2544TIP3   OH229046   1.441   1.051  17.014  0.1785 -0.1968 -0.1690
 2544TIP3    H129047   1.497   1.126  17.036 -0.5335  0.2735  0.0872
 2544TIP3    H229048   1.372   1.089  16.960 -0.3483 -0.6141  0.2030
 2545TIP3   OH229049   1.739   3.716   4.137 -0.0054  0.0571 -0.2533
 2545TIP3    H129050   1.821   3.708   4.186 -0.1939  0.6493  0.1667
 2545TIP3    H229051   1.746   3.801   4.092 -1.1642  0.9981  1.2589
 2546TIP3   OH229052   0.418   1.132  13.327 -0.0430 -0.1091 -0.9677
 2546TIP3    H129053   0.341   1.178  13.290 -0.7684  1.5220  2.2382
 2546TIP3    H229054   0.385   1.047  13.353 -1.2454  1.0025  1.4917
 2547TIP3   OH229055   2.784   0.250   2.380  0.6685 -0.3137  0.5333
 2547TIP3    H129056   2.732   0.315   2.427  0.5647  0.6797 -0.8785
 2547TIP3    H229057   2.720   0.192   2.340  0.6233  0.6014 -0.7770
 2548TIP3   OH229058   3.443   3.263   2.478 -0.1816  0.2042 -0.3021
 2548TIP3    H129059   3.499   3.326   2.525 -0.0733  0.4943 -0.8111
 2548TIP3    H229060   3.438   3.187   2.536  0.5848  0.2520 -0.1624
 2549TIP3   OH229061   4.853   0.383  16.838  0.4636  0.4792 -0.1536
 2549TIP3    H129062   4.941   0.373  16.874  1.0907  1.8676 -1.1852
 2549TIP3    H229063   4.844   0.477  16.823 -2.7126  1.0206  3.5635
 2550TIP3   OH229064   6.288   3.122   1.644 -0.2870 -0.0908 -0.2862
 2550TIP3    H129065   6.284   3.214   1.669 -2.2681 -0.2073 -0.0627
 2550TIP3    H229066   6.281   3.122   1.548  0.2973 -0.0068 -0.3364
 2551TIP3   OH229067   2.950   0.614  13.102 -0.6153 -0.6161 -0.1025
 2551TIP3    H129068   2.942   0.624  13.008  0.8733  0.5902 -0.1324
 2551TIP3    H229069   2.896   0.538  13.123  0.3940 -1.9721 -2.1520
 2552TIP3   OH229070   0.644   6.446   5.505 -0.1653  0.2138 -0.3526
 2552TIP3    H129071   0.657   6.368   5.560  0.5822  0.7434  0.2518
 2552TIP3    H229072   0.566   6.488   5.541  0.1617  0.4110  0.1399
 2553TIP3   OH229073   2.657   0.226  11.648 -0.3407  0.3184 -0.5745
 2553TIP3    H129074   2.717   0.241  11.574  0.9283 -0.3405  0.2748
 2553TIP3    H229075   2.673   0.300  11.707  0.5682 -0.4827  0.2218
 2554TIP3   OH229076   6.540   1.079  11.236  0.7686 -0.0544 -0.2330
 2554TIP3    H129077   6.573   1.030  11.160  0.0360 -0.8876 -0.0308
 2554TIP3    H229078   6.610   1.070  11.301  0.4036 -1.3692  0.0107
 2555TIP3   OH229079   5.809   6.329   3.245  0.4367  0.2504  0.3509
 2555TIP3    H129080   5.759   6.387   3.188  0.3816 -0.0100  0.1348
 2555TIP3    H229081   5.746   6.295   3.308 -0.2301 -2.0947 -1.4793
 2556TIP3   OH229082   5.738   2.716  13.987 -0.7746  0.5022  0.0768
 2556TIP3    H129083   5.739   2.766  13.905 -1.6475 -1.6165 -1.2987
 2556TIP3    H229084   5.793   2.640  13.970 -2.8050 -1.1810  0.5839
 2557TIP3   OH229085   1.259   1.392   3.168 -0.1612  0.6257  0.2214
 2557TIP3    H129086   1.191   1.355   3.112 -0.6934  0.7584  0.7602
 2557TIP3    H229087   1.340   1.349   3.141 -0.6711 -0.4817  0.4179
 2558TIP3   OH229088   4.640   4.623  11.984  0.5968 -0.1652  0.0507
 2558TIP3    H129089   4.644   4.713  11.953  1.3208 -0.2833 -0.2163
 2558TIP3    H229090   4.689   4.623  12.066 -0.1549 -0.1366  0.5034
 2559TIP3   OH229091   6.123   2.886   3.165 -0.0896 -0.4665  0.7458
 2559TIP3    H129092   6.038   2.861   3.201 -0.6805  0.5247  0.0926
 2559TIP3    H229093   6.179   2.810   3.180 -1.1366 -1.2044  1.0341
 2560TIP3   OH229094   4.713   5.741   4.403 -0.2275  0.1783  0.1045
 2560TIP3    H129095   4.772   5.771   4.334  0.5597  2.1960  1.5229
 2560TIP3    H229096   4.770   5.730   4.479 -0.8800 -3.0285  0.2472
 2561TIP3   OH229097   4.464   0.063  15.241  0.1197  0.3898 -0.2178
 2561TIP3    H129098   4.542   0.021  15.203  0.6457  1.7201 -0.6553
 2561TIP3    H229099   4.479   0.157  15.229 -0.7488  0.7471  1.2787
 2562TIP3   OH229100   2.551   6.395  17.368 -0.3218  0.7682  0.1462
 2562TIP3    H129101   2.627   6.337  17.378 -1.3736 -0.4791  1.2328
 2562TIP3    H229102   2.542   6.406  17.273 -0.8366 -1.9279 -0.2114
 2563TIP3   OH229103   6.664   5.279  15.417 -0.0879 -0.0121 -0.2975
 2563TIP3    H129104   6.736   5.227  15.453 -1.0030 -1.8621 -0.9954
 2563TIP3    H229105   6.649   5.241  15.330 -0.3335  1.9432 -1.1576
 2564TIP3   OH229106   2.178   6.667   4.563 -0.6049 -0.5108 -0.1454
 2564TIP3    H129107   2.169   6.757   4.594  0.0971 -1.1499  2.1071
 2564TIP3    H229108   2.090   6.630   4.574 -0.3066 -0.7996  1.4098
 2565TIP3   OH229109   2.800   4.990   4.568 -0.1412 -0.2405 -0.5617
 2565TIP3    H129110   2.778   4.907   4.611 -0.4762  0.1378  0.0079
 2565TIP3    H229111   2.719   5.041   4.570 -0.2186 -0.2744 -1.8049
 2566TIP3   OH229112   1.558   2.246  16.660 -0.2990  1.1126  0.3813
 2566TIP3    H129113   1.653   2.237  16.659 -0.4203 -2.9384  2.4176
 2566TIP3    H229114   1.538   2.285  16.745 -0.4798  1.5912  0.1208
 2567TIP3   OH229115   2.053   0.654  15.238 -0.0263  0.0826 -0.2379
 2567TIP3    H129116   1.968   0.671  15.199 -0.1847  0.1793  0.1432
 2567TIP3    H229117   2.036   0.583  15.301  0.1394  0.2250 -0.0331
 2568TIP3   OH229118   3.303   0.078  16.073  0.2407  0.1317 -0.2084
 2568TIP3    H129119   3.280   0.143  16.140  2.7832  1.4839 -0.5084
 2568TIP3    H229120   3.232   0.083  16.010 -1.4266 -0.0358  1.5721
 2569TIP3   OH229121   6.191   4.846  11.548  0.0321  0.4727 -0.0401
 2569TIP3    H129122   6.248   4.879  11.617 -1.9642  3.0339  0.5823
 2569TIP3    H229123   6.127   4.916  11.535 -0.3240 -0.3376 -3.8043
 2570TIP3   OH229124   6.373   3.897  10.770 -0.4482  0.4304 -0.9554
 2570TIP3    H129125   6.288   3.859  10.751 -0.5715  1.1104 -1.8140
 2570TIP3    H229126   6.387   3.962  10.701  0.3785  0.9433 -0.3331
 2571TIP3   OH229127   5.766   2.073   0.568  0.2560  0.3127  0.1859
 2571TIP3    H129128   5.731   2.001   0.516 -0.4840  0.0501  1.0180
 2571TIP3    H229129   5.861   2.062   0.565  0.2290  0.3341 -1.1314
 2572TIP3   OH229130   1.310   4.418   3.597  0.6703  0.2639  0.0996
 2572TIP3    H129131   1.280   4.505   3.623  0.8205  0.0215  1.1154
 2572TIP3    H229132   1.373   4.393   3.665  0.8744 -0.5018 -0.3646
 2573TIP3   OH229133   5.373   3.690   4.493  0.3869  0.1105 -0.4037
 2573TIP3    H129134   5.419   3.614   4.527  1.0943  0.0706 -1.3911
 2573TIP3    H229135   5.294   3.697   4.547  2.0538  0.8594  2.1040
 2574TIP3   OH229136   4.247   5.875   3.382 -0.0675 -0.1038 -0.1454
 2574TIP3    H129137   4.213   5.867   3.293  1.7645  0.4110 -0.9444
 2574TIP3    H229138   4.332   5.918   3.371 -0.6522  1.8095  2.0333
 2575TIP3   OH229139   3.372   1.753   0.693 -0.3906  0.3790 -0.5136
 2575TIP3    H129140   3.330   1.836   0.670 -1.9992 -0.4406 -0.6818
 2575TIP3    H229141   3.435   1.738   0.623 -0.9279  0.8744 -1.1140
 2576TIP3   OH229142   6.226   6.398   0.387  0.8671  0.5016 -0.5647
 2576TIP3    H129143   6.237   6.369   0.478  0.4329  2.5669  0.1911
 2576TIP3    H229144   6.190   6.321   0.342 -0.9539  0.0474  1.4969
 2577TIP3   OH229145   1.468   2.844   1.091 -0.3634  0.3882  0.9096
 2577TIP3    H129146   1.411   2.769   1.074  0.9388 -0.5720  0.6159
 2577TIP3    H229147   1.528   2.814   1.159 -0.0735  1.3115  1.0843
 2578TIP3   OH229148   4.445   2.056   5.425  0.2532  0.5339  0.1371
 2578TIP3    H129149   4.483   1.971   5.445  0.5506  0.7663  0.5754
 2578TIP3    H229150   4.488   2.084   5.344  0.2807  0.3437  0.0870
 2579TIP3   OH229151   4.520   0.066   5.627 -0.3357 -0.2635  0.7148
 2579TIP3    H129152   4.615   0.058   5.640 -0.2195 -2.3068 -0.8381
 2579TIP3    H229153   4.510   0.145   5.574  0.3459  0.6612  1.9075
 2580TIP3   OH229154   1.729   0.123   6.281 -0.6665 -0.3101  0.0940
 2580TIP3    H129155   1.775   0.149   6.201 -0.5082  1.7656  0.8108
 2580TIP3    H229156   1.796   0.081   6.334 -0.6779 -1.3268 -0.6527
 2581TIP3   OH229157   1.581   5.716  13.959 -0.0055 -0.2881 -0.4217
 2581TIP3    H129158   1.523   5.752  13.892  0.1386  0.0267 -0.3775
 2581TIP3    H229159   1.552   5.625  13.970 -0.5680 -0.0994 -0.3179
 2582TIP3   OH229160   2.020   4.755   2.476  0.6181 -0.3626 -0.0946
 2582TIP3    H129161   1.996   4.841   2.439  2.3258 -0.0154 -0.5117
 2582TIP3    H229162   2.062   4.776   2.559  0.0781 -0.8949  0.3189
 2583TIP3   OH229163   5.956   5.773   4.305  0.2532 -0.0559  0.3930
 2583TIP3    H129164   5.971   5.864   4.278  1.8519 -0.2120  0.6330
 2583TIP3    H229165   5.862   5.767   4.316  0.0799  1.5033  0.1059
 2584TIP3   OH229166   0.923   4.292   2.945  0.4284  0.4606 -0.5357
 2584TIP3    H129167   0.855   4.356   2.928  0.5262  0.2574 -1.7900
 2584TIP3    H229168   1.005   4.341   2.938  0.4247  0.7285  1.0775
 2585TIP3   OH229169   1.625   4.478  14.156  0.5952 -0.0879  0.3106
 2585TIP3    H129170   1.545   4.499  14.108  0.0451  1.1487  1.6800
 2585TIP3    H229171   1.694   4.526  14.109  0.1649  0.6299  0.4007
 2586TIP3   OH229172   1.461   3.204  16.439 -0.5724 -0.2068  0.2560
 2586TIP3    H129173   1.434   3.132  16.381  2.5161  0.4089 -2.2270
 2586TIP3    H229174   1.390   3.268  16.432 -0.9264 -0.7455 -1.8867
 2587TIP3   OH229175   6.102   4.762   5.873 -0.4976  0.4320 -0.0943
 2587TIP3    H129176   6.055   4.681   5.893  0.5325 -0.1641  0.0274
 2587TIP3    H229177   6.165   4.737   5.806  0.5173  0.8830  0.6584
 2588TIP3   OH229178   1.236   4.999   4.541 -0.0988 -0.3134  0.2547
 2588TIP3    H129179   1.243   5.080   4.592 -0.4608  0.1557 -0.4191
 2588TIP3    H229180   1.326   4.975   4.520  0.0062 -0.0561  0.4111
 2589TIP3   OH229181   5.712   6.601   1.370 -0.3479 -0.4089  0.3080
 2589TIP3    H129182   5.709   6.681   1.422 -1.3109  0.6427 -1.2904
 2589TIP3    H229183   5.783   6.617   1.307 -1.4656 -0.1859 -0.9323
 2590TIP3   OH229184   5.960   6.317  11.682 -0.3500 -0.0057  0.2165
 2590TIP3    H129185   5.926   6.331  11.594 -0.6043 -0.4762  0.2357
 2590TIP3    H229186   6.046   6.359  11.681 -0.6448  0.6105 -0.0330
 2591TIP3   OH229187   6.596   5.390  14.878 -0.3719 -0.0689 -0.1270
 2591TIP3    H129188   6.615   5.397  14.784  0.3058 -0.3245 -0.0165
 2591TIP3    H229189   6.501   5.386  14.883 -0.3916 -0.8214 -0.8645
 2592TIP3   OH229190   2.588   5.181   1.586  0.1978 -0.0084  0.1747
 2592TIP3    H129191   2.653   5.227   1.640  0.6639 -1.1899  0.6747
 2592TIP3    H229192   2.594   5.223   1.501 -1.0362  2.3694  1.1746
 2593TIP3   OH229193   3.329   0.548  16.279 -0.1670  0.9730 -0.2555
 2593TIP3    H129194   3.334   0.628  16.331  2.4298  0.7183  0.0286
 2593TIP3    H229195   3.376   0.569  16.198  1.5423 -0.5140  0.2768
 2594TIP3   OH229196   4.747   0.005   2.312  0.1547  0.2802 -0.0543
 2594TIP3    H129197   4.704  -0.061   2.367 -2.3786  2.3870  0.7061
 2594TIP3    H229198   4.823   0.033   2.363 -0.1753 -0.2523  0.7464
 2595TIP3   OH229199   5.346   2.839  16.500 -0.7491 -0.0837 -0.5085
 2595TIP3    H129200   5.366   2.842  16.406 -2.9413 -1.9374 -1.1233
 2595TIP3    H229201   5.257   2.874  16.507 -0.6819 -0.1285  0.8680
 2596TIP3   OH229202   6.370   5.381  15.082 -0.3854 -0.2781  0.2170
 2596TIP3    H129203   6.337   5.379  14.992  2.8701 -1.6439 -1.0922
 2596TIP3    H229204   6.346   5.468  15.114  0.5748  1.3330 -2.9552
 2597TIP3   OH229205   5.915   4.912  12.134  0.1514 -0.5909  0.3505
 2597TIP3    H129206   5.821   4.901  12.122 -0.0802 -0.8739  2.1607
 2597TIP3    H229207   5.945   4.829  12.171  0.9683 -0.2209  0.5531
 2598TIP3   OH229208   4.174   0.164   0.398 -0.2106  0.5738  0.2873
 2598TIP3    H129209   4.184   0.070   0.384 -0.6193  0.3268  1.4759
 2598TIP3    H229210   4.089   0.186   0.360 -0.2454  0.4063  0.2712
 2599TIP3   OH229211   2.551   2.689   5.371 -0.1989 -0.3409 -0.0475
 2599TIP3    H129212   2.604   2.673   5.292 -1.7741  0.7586 -1.4093
 2599TIP3    H229213   2.512   2.604   5.391  0.8131 -0.8028  0.0315
 2600TIP3   OH229214   6.332   4.562  15.127  0.0973 -0.1909 -0.1493
 2600TIP3    H129215   6.253   4.572  15.074  0.0362  0.0401 -0.0177
 2600TIP3    H229216   6.316   4.617  15.204  0.9038  0.8522 -0.7096
 2601TIP3   OH229217   6.616   2.312  11.420 -0.0110  0.0429  0.4816
 2601TIP3    H129218   6.521   2.323  11.417 -0.1222 -0.7530  0.7547
 2601TIP3    H229219   6.637   2.310  11.513  0.4687  1.6620  0.4274
 2602TIP3   OH229220   5.546   4.783   0.656  0.0874 -0.2513 -0.2579
 2602TIP3    H129221   5.568   4.860   0.603  1.6571 -1.1259 -0.9668
 2602TIP3    H229222   5.624   4.769   0.710  0.7196 -2.5029 -1.6182
 2603TIP3   OH229223   1.323   0.461  12.552  0.6967  0.2303  0.3290
 2603TIP3    H129224   1.356   0.548  12.576  1.3913  0.4332 -1.2342
 2603TIP3    H229225   1.353   0.403  12.622  3.9023  0.5270 -0.6330
 2604TIP3   OH229226   5.547   5.243   0.133  0.8065 -0.2320 -0.2756
 2604TIP3    H129227   5.556   5.321   0.078  1.4843  0.3805  0.6708
 2604TIP3    H229228   5.566   5.274   0.222 -0.7147 -1.1030  0.3865
 2605TIP3   OH229229   6.348   3.969  12.169  0.3626 -0.2395  0.6845
 2605TIP3    H129230   6.393   4.051  12.149 -0.7319 -0.0474 -1.1902
 2605TIP3    H229231   6.350   3.963  12.265  1.4671  1.3812  0.7944
 2606TIP3   OH229232   1.642   1.806  13.989 -0.3122  0.3832 -0.6742
 2606TIP3    H129233   1.616   1.714  13.984 -1.5776  0.4710  2.1026
 2606TIP3    H229234   1.561   1.854  13.972 -0.2416  0.8889  0.3579
 2607TIP3   OH229235   4.526   5.600   0.806  0.0669 -0.3838  0.7539
 2607TIP3    H129236   4.499   5.609   0.715  2.5416  0.4405  0.0221
 2607TIP3    H229237   4.522   5.506   0.824  0.7317 -0.6884 -0.6117
 2608TIP3   OH229238   3.347   5.805  17.178  0.3980 -0.2631  0.3247
 2608TIP3    H129239   3.396   5.868  17.125 -0.2006 -0.0290  0.0431
 2608TIP3    H229240   3.409   5.734  17.194  1.3482  0.7227  1.2883
 2609TIP3   OH229241   1.178   0.547   2.522  0.0796 -0.5314  0.1452
 2609TIP3    H129242   1.147   0.466   2.482 -0.2326 -0.3390 -0.0137
 2609TIP3    H229243   1.185   0.527   2.615 -0.3866 -0.6242  0.1619
 2610TIP3   OH229244   2.550   0.247  14.814  0.4282 -0.0809 -0.6773
 2610TIP3    H129245   2.487   0.185  14.850 -1.5505  1.6566 -0.9439
 2610TIP3    H229246   2.634   0.222  14.853 -0.1517 -3.1786 -1.1965
 2611TIP3   OH229247   4.381   2.376  16.796  0.6994  0.0984 -0.3893
 2611TIP3    H129248   4.390   2.281  16.788 -0.8430 -0.0208 -0.9384
 2611TIP3    H229249   4.460   2.411  16.755  2.0980 -0.9518  1.2634
 2612TIP3   OH229250   5.754   0.328  14.341 -0.6907 -0.4080 -0.2243
 2612TIP3    H129251   5.811   0.352  14.268 -1.1545  0.9384 -0.1744
 2612TIP3    H229252   5.670   0.369  14.321 -0.3313  1.5906  1.8979
 2613TIP3   OH229253   3.885   6.198  16.661  0.1670 -0.8643  0.1367
 2613TIP3    H129254   3.836   6.116  16.646 -0.0278 -0.8105  0.4761
 2613TIP3    H229255   3.956   6.173  16.719 -1.2600 -0.3496  2.1921
 2614TIP3   OH229256   5.487   2.481   0.929  0.4658  0.1921 -0.1887
 2614TIP3    H129257   5.481   2.488   0.834 -0.7739  0.8899 -0.0826
 2614TIP3    H229258   5.397   2.481   0.959  0.8067  2.3526  1.1214
 2615TIP3   OH229259   6.385   1.020   2.545  0.1841  0.4685  0.5037
 2615TIP3    H129260   6.353   0.935   2.515 -0.2938  1.0776 -0.7840
 2615TIP3    H229261   6.474   1.025   2.512  0.2689  0.4059  0.7206
 2616TIP3   OH229262   6.137   4.190   3.745 -0.4934 -0.2857  0.2985
 2616TIP3    H129263   6.155   4.206   3.838 -1.5144 -0.1031  0.4746
 2616TIP3    H229264   6.064   4.249   3.724  0.2392  0.2600 -0.8310
 2617TIP3   OH229265   4.844   4.287  16.697  0.0106 -0.4123 -0.2752
 2617TIP3    H129266   4.789   4.365  16.698  0.2612 -0.1894 -1.7568
 2617TIP3    H229267   4.787   4.217  16.665 -0.1839 -0.8326  0.9452
 2618TIP3   OH229268   1.963   4.721  15.271  0.1661  0.6779 -0.0712
 2618TIP3    H129269   1.879   4.718  15.226 -0.0311  0.7765  0.2887
 2618TIP3    H229270   1.944   4.760  15.356  0.4208 -0.1258  0.3658
 2619TIP3   OH229271   4.858   3.660  16.867  0.1416 -0.3961  0.2166
 2619TIP3    H129272   4.915   3.584  16.851 -1.5827 -1.2770 -2.5503
 2619TIP3    H229273   4.918   3.734  16.873  1.6869 -1.4927 -0.8544
 2620TIP3   OH229274   3.547   1.702   2.560  0.6252  0.0856 -0.5374
 2620TIP3    H129275   3.566   1.746   2.643  1.6859 -0.9598 -0.2049
 2620TIP3    H229276   3.577   1.764   2.493 -2.1247  1.8643 -0.2883
 2621TIP3   OH229277   2.039   0.627   1.378  0.0887 -0.2311 -0.0323
 2621TIP3    H129278   2.124   0.621   1.334 -0.1322  2.9894 -1.1252
 2621TIP3    H229279   2.061   0.653   1.468  0.2904 -0.5234  0.0058
 2622TIP3   OH229280   5.976   6.523   3.059 -0.1296 -0.4555  0.7783
 2622TIP3    H129281   6.055   6.528   3.112  0.3987  1.1293 -0.0860
 2622TIP3    H229282   5.994   6.457   2.993 -0.0730 -1.0753  1.3983
 2623TIP3   OH229283   3.797   5.881   5.784 -0.3051 -0.4035 -0.3368
 2623TIP3    H129284   3.877   5.836   5.812 -0.0022 -0.1578 -0.7941
 2623TIP3    H229285   3.752   5.818   5.728  0.2534 -0.0470 -1.1976
 2624TIP3   OH229286   2.758   0.398   4.382  0.6410  0.2998 -0.3545
 2624TIP3    H129287   2.777   0.483   4.344  2.0577 -0.2467 -0.9445
 2624TIP3    H229288   2.844   0.363   4.406  0.1044 -1.0370 -0.2965
 2625TIP3   OH229289   1.853   1.089   1.780  0.0611 -0.2577 -0.3261
 2625TIP3    H129290   1.774   1.041   1.756  1.2274 -2.3530 -0.2752
 2625TIP3    H229291   1.918   1.060   1.715  0.7993  1.4237 -0.3812
 2626TIP3   OH229292   4.938   3.192   4.506 -0.3241  0.1174  0.1764
 2626TIP3    H129293   4.950   3.113   4.453 -1.1216 -0.9260  1.4661
 2626TIP3    H229294   4.972   3.168   4.592  0.2165  1.4904  0.3673
 2627TIP3   OH229295   1.517   2.827  12.319 -0.0236  0.4204 -0.0164
 2627TIP3    H129296   1.430   2.790  12.338 -0.1810  1.1512  0.7544
 2627TIP3    H229297   1.499   2.914  12.285  0.4170  0.6595  0.3564
 2628TIP3   OH229298   3.149   3.704   2.755 -0.6606 -0.1874 -0.5471
 2628TIP3    H129299   3.192   3.785   2.729 -0.3223  0.6244  2.1841
 2628TIP3    H229300   3.060   3.730   2.777 -1.0353 -0.8873 -1.1663
 2629TIP3   OH229301   5.268   1.406  15.996  0.2151 -0.2796  0.0546
 2629TIP3    H129302   5.344   1.464  16.010 -0.2961  0.4843 -0.2503
 2629TIP3    H229303   5.272   1.344  16.069  0.5805  0.3611  0.6030
 2630TIP3   OH229304   6.377   4.019  14.244  0.7407 -0.6879 -0.1917
 2630TIP3    H129305   6.343   3.947  14.297 -2.2608  2.0248  1.9284
 2630TIP3    H229306   6.433   4.069  14.304 -0.7124  1.0525 -0.1944
 2631TIP3   OH229307   3.080   2.616   0.647  0.2612 -0.7736 -0.0269
 2631TIP3    H129308   2.991   2.632   0.678  0.4776 -1.4274  0.9795
 2631TIP3    H229309   3.093   2.522   0.658  1.2316 -0.6169  0.2540
 2632TIP3   OH229310   2.672   3.471   5.744  0.1422 -0.2385  0.7055
 2632TIP3    H129311   2.764   3.446   5.741 -0.5943 -3.3690  0.5509
 2632TIP3    H229312   2.643   3.445   5.831 -0.6120  0.6394  0.7264
 2633TIP3   OH229313   4.889   6.543  13.421  0.5391 -0.1088 -0.1954
 2633TIP3    H129314   4.905   6.457  13.459 -1.0957 -1.0058 -1.3929
 2633TIP3    H229315   4.845   6.592  13.490  1.4448 -0.2246  0.4821
 2634TIP3   OH229316   1.523   5.982  14.526  0.3132  0.0498 -0.5107
 2634TIP3    H129317   1.431   5.984  14.553  0.3669 -0.5580 -0.2717
 2634TIP3    H229318   1.521   5.946  14.437  0.2118  1.2677 -1.0234
 2635TIP3   OH229319   5.377   3.417   0.450 -0.1517  0.1952  0.0221
 2635TIP3    H129320   5.420   3.462   0.377  0.6727 -0.3823  0.1293
 2635TIP3    H229321   5.336   3.487   0.501  0.9360  0.8135  0.0766
 2636TIP3   OH229322   6.095   4.512  15.952 -0.4163 -0.0361 -0.5819
 2636TIP3    H129323   6.127   4.580  15.894  0.2446  1.3867  1.3584
 2636TIP3    H229324   6.172   4.460  15.974 -0.6702 -0.5938 -0.9875
 2637TIP3   OH229325   0.222   2.074  14.661  0.9210 -0.0014 -0.4308
 2637TIP3    H129326   0.193   2.162  14.638  0.6168 -0.4278 -1.7898
 2637TIP3    H229327   0.293   2.087  14.724 -0.4721  1.1334  0.9634
 2638TIP3   OH229328   1.042   2.267  12.932 -0.3354 -0.3298  0.5718
 2638TIP3    H129329   0.985   2.287  12.858 -1.8655 -1.9214  1.2480
 2638TIP3    H229330   1.104   2.202  12.898  0.4860  0.6818  0.0927
 2639TIP3   OH229331   0.962   6.204   2.914  0.3613  0.4920  0.1207
 2639TIP3    H129332   1.056   6.191   2.901  0.3601  0.6980 -0.1187
 2639TIP3    H229333   0.921   6.158   2.841  0.3646  1.8464 -0.7908
 2640TIP3   OH229334   4.035   3.778   2.039 -0.0178  0.2280  0.0410
 2640TIP3    H129335   4.022   3.716   1.966 -2.3388  0.5291  0.1467
 2640TIP3    H229336   3.959   3.835   2.036  0.4643  1.0342  1.9905
 2641TIP3   OH229337   2.680   0.530   2.138  0.0338 -0.3254 -0.0435
 2641TIP3    H129338   2.719   0.542   2.224  0.5934  0.9177 -0.4492
 2641TIP3    H229339   2.615   0.600   2.130  0.3063 -0.1411 -0.7957
 2642TIP3   OH229340   0.967   2.747  17.191 -0.2457  0.0385  0.4855
 2642TIP3    H129341   0.905   2.680  17.160 -0.3115 -1.5356  3.6304
 2642TIP3    H229342   0.942   2.762  17.282  0.9924  3.0286  0.4337
 2643TIP3   OH229343   4.078   5.718   4.972 -0.0672  0.0150 -0.1144
 2643TIP3    H129344   4.013   5.772   5.016 -1.3818 -1.0735 -0.6538
 2643TIP3    H229345   4.042   5.629   4.975  0.5538 -0.3526 -1.9511
 2644TIP3   OH229346   5.318   1.863  16.049  0.2419 -0.1392  1.2128
 2644TIP3    H129347   5.244   1.827  15.999  1.1796 -2.9121  1.6248
 2644TIP3    H229348   5.278   1.894  16.131 -0.7380  0.6139  0.4831
 2645TIP3   OH229349   6.469   4.471  12.433 -0.0095  0.1141  0.3163
 2645TIP3    H129350   6.496   4.556  12.468 -0.8331  0.7178 -0.4734
 2645TIP3    H229351   6.392   4.490  12.381 -0.8117 -1.2811  0.9440
 2646TIP3   OH229352   3.587   3.597   0.553  0.1598  0.4444 -0.1261
 2646TIP3    H129353   3.675   3.595   0.513  0.0510  1.6101 -0.4569
 2646TIP3    H229354   3.601   3.566   0.642  0.6333 -0.9042 -0.6337
 2647TIP3   OH229355   4.175   4.695  12.194  1.3032  0.0071 -0.0670
 2647TIP3    H129356   4.163   4.758  12.265  0.0911 -1.6418  1.2660
 2647TIP3    H229357   4.221   4.622  12.235  1.4291 -0.5801 -1.2339
 2648TIP3   OH229358   1.432   3.094  15.744 -0.3127 -0.2558 -0.0177
 2648TIP3    H129359   1.431   3.118  15.836  1.3455 -1.4130  0.3441
 2648TIP3    H229360   1.523   3.104  15.717 -1.0362  1.7239 -2.0303
 2649TIP3   OH229361   4.191   6.222   3.098  0.3149 -0.1777  0.3870
 2649TIP3    H129362   4.229   6.185   3.018  1.2446 -1.8080  1.5352
 2649TIP3    H229363   4.262   6.271   3.139 -0.0133  0.2057  0.5137
 2650TIP3   OH229364   2.500   1.122   1.025  0.2428 -0.0631 -0.3165
 2650TIP3    H129365   2.516   1.030   1.049  0.5924  0.7195  2.9538
 2650TIP3    H229366   2.581   1.167   1.049 -0.2373  1.2678 -1.0629
 2651TIP3   OH229367   4.337   5.476  15.456  0.1639  0.3163  0.4425
 2651TIP3    H129368   4.244   5.453  15.465 -0.4873  2.4635 -0.1673
 2651TIP3    H229369   4.337   5.570  15.438  2.4720  0.3478  0.2682
 2652TIP3   OH229370   1.237   1.979   6.287 -0.0774 -0.3412 -0.0268
 2652TIP3    H129371   1.178   1.935   6.349  0.5451 -0.0452  0.7998
 2652TIP3    H229372   1.215   1.942   6.202 -1.4629 -0.2312  0.2581
 2653TIP3   OH229373   3.052   4.904   0.310 -0.1101  0.1145 -0.1606
 2653TIP3    H129374   2.972   4.954   0.292  0.7788  1.6812  0.0400
 2653TIP3    H229375   3.032   4.854   0.389 -0.3948  1.7336  0.8506
 2654TIP3   OH229376   1.058   5.627   3.860  0.0224 -0.3109 -0.0702
 2654TIP3    H129377   0.992   5.667   3.916  2.0191 -0.6104  2.6607
 2654TIP3    H229378   1.056   5.534   3.882  2.9108 -0.0262  1.9775
 2655TIP3   OH229379   6.443   2.182   4.149  0.4367 -0.3514 -0.2412
 2655TIP3    H129380   6.519   2.139   4.111  2.2934  0.6048  2.1365
 2655TIP3    H229381   6.395   2.111   4.193 -0.4944 -1.0622 -2.2713
 2656TIP3   OH229382   4.373   4.000   4.276 -0.4284 -0.0021  0.1235
 2656TIP3    H129383   4.295   3.945   4.264 -0.9113  0.2838  1.6716
 2656TIP3    H229384   4.406   3.977   4.363  1.0656  0.0918 -0.3906
 2657TIP3   OH229385   4.634   4.778  17.205 -0.4350 -0.7847 -0.1438
 2657TIP3    H129386   4.673   4.743  17.285 -1.2266 -2.4418 -0.4452
 2657TIP3    H229387   4.592   4.860  17.233 -0.8721 -1.4352  1.1953
 2658TIP3   OH229388   4.584   4.180   3.468  0.0235 -0.5602  0.2396
 2658TIP3    H129389   4.499   4.141   3.447 -0.8048  0.2776  1.7734
 2658TIP3    H229390   4.647   4.110   3.453 -0.9904 -1.3552 -0.4939
 2659TIP3   OH229391   5.186   1.631  14.915 -0.1980 -0.1174  0.7151
 2659TIP3    H129392   5.142   1.562  14.964 -0.7327 -0.0723  0.3068
 2659TIP3    H229393   5.238   1.585  14.849 -0.6018 -0.1315  0.4033
 2660TIP3   OH229394   0.607   5.447  13.363  0.4600  1.2089  0.2260
 2660TIP3    H129395   0.588   5.394  13.285  0.6486 -1.4212  1.8288
 2660TIP3    H229396   0.521   5.459  13.405  0.5536  1.3145  0.3881
 2661TIP3   OH229397   3.516   0.510  15.349  0.3687  0.4201 -0.6956
 2661TIP3    H129398   3.601   0.486  15.385  0.3420  1.4214  0.0938
 2661TIP3    H229399   3.521   0.485  15.257  0.9740 -0.8651 -0.3382
 2662TIP3   OH229400   4.780   6.474   5.205  0.3050  0.0337  0.7215
 2662TIP3    H129401   4.774   6.436   5.117 -0.7808 -2.3578  1.7154
 2662TIP3    H229402   4.701   6.526   5.215  1.1062  1.4615 -0.1674
 2663TIP3   OH229403   5.646   1.773  13.468 -0.0724  0.3007  0.3646
 2663TIP3    H129404   5.662   1.857  13.423  1.2705  0.8545  1.7551
 2663TIP3    H229405   5.704   1.777  13.545 -0.6912 -1.5185  0.9572
 2664TIP3   OH229406   1.346   1.705  11.568  0.0856 -0.1336 -0.0700
 2664TIP3    H129407   1.322   1.645  11.497  1.8867 -1.2878  0.2516
 2664TIP3    H229408   1.342   1.792  11.528  0.0940 -0.6845 -1.2987
 2665TIP3   OH229409   1.085   6.577  12.917  0.2580  0.2071 -0.4317
 2665TIP3    H129410   1.073   6.625  12.836 -0.7928  0.9676  0.1515
 2665TIP3    H229411   1.000   6.538  12.935  1.1424 -2.1937 -1.0408
 2666TIP3   OH229412   2.136   5.543  15.820 -0.1028 -0.5352 -0.2457
 2666TIP3    H129413   2.222   5.508  15.845  0.7838  2.1228  0.7173
 2666TIP3    H229414   2.147   5.571  15.730  0.3151  0.5417  0.1308
 2667TIP3   OH229415   5.663   3.248  11.135 -0.3419  0.1381 -0.3461
 2667TIP3    H129416   5.599   3.319  11.126  0.4931  0.8465 -0.9020
 2667TIP3    H229417   5.618   3.171  11.100 -1.0586  0.5173 -0.2906
 2668TIP3   OH229418   1.968   5.029   0.712 -0.2234 -0.1301  0.3818
 2668TIP3    H129419   1.877   5.030   0.682 -0.0734 -0.5352 -0.1073
 2668TIP3    H229420   2.009   4.958   0.662  0.0959 -0.6772  1.3922
 2669TIP3   OH229421   0.313   5.278   5.356 -0.1339  0.4422 -0.1949
 2669TIP3    H129422   0.324   5.308   5.266  1.7095 -0.1832 -0.2095
 2669TIP3    H229423   0.397   5.239   5.379 -0.6197  0.4426  1.7524
 2670TIP3   OH229424   2.130   4.891   1.987 -1.0193  0.0372 -0.1144
 2670TIP3    H129425   2.089   4.881   1.901 -0.9419  0.9057 -0.2619
 2670TIP3    H229426   2.223   4.901   1.968 -1.1227  1.3724 -0.0333
 2671TIP3   OH229427   3.540   0.845   4.519 -0.1968  0.2550 -0.3895
 2671TIP3    H129428   3.564   0.768   4.571  0.5898  1.2503  0.7569
 2671TIP3    H229429   3.508   0.909   4.583  0.2125  1.2897 -1.1873
 2672TIP3   OH229430   2.063   4.201  14.964 -0.6518 -0.2956 -1.1767
 2672TIP3    H129431   2.097   4.251  15.038 -1.6416 -1.9546  0.4865
 2672TIP3    H229432   1.977   4.173  14.992  0.1500 -3.6014 -1.6378
 2673TIP3   OH229433   5.212   0.350  15.203 -0.0459 -0.1573 -0.4326
 2673TIP3    H129434   5.277   0.302  15.151  0.7386  1.5339 -1.1064
 2673TIP3    H229435   5.229   0.323  15.293  1.0926 -0.3368 -0.6848
 2674TIP3   OH229436   4.608   2.427   5.566 -0.1187  0.2339  0.2261
 2674TIP3    H129437   4.552   2.497   5.533 -1.6810 -1.3173 -0.5902
 2674TIP3    H229438   4.552   2.349   5.565  2.6608 -2.0212 -3.1094
 2675TIP3   OH229439   6.200   1.741   4.859  0.3004 -0.7120  0.6030
 2675TIP3    H129440   6.189   1.798   4.935  0.1684  1.1146 -0.7044
 2675TIP3    H229441   6.287   1.762   4.825  0.6082 -1.9507  0.5704
 2676TIP3   OH229442   3.087   0.605   0.638  0.6216 -0.6073 -0.2218
 2676TIP3    H129443   3.174   0.584   0.672  0.7172 -0.4252 -0.3536
 2676TIP3    H229444   3.049   0.666   0.701  1.3313  0.8143 -1.1211
 2677TIP3   OH229445   0.752   1.955   5.554  0.3062 -0.1739 -0.1371
 2677TIP3    H129446   0.729   1.880   5.499 -0.2079  0.5273 -0.8940
 2677TIP3    H229447   0.677   2.014   5.548  0.1058 -0.2114  1.5722
 2678TIP3   OH229448   0.528   1.069   1.385 -0.0182 -0.2186  0.4859
 2678TIP3    H129449   0.463   1.058   1.454 -0.3532 -0.2806  0.1588
 2678TIP3    H229450   0.560   1.159   1.398  1.1010 -0.7526  1.7344
 2679TIP3   OH229451   4.349   4.585   6.506  0.5843 -0.2375 -0.7891
 2679TIP3    H129452   4.263   4.587   6.550  1.1462  2.2145  0.4030
 2679TIP3    H229453   4.348   4.503   6.456 -1.7157 -1.2040  0.6211
 2680TIP3   OH229454   2.683   0.571  14.501 -0.0440  0.1770 -0.1729
 2680TIP3    H129455   2.658   0.539  14.587 -0.5982 -0.5586 -0.5911
 2680TIP3    H229456   2.773   0.540  14.489  0.6778  1.7800  0.8354
 2681TIP3   OH229457   2.278   2.878   0.946 -0.0589  0.2583  0.0632
 2681TIP3    H129458   2.216   2.810   0.971 -1.2543  1.1224 -0.4570
 2681TIP3    H229459   2.364   2.837   0.956 -0.7201 -1.0967  0.4068
 2682TIP3   OH229460   2.011   6.430   0.501  0.1146 -0.0035  0.6857
 2682TIP3    H129461   1.930   6.467   0.536 -0.0463 -0.1109  0.4269
 2682TIP3    H229462   2.077   6.497   0.519 -0.5166  1.2945 -1.4736
 2683TIP3   OH229463   2.445   0.451  12.979  0.2700 -0.1002 -0.3412
 2683TIP3    H129464   2.477   0.381  13.035 -2.2470 -0.4204  0.8216
 2683TIP3    H229465   2.494   0.440  12.897  1.6209 -1.7190  0.6121
 2684TIP3   OH229466   0.655   5.715  16.656 -0.7089 -0.1064  0.7070
 2684TIP3    H129467   0.673   5.713  16.750  0.0079  1.2136  0.6218
 2684TIP3    H229468   0.634   5.624  16.634 -2.2960 -0.2169  2.3924
 2685TIP3   OH229469   3.647   0.722   1.499  0.2251 -0.7269  0.1487
 2685TIP3    H129470   3.728   0.773   1.499 -0.4462  0.3599  0.2308
 2685TIP3    H229471   3.615   0.727   1.409  0.7835 -2.0632 -0.1518
 2686TIP3   OH229472   2.754   2.599   1.534  0.4552  0.8154 -0.0908
 2686TIP3    H129473   2.751   2.549   1.452  1.6127 -1.4295  1.1115
 2686TIP3    H229474   2.836   2.648   1.529  1.3834 -0.6234  0.3565
 2687TIP3   OH229475   1.047   6.694  17.386  0.1475 -0.3265  0.1042
 2687TIP3    H129476   1.126   6.661  17.430  0.5041  0.8606  0.3809
 2687TIP3    H229477   1.044   6.787  17.408 -1.7205 -0.4794  0.6765
 2688TIP3   OH229478   3.664   0.807   0.546  0.4845  0.0940 -0.2295
 2688TIP3    H129479   3.613   0.771   0.474 -0.5812 -0.2777  0.6686
 2688TIP3    H229480   3.742   0.752   0.551 -0.0358 -0.6529 -0.3099
 2689TIP3   OH229481   0.654   5.123   1.982 -0.0994 -0.3041  0.5947
 2689TIP3    H129482   0.645   5.136   1.888  1.5610  0.0733  0.4569
 2689TIP3    H229483   0.672   5.029   1.992 -1.0417 -0.4883  0.6142
 2690TIP3   OH229484   4.553   0.550   0.998 -0.2106  0.5978  0.0083
 2690TIP3    H129485   4.644   0.526   0.981  0.1206  1.5836  0.3597
 2690TIP3    H229486   4.502   0.483   0.952  0.6796 -1.0830  1.3539
 2691TIP3   OH229487   3.935   6.510  12.331  0.3376  1.3056  0.3241
 2691TIP3    H129488   4.009   6.569  12.320  2.3962 -1.3079 -1.1208
 2691TIP3    H229489   3.974   6.422  12.328 -2.3947 -0.2173  3.1514
 2692TIP3   OH229490   6.187   2.750   4.181 -0.0993 -0.3136 -0.4020
 2692TIP3    H129491   6.125   2.761   4.253 -0.9604 -0.4448 -1.1080
 2692TIP3    H229492   6.155   2.810   4.113  2.4127  2.1463  0.3758
 2693TIP3   OH229493   2.166   3.756   3.955  0.3089  0.4867 -0.5183
 2693TIP3    H129494   2.154   3.823   3.888  0.1202  1.1065  0.1212
 2693TIP3    H229495   2.215   3.687   3.911  0.3360  0.9542 -1.2464
 2694TIP3   OH229496   5.426   0.843   2.871  0.2406  0.2990 -0.7340
 2694TIP3    H129497   5.354   0.887   2.826  0.4073  1.6331  0.2549
 2694TIP3    H229498   5.386   0.767   2.913 -0.3870  0.4572 -1.0390
 2695TIP3   OH229499   2.225   1.765   0.827 -0.0707 -0.3309 -0.2742
 2695TIP3    H129500   2.200   1.678   0.797 -1.0600 -0.1780  0.0757
 2695TIP3    H229501   2.149   1.797   0.875 -1.2408  2.2352 -3.4989
 2696TIP3   OH229502   0.128   5.749   1.965 -0.1506  0.5587 -0.5047
 2696TIP3    H129503   0.152   5.696   1.889  0.3856  0.3046 -0.1598
 2696TIP3    H229504   0.185   5.718   2.035  1.4764  2.8428 -0.7509
 2697TIP3   OH229505   2.129   4.381  14.021  0.0486 -0.3594  0.1739
 2697TIP3    H129506   2.068   4.397  14.093  0.1034  0.9031 -0.0419
 2697TIP3    H229507   2.185   4.310  14.052 -0.1397 -0.0523  1.2422
 2698TIP3   OH229508   6.279   2.939   6.284 -0.0721  0.1028  0.1589
 2698TIP3    H129509   6.276   2.909   6.375 -2.1749  2.5256  1.0174
 2698TIP3    H229510   6.251   3.030   6.289  0.3054  0.4643 -2.9015
 2699TIP3   OH229511   0.722   4.066  11.770 -0.0348 -0.6566 -0.1545
 2699TIP3    H129512   0.657   3.996  11.759  0.4371 -1.1932  0.4362
 2699TIP3    H229513   0.758   4.052  11.857 -0.7516  1.0269  0.4592
 2700TIP3   OH229514   0.751   4.100  16.698  0.4013  0.3832 -0.2664
 2700TIP3    H129515   0.725   4.028  16.641  0.1227 -0.3238  0.7209
 2700TIP3    H229516   0.669   4.130  16.737  0.3965  1.8011 -1.2681
 2701TIP3   OH229517   1.688   1.774  17.366  0.0346  0.6140 -0.3308
 2701TIP3    H129518   1.722   1.848  17.416 -0.3308  0.7180 -0.2340
 2701TIP3    H229519   1.603   1.755  17.405  0.4115 -0.2840  0.0835
 2702TIP3   OH229520   5.123   4.103   0.206  0.3217  0.4159  0.0832
 2702TIP3    H129521   5.058   4.165   0.240 -1.5135 -1.2763 -0.1425
 2702TIP3    H229522   5.086   4.072   0.124  0.8019 -1.5150  0.5472
 2703TIP3   OH229523   0.245   6.107   6.431  0.3263  0.1403  0.1250
 2703TIP3    H129524   0.229   6.201   6.423 -0.2743  0.0954  0.6814
 2703TIP3    H229525   0.291   6.098   6.514 -1.4066 -0.2283  1.1090
 2704TIP3   OH229526   5.180   1.569   2.526 -0.0916  0.0885 -0.4185
 2704TIP3    H129527   5.120   1.501   2.496 -2.0332  1.7234 -0.3965
 2704TIP3    H229528   5.236   1.586   2.450 -0.8967 -0.1311 -1.0722
 2705TIP3   OH229529   6.667   4.886  16.824  0.2742 -0.0906  0.0810
 2705TIP3    H129530   6.677   4.823  16.752 -0.9240 -4.1506  3.1149
 2705TIP3    H229531   6.574   4.906  16.825 -0.2247 -2.1170  1.8604
 2706TIP3   OH229532   5.707   2.640  15.572  0.5531  0.2674 -0.5675
 2706TIP3    H129533   5.699   2.567  15.633 -2.3435  0.6189 -0.3957
 2706TIP3    H229534   5.697   2.601  15.485  0.5680  0.2813 -0.5756
 2707TIP3   OH229535   0.565   6.068  11.910 -0.6558 -0.1589  0.3063
 2707TIP3    H129536   0.550   5.974  11.904 -2.6007  0.0942  0.4870
 2707TIP3    H229537   0.546   6.101  11.822  1.0052 -0.0255 -0.0290
 2708TIP3   OH229538   2.977   4.275   0.273  0.6372  0.6102 -0.1297
 2708TIP3    H129539   3.007   4.273   0.182  1.4754  3.1523  0.0061
 2708TIP3    H229540   2.902   4.335   0.272 -1.5316 -1.9095  0.3736
 2709TIP3   OH229541   4.708   2.508   2.773 -0.2434  0.5892  0.2450
 2709TIP3    H129542   4.717   2.603   2.760 -1.5909  1.0907  2.3933
 2709TIP3    H229543   4.771   2.488   2.843  0.4791 -0.2615 -0.6185
 2710TIP3   OH229544   1.565   5.162   0.247 -0.0208  0.5026 -0.1366
 2710TIP3    H129545   1.589   5.073   0.219  0.7101  0.4366  0.6487
 2710TIP3    H229546   1.555   5.155   0.342  0.1056  1.2760 -0.0588
 2711TIP3   OH229547   4.845   5.943  14.174 -0.2983  0.1825 -0.5259
 2711TIP3    H129548   4.913   5.998  14.136  1.7101 -0.6181  1.7107
 2711TIP3    H229549   4.871   5.854  14.154 -1.8182 -0.1091 -1.3697
 2712TIP3   OH229550   3.621   0.561   2.869 -0.4819 -0.7400  0.3977
 2712TIP3    H129551   3.692   0.500   2.848 -1.3222 -2.1888  1.5655
 2712TIP3    H229552   3.611   0.554   2.964 -1.4304  0.2944  0.3902
 2713TIP3   OH229553   2.579   3.381   0.747 -0.8845  0.4636 -0.3199
 2713TIP3    H129554   2.658   3.340   0.712 -0.3984  1.0003  0.1177
 2713TIP3    H229555   2.584   3.472   0.718 -0.7750  0.7731  0.6156
 2714TIP3   OH229556   3.936   4.264   1.329 -0.5190 -0.1345  0.2054
 2714TIP3    H129557   3.929   4.335   1.394  0.6898  0.6713 -0.5058
 2714TIP3    H229558   4.003   4.206   1.365  0.7983  0.7700 -0.6730
 2715TIP3   OH229559   1.562   1.152  13.173 -0.4827  0.6443 -0.2539
 2715TIP3    H129560   1.584   1.224  13.233  0.9650 -0.3193  0.4236
 2715TIP3    H229561   1.489   1.107  13.215  1.2015 -0.6757  1.4308
 2716TIP3   OH229562   1.633   2.665   5.561  0.1482 -0.1586 -0.4383
 2716TIP3    H129563   1.579   2.711   5.497  0.3889 -0.0661 -0.5765
 2716TIP3    H229564   1.660   2.584   5.517 -0.5139 -0.5717 -0.0908
 2717TIP3   OH229565   3.745   0.339   0.075  0.0532 -0.2258 -0.1123
 2717TIP3    H129566   3.698   0.333  -0.008 -0.0997  0.6618 -0.0985
 2717TIP3    H229567   3.829   0.379   0.054 -1.0177  2.5704  0.4950
 2718TIP3   OH229568   1.715   4.667   0.526  0.4148  0.0317 -0.0466
 2718TIP3    H129569   1.670   4.591   0.562  1.3055  0.0607  1.1589
 2718TIP3    H229570   1.710   4.733   0.595  0.0623  0.9207 -0.9008
 2719TIP3   OH229571   0.962   0.167   4.826 -0.0014  0.1238 -0.1869
 2719TIP3    H129572   1.005   0.154   4.910  0.9909 -1.0883 -0.8591
 2719TIP3    H229573   0.920   0.253   4.834 -1.2142 -0.5942  2.0652
 2720TIP3   OH229574   2.369   2.238   3.416  0.3930  0.5439 -0.2008
 2720TIP3    H129575   2.415   2.312   3.375  0.5132  1.6863  1.8641
 2720TIP3    H229576   2.422   2.215   3.491 -1.3204  0.5480  1.0811
 2721TIP3   OH229577   5.382   4.410   1.198  0.7725  0.5088 -0.4800
 2721TIP3    H129578   5.409   4.397   1.289  1.4206 -0.1270 -0.7526
 2721TIP3    H229579   5.287   4.415   1.202  0.7908  0.4919  0.2303
 2722TIP3   OH229580   3.556   0.145   5.951 -1.1950  0.1368 -0.5247
 2722TIP3    H129581   3.527   0.152   6.042 -0.4196 -1.3315 -0.1224
 2722TIP3    H229582   3.636   0.196   5.947 -0.2922 -1.1648  0.1032
 2723TIP3   OH229583   4.523   0.637  11.572  0.0750 -0.9581 -0.6065
 2723TIP3    H129584   4.592   0.703  11.574 -0.8623  0.0508 -0.1613
 2723TIP3    H229585   4.512   0.616  11.479  0.5362 -0.6444 -0.7346
 2724TIP3   OH229586   5.760   0.184   3.841  0.0316  0.0917 -0.1748
 2724TIP3    H129587   5.809   0.146   3.768  2.1694  0.5293  0.9567
 2724TIP3    H229588   5.768   0.121   3.912  0.4782  0.9557  0.5702
 2725TIP3   OH229589   5.352   6.448  16.658 -0.6678  0.2844  0.3655
 2725TIP3    H129590   5.443   6.465  16.632 -0.4728 -0.0073  0.8399
 2725TIP3    H229591   5.320   6.533  16.688 -0.0887  0.0992  1.5588
 2726TIP3   OH229592   5.732   2.499  11.117  0.4083  0.1755  0.1600
 2726TIP3    H129593   5.668   2.432  11.093  0.4124 -1.0371  3.1623
 2726TIP3    H229594   5.708   2.575  11.064 -2.4555 -0.7721 -0.0620
 2727TIP3   OH229595   0.208   4.562  11.491  0.1423  1.2294  0.0734
 2727TIP3    H129596   0.145   4.515  11.437 -0.1925  0.1447  1.3394
 2727TIP3    H229597   0.288   4.509  11.486  0.2299  1.3366  0.3249
 2728TIP3   OH229598   0.350   5.478  14.588  0.0436  0.1764  0.0404
 2728TIP3    H129599   0.319   5.476  14.498  1.0935 -1.9549 -0.3362
 2728TIP3    H229600   0.369   5.570  14.605  2.3962  0.3730 -2.8479
 2729TIP3   OH229601   6.649   2.133  12.859  0.6284  0.6671 -0.1058
 2729TIP3    H129602   6.570   2.124  12.912  0.9407 -2.0842  0.0562
 2729TIP3    H229603   6.692   2.047  12.865  0.8049  0.2104 -4.5823
 2730TIP3   OH229604   1.768   0.185   2.104 -0.1917  0.2670 -0.4492
 2730TIP3    H129605   1.748   0.093   2.084 -1.8076  0.9781 -2.4156
 2730TIP3    H229606   1.696   0.213   2.160  0.7969  0.1261  0.9404
 2731TIP3   OH229607   2.694   4.363  15.887  0.4293  0.1030  0.1221
 2731TIP3    H129608   2.615   4.317  15.857  2.8345 -3.3098 -1.8104
 2731TIP3    H229609   2.748   4.294  15.925  3.2130  1.8835 -0.3213
 2732TIP3   OH229610   0.509   1.058   3.222  0.2620 -0.5415  0.2219
 2732TIP3    H129611   0.435   1.039   3.163 -0.1546 -0.8511  0.8289
 2732TIP3    H229612   0.582   1.077   3.163  0.3786 -2.7439 -0.4734
 2733TIP3   OH229613   3.178   4.952  13.124 -0.2063  0.0103  0.4231
 2733TIP3    H129614   3.221   4.869  13.102 -2.2899 -1.1765  0.5701
 2733TIP3    H229615   3.148   4.987  13.040 -0.2191  0.0971  0.4636
 2734TIP3   OH229616   2.729   6.168  15.841 -0.2485  0.1941  0.3531
 2734TIP3    H129617   2.714   6.262  15.844 -0.3540  0.1991 -0.2391
 2734TIP3    H229618   2.683   6.139  15.763  0.1932 -0.2739  0.2619
 2735TIP3   OH229619   0.702   3.257  16.531  0.7670 -0.5757 -0.0440
 2735TIP3    H129620   0.725   3.332  16.477  1.7727 -0.5737  0.3567
 2735TIP3    H229621   0.764   3.260  16.604 -0.1904 -0.9004  0.8083
 2736TIP3   OH229622   1.407   5.574  16.125 -0.2688 -0.2820 -0.9425
 2736TIP3    H129623   1.314   5.596  16.117 -0.2181  0.1108 -0.5248
 2736TIP3    H229624   1.443   5.592  16.038 -0.2792  1.0980 -0.6867
 2737TIP3   OH229625   1.560   0.252  12.992  0.0206 -0.5124  0.1298
 2737TIP3    H129626   1.499   0.299  13.049 -0.2726  0.7478 -1.1505
 2737TIP3    H229627   1.647   0.285  13.018  0.0838 -1.4076  1.1325
 2738TIP3   OH229628   1.133   0.396   4.464  0.3603 -0.0814  0.1455
 2738TIP3    H129629   1.152   0.424   4.554 -0.2638  1.1480 -0.0766
 2738TIP3    H229630   1.049   0.349   4.471 -1.1694  2.4231 -0.1289
 2739TIP3   OH229631   3.965   0.202   3.651  0.6621  0.6292 -0.2672
 2739TIP3    H129632   3.969   0.202   3.556  0.4169  0.1335 -0.2834
 2739TIP3    H229633   3.925   0.118   3.673  1.2293  0.4976  0.2927
 2740TIP3   OH229634   6.743   1.456   3.925  0.0193 -0.7276 -0.0060
 2740TIP3    H129635   6.743   1.512   3.848  1.6339 -1.1915 -0.3914
 2740TIP3    H229636   6.833   1.461   3.959 -0.4205 -1.2216  1.3319
 2741TIP3   OH229637   5.197   0.360   0.531  0.0153 -0.5022  0.0356
 2741TIP3    H129638   5.274   0.352   0.587  0.3708  1.6576 -0.0533
 2741TIP3    H229639   5.122   0.347   0.589  0.4071 -0.5118  0.5373
 2742TIP3   OH229640   4.154   4.951  11.590 -0.0396  0.1281 -0.6295
 2742TIP3    H129641   4.107   4.891  11.531  0.0941 -0.3682 -0.2408
 2742TIP3    H229642   4.098   4.957  11.667  1.0651 -1.4351  0.3605
 2743TIP3   OH229643   0.187   5.717   3.267  0.4506  0.0578  0.0505
 2743TIP3    H129644   0.247   5.775   3.314 -2.9698  4.3047 -0.2109
 2743TIP3    H229645   0.158   5.654   3.334 -0.7760  3.0339  2.5950
 2744TIP3   OH229646   2.857   4.393  11.440  0.7071  1.0290  0.2187
 2744TIP3    H129647   2.772   4.365  11.405  0.7272  0.3068  0.7251
 2744TIP3    H229648   2.835   4.445  11.518  0.7384  0.2958  0.7266
 2745TIP3   OH229649   3.897   1.306  10.660 -0.3260  0.1440 -0.5625
 2745TIP3    H129650   3.854   1.391  10.651  1.6478  1.1873 -0.6899
 2745TIP3    H229651   3.948   1.314  10.740 -0.5957 -1.1752 -0.2398
 2746TIP3   OH229652   3.691   6.291  13.276 -0.1467 -0.4522  0.0970
 2746TIP3    H129653   3.771   6.269  13.325 -0.4020 -0.7786  0.3672
 2746TIP3    H229654   3.623   6.237  13.315 -0.5394 -0.0513 -0.0240
 2747TIP3   OH229655   3.926   2.800   5.822 -0.2947  0.0770  0.0385
 2747TIP3    H129656   3.987   2.803   5.896  0.9372  1.3035 -0.9734
 2747TIP3    H229657   3.840   2.784   5.862  0.2987  0.9186  1.7439
 2748TIP3   OH229658   2.898   4.823  13.824  0.3343  0.0832  0.2878
 2748TIP3    H129659   2.851   4.906  13.831 -0.7113 -0.4440 -0.4201
 2748TIP3    H229660   2.886   4.795  13.734  0.9437 -0.6963  0.4340
 2749TIP3   OH229661   4.412   6.636   3.414  0.3059  0.0842  0.0199
 2749TIP3    H129662   4.392   6.704   3.349  0.0308  0.8493  0.8771
 2749TIP3    H229663   4.493   6.596   3.383  1.7763  2.3687  0.6629
 2750TIP3   OH229664   5.519   1.047  15.962 -0.0532  0.4348 -0.6100
 2750TIP3    H129665   5.582   1.094  15.906  1.0627 -0.5726 -0.2357
 2750TIP3    H229666   5.553   1.059  16.051 -0.3373 -0.2234 -0.4121
 2751TIP3   OH229667   0.941   2.029  11.501  0.5276  0.0846 -0.1958
 2751TIP3    H129668   0.978   1.963  11.560 -0.1802  1.0503  1.3842
 2751TIP3    H229669   0.883   1.980  11.443 -0.8465 -0.5873  1.6720
 2752TIP3   OH229670   2.504   6.279  16.878 -0.0667 -0.4725  0.2238
 2752TIP3    H129671   2.431   6.218  16.888 -1.4012  0.6127 -2.0319
 2752TIP3    H229672   2.516   6.288  16.783  0.1293  2.5935  0.4107
 2753TIP3   OH229673   6.442   0.053  12.746 -0.6172  0.0931  0.1251
 2753TIP3    H129674   6.458   0.136  12.702 -1.8890  0.4932  0.3846
 2753TIP3    H229675   6.520   0.040  12.801  0.3050  0.3089 -1.1019
 2754TIP3   OH229676   0.456   0.078   0.289  0.8131 -0.9854  0.0859
 2754TIP3    H129677   0.432   0.170   0.276  0.9213 -1.1103 -1.1786
 2754TIP3    H229678   0.381   0.039   0.333  1.5259  0.1030  2.4449
 2755TIP3   OH229679   1.724   5.869   6.058 -0.1917  0.3923 -0.4577
 2755TIP3    H129680   1.641   5.829   6.084  0.0141  1.1386  1.5951
 2755TIP3    H229681   1.700   5.936   5.994 -1.4717  1.7190  1.2747
 2756TIP3   OH229682   2.574   3.348  13.154  0.2130 -0.4157  0.2768
 2756TIP3    H129683   2.646   3.290  13.181  0.1214 -1.0078 -0.7006
 2756TIP3    H229684   2.495   3.301  13.180  0.1560  0.6539  2.1938
 2757TIP3   OH229685   4.291   0.469  14.971  0.5017 -0.8472  0.1396
 2757TIP3    H129686   4.210   0.427  14.998 -0.7878  0.3362 -1.6940
 2757TIP3    H229687   4.323   0.415  14.899  0.7798 -0.6738  0.1309
 2758TIP3   OH229688   3.416   1.506  14.496 -0.1497  0.1652  0.5333
 2758TIP3    H129689   3.487   1.539  14.552  0.0928  0.0474  0.3010
 2758TIP3    H229690   3.462   1.469  14.420 -0.5319  3.4720 -1.5066
 2759TIP3   OH229691   5.418   2.436   1.303  0.3787  0.4792  0.8091
 2759TIP3    H129692   5.419   2.340   1.304 -0.4760  0.4414  2.4470
 2759TIP3    H229693   5.510   2.461   1.298  0.7212 -0.4569  1.9172
 2760TIP3   OH229694   2.497   5.441   3.438  0.2637 -0.2662  0.2976
 2760TIP3    H129695   2.575   5.468   3.391  0.3653 -2.0674 -0.6255
 2760TIP3    H229696   2.506   5.347   3.450 -1.8560 -0.5655 -0.0229
 2761TIP3   OH229697   4.682   0.317   0.819  0.4469  0.6341 -0.6203
 2761TIP3    H129698   4.741   0.384   0.784  0.2055  0.0203 -2.2587
 2761TIP3    H229699   4.737   0.239   0.826  0.5406  0.7807  0.6207
 2762TIP3   OH229700   0.785   5.984   3.110 -0.2166 -0.0861 -0.6345
 2762TIP3    H129701   0.833   6.038   3.173  1.6918  0.3762 -2.3870
 2762TIP3    H229702   0.704   6.032   3.093  0.1643  0.7909 -0.0458
 2763TIP3   OH229703   2.413   1.309   3.795 -0.0485 -0.0103 -0.2963
 2763TIP3    H129704   2.392   1.333   3.705  0.2666 -1.7345 -0.8686
 2763TIP3    H229705   2.343   1.248   3.821  0.4506 -0.3769  0.2234
 2764TIP3   OH229706   5.206   1.096  12.370 -0.4617 -0.2475  0.3702
 2764TIP3    H129707   5.128   1.099  12.424 -0.6774 -0.7391  0.0883
 2764TIP3    H229708   5.209   1.181  12.327 -0.3566  0.1005  1.0511
 2765TIP3   OH229709   4.434   4.123   6.550  0.0280  0.1955  0.4349
 2765TIP3    H129710   4.384   4.066   6.609 -0.1865  0.5742  0.6182
 2765TIP3    H229711   4.489   4.062   6.501 -0.6870 -0.2425  0.1479
 2766TIP3   OH229712   0.425   4.197   2.520  0.2563  0.3278  0.0963
 2766TIP3    H129713   0.398   4.274   2.470 -0.3402 -0.1096 -0.2676
 2766TIP3    H229714   0.486   4.232   2.585 -0.3597  1.1758  0.2410
 2767TIP3   OH229715   5.569   4.420   0.331  0.0995 -0.0781  0.2655
 2767TIP3    H129716   5.497   4.358   0.326  1.0050 -1.2671  1.2088
 2767TIP3    H229717   5.528   4.504   0.352 -1.3218  0.0651 -2.5522
 2768TIP3   OH229718   4.378   6.353   0.360  0.2243  0.9816  0.0357
 2768TIP3    H129719   4.395   6.425   0.299  0.5410  0.3687 -0.6058
 2768TIP3    H229720   4.344   6.282   0.306 -0.5899  0.8145  0.7426
 2769TIP3   OH229721   5.464   2.463  16.910  0.6986 -0.0788  0.1526
 2769TIP3    H129722   5.518   2.502  16.840 -0.3812 -0.2526 -0.8027
 2769TIP3    H229723   5.391   2.422  16.864  0.6418 -1.3475  1.3022
 2770TIP3   OH229724   3.723   4.888   4.281 -0.2646  0.0588 -0.2935
 2770TIP3    H129725   3.655   4.944   4.318  0.8337  1.1003  0.2107
 2770TIP3    H229726   3.678   4.807   4.258 -1.2495 -0.1688  2.1697
 2771TIP3   OH229727   6.003   4.466   0.202  0.5161  0.0254 -0.2265
 2771TIP3    H129728   6.046   4.421   0.274  0.3162 -0.3449 -0.3380
 2771TIP3    H229729   6.011   4.559   0.224  0.7104 -0.0737  0.1269
 2772TIP3   OH229730   1.671   1.484  15.264 -0.2546  0.3308 -0.2939
 2772TIP3    H129731   1.642   1.500  15.353  0.9909  0.9072  0.0405
 2772TIP3    H229732   1.611   1.418  15.230 -1.9454  1.4924  0.2976
 2773TIP3   OH229733   4.309   1.138  17.025 -0.2137  0.5369  0.1489
 2773TIP3    H129734   4.362   1.200  16.974 -0.5906  0.4052 -0.3994
 2773TIP3    H229735   4.367   1.112  17.097  0.6103  0.0941 -0.6622
 2774TIP3   OH229736   0.437   4.727  15.340  0.0303 -0.4294 -0.2637
 2774TIP3    H129737   0.362   4.784  15.358  1.5553  1.2379  1.1882
 2774TIP3    H229738   0.471   4.703  15.427  1.6061 -0.5265 -0.8698
 2775TIP3   OH229739   4.693   1.137  16.122  0.4049  0.1581 -0.4533
 2775TIP3    H129740   4.674   1.228  16.144 -1.7330 -0.3183 -0.1252
 2775TIP3    H229741   4.729   1.140  16.033 -0.4057  1.2571 -0.7567
 2776TIP3   OH229742   2.419   3.888   5.203 -0.2960  0.0345  0.1541
 2776TIP3    H129743   2.429   3.810   5.149  0.9070  0.7808 -0.7713
 2776TIP3    H229744   2.339   3.929   5.171  0.4894  0.5551 -1.2359
 2777TIP3   OH229745   3.568   0.717   0.867 -0.2293  0.2163  0.1150
 2777TIP3    H129746   3.572   0.798   0.816  1.2099  0.0587 -0.0525
 2777TIP3    H229747   3.623   0.656   0.819  0.7775 -0.0834  1.6066
 2778TIP3   OH229748   2.684   5.462  14.172  0.1220  0.0940  0.2036
 2778TIP3    H129749   2.594   5.475  14.204 -0.0689  0.1293 -0.3330
 2778TIP3    H229750   2.673   5.447  14.078  0.8240  1.8742 -0.1990
 2779TIP3   OH229751   1.565   2.746   4.630  0.2357  0.3558 -0.2347
 2779TIP3    H129752   1.592   2.749   4.722  2.2109  0.0156 -0.7366
 2779TIP3    H229753   1.545   2.836   4.608 -0.0343  0.4773  0.4729
 2780TIP3   OH229754   3.562   4.907   5.317 -0.3349  0.8698 -0.4388
 2780TIP3    H129755   3.619   4.857   5.375 -0.7809  1.3739  0.4526
 2780TIP3    H229756   3.622   4.951   5.256  0.0145 -2.4076 -2.7293
 2781TIP3   OH229757   1.726   4.889   0.797 -0.0331 -0.0680 -0.4717
 2781TIP3    H129758   1.723   4.979   0.829  0.6292 -0.4810  0.8108
 2781TIP3    H229759   1.643   4.851   0.824 -0.0083 -0.0531 -0.3752
 2782TIP3   OH229760   4.281   1.986   3.803 -0.2204  0.2267 -0.2898
 2782TIP3    H129761   4.290   2.073   3.843 -0.6960  1.0672 -1.8930
 2782TIP3    H229762   4.214   1.943   3.855  0.6465  0.4682  1.0749
 2783TIP3   OH229763   4.277   3.058   1.408 -0.3742 -0.4935  0.5593
 2783TIP3    H129764   4.286   3.128   1.472 -0.9355 -0.4833  0.6294
 2783TIP3    H229765   4.345   2.995   1.431  0.4812  0.2753  0.1714
 2784TIP3   OH229766   3.311   3.727  13.145  0.2258 -0.4479  0.1591
 2784TIP3    H129767   3.366   3.784  13.092 -0.8387  0.2427 -0.2332
 2784TIP3    H229768   3.266   3.671  13.081 -1.1069  0.4256  0.3033
 2785TIP3   OH229769   5.509   2.231   4.186 -0.3353  0.3217 -0.4518
 2785TIP3    H129770   5.461   2.304   4.225 -2.4032 -1.0026 -0.3073
 2785TIP3    H229771   5.464   2.216   4.103  0.2819 -0.5528 -0.6378
 2786TIP3   OH229772   4.502   3.445  13.562  0.2806 -0.1960  0.2546
 2786TIP3    H129773   4.481   3.529  13.603  1.7517  0.2063  0.2241
 2786TIP3    H229774   4.521   3.387  13.635  2.0302  0.2843  0.2303
 2787TIP3   OH229775   5.987   5.560  12.273 -0.2708  0.5502 -0.0282
 2787TIP3    H129776   6.033   5.476  12.260 -0.9694 -0.0533  1.1853
 2787TIP3    H229777   6.036   5.603  12.343 -0.3510  0.8135 -0.1361
 2788TIP3   OH229778   5.598   6.307   3.469 -0.1990 -0.0139  0.6087
 2788TIP3    H129779   5.514   6.311   3.422 -0.0850 -1.2658  0.2646
 2788TIP3    H229780   5.589   6.370   3.540 -1.8653 -0.9445  1.2641
 2789TIP3   OH229781   4.209   1.049   3.683  0.2278 -0.3770 -0.0370
 2789TIP3    H129782   4.117   1.037   3.660  0.3729 -2.0317  0.1636
 2789TIP3    H229783   4.207   1.107   3.759 -0.4752  1.7734 -1.5869
 2790TIP3   OH229784   4.561   5.712  16.603  0.3516  0.4912  0.2677
 2790TIP3    H129785   4.484   5.739  16.551  1.0822  0.4179 -0.8976
 2790TIP3    H229786   4.598   5.795  16.634  0.2128  0.5714  0.2232
 2791TIP3   OH229787   3.547   0.289  13.608  0.0361 -0.5099 -0.6652
 2791TIP3    H129788   3.509   0.254  13.528  0.9320  0.7844 -1.7032
 2791TIP3    H229789   3.482   0.351  13.641 -0.0549 -0.5536 -0.7622
 2792TIP3   OH229790   2.001   6.158   2.662 -0.3684  0.5187 -0.3096
 2792TIP3    H129791   2.031   6.126   2.577  0.0763 -1.1060  0.4216
 2792TIP3    H229792   1.906   6.142   2.662 -0.2241 -0.4034 -0.1419
 2793TIP3   OH229793   2.910   5.291  13.655  0.7092  0.0800  0.1786
 2793TIP3    H129794   2.955   5.296  13.571  1.1137 -1.3131  0.2875
 2793TIP3    H229795   2.818   5.311  13.634  1.2320  2.3863 -0.1302
 2794TIP3   OH229796   4.422   0.609   1.550  0.0664  0.6274  0.1088
 2794TIP3    H129797   4.406   0.652   1.467 -1.4993 -1.2811 -0.6550
 2794TIP3    H229798   4.515   0.623   1.567  0.5607  0.5315 -2.2732
 2795TIP3   OH229799   5.477   4.354  11.496 -0.1917  0.6295  0.1013
 2795TIP3    H129800   5.389   4.392  11.491 -0.3102  0.3433 -0.0031
 2795TIP3    H229801   5.522   4.390  11.420 -0.0902  1.0938  0.3769
 2796TIP3   OH229802   3.731   3.144   3.589  0.7240 -0.7981  0.5857
 2796TIP3    H129803   3.739   3.057   3.549  0.6582 -0.8102  0.5982
 2796TIP3    H229804   3.714   3.126   3.682 -0.5951 -0.7988  0.3705
 2797TIP3   OH229805   4.938   5.490   6.112  0.8745  0.1319  0.1045
 2797TIP3    H129806   5.018   5.467   6.157 -0.6625 -0.8017  2.5222
 2797TIP3    H229807   4.940   5.586   6.107  2.3389  0.1062 -0.4055
 2798TIP3   OH229808   3.469   5.800  13.771 -0.0782 -0.0642  0.1289
 2798TIP3    H129809   3.433   5.837  13.690 -1.0260  2.4793  1.6009
 2798TIP3    H229810   3.396   5.804  13.833  0.7890 -1.4387  1.2701
 2799TIP3   OH229811   1.012   2.853   5.295 -0.7281  0.2196  0.3963
 2799TIP3    H129812   0.961   2.928   5.264 -2.0265 -0.6328  0.3869
 2799TIP3    H229813   1.072   2.890   5.360 -1.6115  1.1973  0.6842
 2800TIP3   OH229814   6.197   6.406  11.578 -0.3609  0.0971  0.2913
 2800TIP3    H129815   6.282   6.361  11.583 -1.0755 -1.2728  0.5441
 2800TIP3    H229816   6.162   6.380  11.493 -0.8161  0.1215  0.4720
 2801TIP3   OH229817   1.040   0.328  12.493 -0.0082 -0.2809  0.0126
 2801TIP3    H129818   1.120   0.297  12.537 -0.0567  0.4154  0.6083
 2801TIP3    H229819   0.993   0.377  12.560  0.5531  1.9773 -1.1596
 2802TIP3   OH229820   0.259   6.134   3.936 -0.2466 -0.0680  0.1763
 2802TIP3    H129821   0.222   6.168   4.017  1.0419 -2.3121  1.8274
 2802TIP3    H229822   0.342   6.181   3.926 -0.9277  1.0331 -0.5295
 2803TIP3   OH229823   1.741   6.263   2.689 -0.1972 -0.5613  0.2358
 2803TIP3    H129824   1.784   6.341   2.656  1.4773 -1.8071 -0.6642
 2803TIP3    H229825   1.740   6.275   2.784  0.4180  0.3565  0.1436
 2804TIP3   OH229826   5.416   3.841  16.327  0.1501 -0.5109  0.0014
 2804TIP3    H129827   5.485   3.836  16.394  1.4231 -2.5664 -1.3529
 2804TIP3    H229828   5.338   3.869  16.375  1.8710  2.0395  1.5853
 2805TIP3   OH229829   2.839   5.860   3.817  0.2212 -0.3456  0.2225
 2805TIP3    H129830   2.917   5.837   3.868  0.3069 -1.1207 -0.2366
 2805TIP3    H229831   2.768   5.856   3.881  0.3491 -1.1658  0.3325
 2806TIP3   OH229832   1.348   1.343  12.879 -0.0959  0.0414  0.2447
 2806TIP3    H129833   1.258   1.338  12.912 -0.4838  2.9176 -0.1080
 2806TIP3    H229834   1.339   1.372  12.789  1.1954  1.5657  0.5705
 2807TIP3   OH229835   4.766   3.797  16.006  0.1686 -0.0426 -0.5277
 2807TIP3    H129836   4.736   3.887  15.992  3.2958  1.2808  0.3605
 2807TIP3    H229837   4.821   3.778  15.930  0.3708 -0.8169 -0.2033
 2808TIP3   OH229838   5.232   0.452  12.572 -0.4111  0.2286 -0.2708
 2808TIP3    H129839   5.303   0.515  12.563  1.3556 -1.5711  0.4668
 2808TIP3    H229840   5.236   0.423  12.664 -1.5979 -0.4791 -0.4141
 2809TIP3   OH229841   4.755   5.514  14.089  0.0352  0.2437 -0.1641
 2809TIP3    H129842   4.816   5.552  14.025  0.1634  1.0085  0.3955
 2809TIP3    H229843   4.745   5.423  14.061 -0.8763  0.8519 -2.0146
 2810TIP3   OH229844   0.367   5.444   0.793  0.3710 -0.1911 -0.0139
 2810TIP3    H129845   0.374   5.518   0.732  1.1050  0.1640  0.4784
 2810TIP3    H229846   0.273   5.432   0.805  0.2347  0.4257 -0.3849
 2811TIP3   OH229847   1.746   3.492   3.787  0.0154 -0.3429  0.0953
 2811TIP3    H129848   1.674   3.556   3.789 -0.3421 -0.6529 -1.3147
 2811TIP3    H229849   1.715   3.425   3.726 -0.1340 -2.5210  2.4177
 2812TIP3   OH229850   3.295   4.436   3.730  0.1316 -0.6871 -0.3073
 2812TIP3    H129851   3.250   4.425   3.814  1.2364  1.2471  0.6110
 2812TIP3    H229852   3.249   4.509   3.688  1.0349 -0.1090 -0.3148
 2813TIP3   OH229853   4.802   4.331   1.920  0.4192 -0.2987 -0.2566
 2813TIP3    H129854   4.843   4.364   2.001  0.1142  1.0987 -0.6406
 2813TIP3    H229855   4.786   4.238   1.937 -2.3441  0.5106  2.4419
 2814TIP3   OH229856   6.682   3.447  13.762 -0.8100  0.7998  0.4113
 2814TIP3    H129857   6.766   3.445  13.809 -0.7688 -1.8089  0.3398
 2814TIP3    H229858   6.632   3.516  13.806  1.1704  2.0905  0.7576
 2815TIP3   OH229859   6.560   1.919  11.415 -0.1187 -0.2478  0.0962
 2815TIP3    H129860   6.596   1.938  11.501  0.6713 -1.2414 -0.0057
 2815TIP3    H229861   6.500   1.992  11.397  0.1542  0.2603  1.2238
 2816TIP3   OH229862   3.348   3.098  11.969 -0.4504  0.6571 -0.1913
 2816TIP3    H129863   3.328   3.168  11.907 -0.9192  0.2781 -0.4695
 2816TIP3    H229864   3.263   3.060  11.991 -0.2002  0.2062 -0.0032
 2817TIP3   OH229865   3.414   1.504   5.821 -0.4804  0.3431  0.7490
 2817TIP3    H129866   3.355   1.479   5.749 -1.4611  1.9261  0.9631
 2817TIP3    H229867   3.455   1.422   5.846 -0.1480 -0.2911 -1.5708
 2818TIP3   OH229868   0.184   1.610  17.312  0.6554 -0.4448 -0.1233
 2818TIP3    H129869   0.188   1.566  17.397  0.5570 -0.2824 -0.0345
 2818TIP3    H229870   0.153   1.698  17.332 -0.7080 -0.8224 -0.4760
 2819TIP3   OH229871   3.702   1.111  15.102 -0.4795  0.3014 -0.2568
 2819TIP3    H129872   3.635   1.097  15.169 -0.1987  0.3947  0.0440
 2819TIP3    H229873   3.752   1.029  15.102 -1.0106 -0.0405 -0.9660
 2820TIP3   OH229874   4.966   6.467  10.920 -0.0244 -0.1739 -0.3948
 2820TIP3    H129875   5.029   6.531  10.889  1.3727 -1.5021 -0.4151
 2820TIP3    H229876   4.902   6.460  10.849 -0.3486  1.3508 -0.2820
 2821TIP3   OH229877   5.490   6.299   5.886  0.5760  0.1597 -0.3718
 2821TIP3    H129878   5.503   6.394   5.881  0.8478  0.0378 -3.8129
 2821TIP3    H229879   5.395   6.289   5.890  0.3112  0.6196 -3.3902
 2822TIP3   OH229880   4.375   4.537   4.853 -0.0372  0.1200 -0.0278
 2822TIP3    H129881   4.365   4.629   4.878 -0.4973  0.1663 -0.3605
 2822TIP3    H229882   4.461   4.532   4.812  0.1023  0.3446  0.2342
 2823TIP3   OH229883   2.482   5.101   4.062  0.1836  0.0948 -0.1564
 2823TIP3    H129884   2.400   5.123   4.019  0.5362  2.3760  0.2373
 2823TIP3    H229885   2.535   5.180   4.054  1.7341 -0.7762  1.0368
 2824TIP3   OH229886   4.436   5.230  15.101 -0.0277  0.4159 -0.5391
 2824TIP3    H129887   4.488   5.279  15.165  0.1344 -1.0148  0.4638
 2824TIP3    H229888   4.468   5.140  15.107  1.4328  0.5367 -4.1300
 2825TIP3   OH229889   2.486   5.987  15.126 -0.3307  0.4888  0.5547
 2825TIP3    H129890   2.463   6.024  15.041 -1.5820  0.1641  0.7342
 2825TIP3    H229891   2.403   5.983  15.174  0.1388 -0.5619  1.3102
 2826TIP3   OH229892   2.979   3.874  16.745  0.3267 -0.4832  0.5433
 2826TIP3    H129893   2.991   3.969  16.744  2.1875 -0.6510 -1.3113
 2826TIP3    H229894   3.052   3.842  16.799  1.6599 -0.9645 -1.4479
 2827TIP3   OH229895   2.280   6.690  12.722  0.3188 -0.1069 -0.0379
 2827TIP3    H129896   2.286   6.690  12.817 -3.3050  0.2210  0.3342
 2827TIP3    H229897   2.318   6.607  12.695  1.5532 -0.1280  1.6285
 2828TIP3   OH229898   5.651   1.413  10.954 -0.3752  0.6471  0.4916
 2828TIP3    H129899   5.650   1.325  10.991  0.3591  0.0130 -0.9144
 2828TIP3    H229900   5.729   1.414  10.898 -0.7086  1.9877  0.0215
 2829TIP3   OH229901   5.736   0.006   5.720  0.2006  0.2890 -0.7024
 2829TIP3    H129902   5.744   0.086   5.772 -0.4369  0.7217 -1.2544
 2829TIP3    H229903   5.655  -0.034   5.751  0.2446  0.1287 -0.7953
 2830TIP3   OH229904   4.585   0.731   3.100 -0.1124  0.1672 -0.1388
 2830TIP3    H129905   4.509   0.677   3.120  0.9630 -1.1202  0.6180
 2830TIP3    H229906   4.648   0.712   3.170  1.6474 -0.2746 -1.7406
 2831TIP3   OH229907   3.933   3.081  15.036  0.1906 -0.3297  0.1630
 2831TIP3    H129908   3.937   2.989  15.063 -0.3184 -0.0466  1.2400
 2831TIP3    H229909   3.907   3.077  14.944 -2.4891 -1.2528  0.8555
 2832TIP3   OH229910   2.913   0.995   5.240 -0.3082  0.3905 -0.2935
 2832TIP3    H129911   2.864   0.922   5.201  0.5780 -0.0331 -0.6318
 2832TIP3    H229912   2.881   1.073   5.195 -4.1944  0.8565  2.6782
 2833TIP3   OH229913   5.909   5.075  16.581  0.2743 -0.5837  0.1144
 2833TIP3    H129914   5.814   5.090  16.582  0.5758  1.7326 -0.9726
 2833TIP3    H229915   5.932   5.079  16.488  1.5039 -0.7527  0.4012
 2834TIP3   OH229916   5.782   4.691   1.601  0.6342 -0.2166 -0.8028
 2834TIP3    H129917   5.851   4.654   1.657  1.3312  0.4124 -1.2298
 2834TIP3    H229918   5.783   4.785   1.621  2.1182  0.3533 -3.0923
 2835TIP3   OH229919   5.327   2.626  12.971  0.0945  0.1713  0.4157
 2835TIP3    H129920   5.274   2.681  12.913  0.5494  0.0202 -0.1476
 2835TIP3    H229921   5.291   2.538  12.959  1.1911 -0.1313 -0.8351
 2836TIP3   OH229922   6.264   0.298  12.568 -0.0223  0.1494 -0.1416
 2836TIP3    H129923   6.271   0.305  12.663  0.4540  1.0884 -0.2263
 2836TIP3    H229924   6.352   0.319  12.537 -0.8944  3.1420 -0.9156
 2837TIP3   OH229925   6.073   3.619   4.094 -0.0513 -0.2823  0.7750
 2837TIP3    H129926   6.093   3.607   4.001 -2.6293 -0.3309  0.1451
 2837TIP3    H229927   6.154   3.651   4.132  1.6069 -1.9296 -1.1232
 2838TIP3   OH229928   1.807   6.024   2.124  0.1551  0.3445 -0.5066
 2838TIP3    H129929   1.740   5.960   2.145 -1.8540  2.1687 -1.0436
 2838TIP3    H229930   1.784   6.101   2.176  2.1018  0.9150 -0.3891
 2839TIP3   OH229931   3.324   6.572  15.974  0.1886  0.0832 -0.3097
 2839TIP3    H129932   3.274   6.598  15.897 -0.0463  0.0016 -0.1852
 2839TIP3    H229933   3.355   6.654  16.012 -0.3603  0.1728 -0.0458
 2840TIP3   OH229934   0.877   3.046   1.703  0.3189 -0.0820 -0.1861
 2840TIP3    H129935   0.870   3.140   1.692 -0.7018 -0.1316 -0.0467
 2840TIP3    H229936   0.969   3.031   1.726  0.2560  0.9791  0.8167
 2841TIP3   OH229937   2.480   0.463  13.967 -0.5645  0.7464 -0.4475
 2841TIP3    H129938   2.576   0.463  13.966 -0.5614  0.7924 -0.2652
 2841TIP3    H229939   2.456   0.389  13.911 -0.4208  0.6942 -0.4425
 2842TIP3   OH229940   0.780   1.797   4.902 -0.2984 -0.0107 -0.0742
 2842TIP3    H129941   0.864   1.752   4.898  0.3461  1.1746 -0.4095
 2842TIP3    H229942   0.762   1.808   4.995 -0.1803 -0.4330  0.0001
 2843TIP3   OH229943   4.190   5.524  12.668 -0.3868  0.2803  0.3178
 2843TIP3    H129944   4.270   5.537  12.617 -1.0691  0.7571 -0.6550
 2843TIP3    H229945   4.213   5.552  12.757  0.5310  0.3912  0.0528
 2844TIP3   OH229946   4.717   2.599  14.607  0.2556  0.0072 -0.3935
 2844TIP3    H129947   4.770   2.568  14.681 -0.2235 -0.6357 -0.3005
 2844TIP3    H229948   4.644   2.537  14.604 -1.5599  1.9786  0.7116
 2845TIP3   OH229949   5.533   5.585   3.238 -0.1042  0.2351  0.1708
 2845TIP3    H129950   5.597   5.656   3.245  1.4337 -1.0073 -0.5284
 2845TIP3    H229951   5.584   5.505   3.252 -1.8538 -0.7454  1.3443
 2846TIP3   OH229952   1.475   0.928   0.433 -0.4300 -0.2236  0.1488
 2846TIP3    H129953   1.458   0.919   0.339  0.8159  0.7989 -0.1986
 2846TIP3    H229954   1.511   0.843   0.459 -0.8370 -0.5320 -0.2804
 2847TIP3   OH229955   6.565   2.998  11.915 -0.1325 -0.4831 -0.0595
 2847TIP3    H129956   6.636   2.940  11.941  1.1718  0.6786 -0.8644
 2847TIP3    H229957   6.593   3.085  11.944 -0.4115  0.2637 -1.9178
 2848TIP3   OH229958   0.071   4.791   0.991  0.1768  0.1588 -0.1089
 2848TIP3    H129959   0.145   4.796   0.931  0.3237 -0.5321  0.0045
 2848TIP3    H229960   0.082   4.865   1.050  1.6945 -0.8517  0.9275
 2849TIP3   OH229961   5.017   1.506   3.363  0.1820 -0.4511 -0.1491
 2849TIP3    H129962   4.928   1.488   3.332  0.0573 -1.1491  0.5908
 2849TIP3    H229963   5.017   1.599   3.383 -0.6504 -0.6152  0.6791
 2850TIP3   OH229964   3.054   4.516   3.035  0.1932  0.0360  0.2440
 2850TIP3    H129965   3.143   4.510   3.002  0.4516  2.3141  0.3886
 2850TIP3    H229966   3.020   4.598   3.000 -1.7313 -0.5962  0.5002
 2851TIP3   OH229967   6.673   1.002   4.765 -0.3207 -0.1627  0.0798
 2851TIP3    H129968   6.713   1.057   4.698 -1.6413  0.6536 -0.0718
 2851TIP3    H229969   6.672   1.056   4.844  0.9008 -0.9913  0.6968
 2852TIP3   OH229970   2.311   1.437  14.755 -0.2954  0.5160  0.4942
 2852TIP3    H129971   2.264   1.370  14.705  0.5947 -0.9145  1.4935
 2852TIP3    H229972   2.318   1.511  14.695  1.7285 -1.5033 -2.0214
 2853TIP3   OH229973   6.164   4.547  13.605  0.4939 -0.0107 -0.3212
 2853TIP3    H129974   6.214   4.532  13.525 -1.1485 -0.0189 -1.4034
 2853TIP3    H229975   6.198   4.483  13.667 -0.1346 -2.0519 -1.9416
 2854TIP3   OH229976   2.293   4.471   1.414 -0.5934  0.3668 -0.2495
 2854TIP3    H129977   2.265   4.445   1.502 -1.3029  1.0681 -0.2589
 2854TIP3    H229978   2.276   4.394   1.360 -0.2058 -0.0479  0.2157
 2855TIP3   OH229979   6.224   4.598  12.344 -0.5395 -0.1087 -0.9586
 2855TIP3    H129980   6.179   4.515  12.330 -1.4936  0.3805 -0.8741
 2855TIP3    H229981   6.164   4.649  12.399  0.7896 -0.0082  0.4759
 2856TIP3   OH229982   4.814   5.129  12.854  0.0046 -0.0815 -0.5925
 2856TIP3    H129983   4.799   5.186  12.779 -1.8540 -0.9403 -0.9350
 2856TIP3    H229984   4.802   5.186  12.930 -1.1035  0.1712 -0.9344
 2857TIP3   OH229985   2.909   4.185  11.947  0.5016 -0.1500 -0.0724
 2857TIP3    H129986   2.979   4.211  11.886 -0.5350  1.2703 -0.7278
 2857TIP3    H229987   2.838   4.157  11.890  0.2024 -0.6827  0.5597
 2858TIP3   OH229988   3.828   2.897  13.818  0.4091  0.4527 -0.5524
 2858TIP3    H129989   3.773   2.943  13.882  0.3010 -1.6557  0.9656
 2858TIP3    H229990   3.770   2.833  13.778  1.0665  0.1499 -1.0421
 2859TIP3   OH229991   5.841   0.872   6.129 -0.2249 -0.3695  0.3046
 2859TIP3    H129992   5.808   0.958   6.157 -0.6713 -0.5801  0.4356
 2859TIP3    H229993   5.926   0.864   6.172  0.6243  0.7563 -1.1094
 2860TIP3   OH229994   5.483   6.162  15.646 -0.2818 -0.1080  0.0010
 2860TIP3    H129995   5.405   6.108  15.631 -0.1991 -0.0535 -0.6786
 2860TIP3    H229996   5.547   6.101  15.683 -0.0504 -0.6047 -1.1385
 2861TIP3   OH229997   1.345   3.776  12.360 -0.2190 -0.1582 -0.6665
 2861TIP3    H129998   1.368   3.712  12.427  0.1375 -0.2005 -0.8262
 2861TIP3    H229999   1.253   3.757  12.340 -0.1700 -0.5000 -0.5792
 2862TIP3   OH230000   0.835   5.801  15.347  0.1504  0.5822 -0.1230
 2862TIP3    H130001   0.801   5.713  15.360 -0.4677  0.7255 -0.7730
 2862TIP3    H230002   0.810   5.825  15.258  1.6363  0.8311 -0.5020
 2863TIP3   OH230003   6.488   0.534   4.527  0.3829 -0.2363  0.3404
 2863TIP3    H130004   6.498   0.439   4.515  0.2068 -0.1832 -0.2285
 2863TIP3    H230005   6.430   0.542   4.602 -0.8643 -0.6052 -0.5511
 2864TIP3   OH230006   2.322   2.705  16.524 -0.4036  0.0975  0.1506
 2864TIP3    H130007   2.273   2.694  16.606 -0.5518 -1.0997 -0.0842
 2864TIP3    H230008   2.342   2.616  16.496 -1.0533  0.4479 -1.5438
 2865TIP3   OH230009   3.295   1.140   4.074 -0.1894 -0.3166 -0.6487
 2865TIP3    H130010   3.225   1.150   4.010 -0.7171  1.1610  0.1114
 2865TIP3    H230011   3.255   1.167   4.157  1.6836  2.0434 -0.4306
 2866TIP3   OH230012   3.933   5.950   2.984 -0.3083 -0.8477  0.0537
 2866TIP3    H130013   3.955   6.042   2.998  0.3283 -1.2357  1.9351
 2866TIP3    H230014   3.946   5.909   3.070  1.1475 -3.0514 -1.1303
 2867TIP3   OH230015   1.491   0.269  11.773 -0.4832  0.1999 -0.3769
 2867TIP3    H130016   1.428   0.324  11.819  0.4999  2.1243 -1.2085
 2867TIP3    H230017   1.450   0.183  11.770 -2.1730  0.9073  0.8336
 2868TIP3   OH230018   5.306   5.563   3.675  0.2023  0.0585 -1.0166
 2868TIP3    H130019   5.397   5.535   3.682 -0.2398 -1.3497 -0.6242
 2868TIP3    H230020   5.258   5.505   3.733 -0.9093  1.0495 -0.9041
 2869TIP3   OH230021   6.351   6.282  13.870  0.2201  0.5121  0.0318
 2869TIP3    H130022   6.393   6.335  13.938  1.3466 -0.1118 -0.1571
 2869TIP3    H230023   6.406   6.204  13.862 -0.2777  0.2495 -1.1142
 2870TIP3   OH230024   3.404   2.316  17.155 -0.1610 -0.4254  0.2715
 2870TIP3    H130025   3.407   2.409  17.178  0.4309  0.0575 -1.5827
 2870TIP3    H230026   3.313   2.302  17.129  0.2078  0.2138 -1.4967
 2871TIP3   OH230027   1.598   4.030  15.204  1.1747  0.2865  0.3842
 2871TIP3    H130028   1.604   3.942  15.168  4.1502  1.0070 -1.1946
 2871TIP3    H230029   1.580   4.016  15.297 -0.7791 -1.8208 -0.1972
 2872TIP3   OH230030   6.689   0.648   1.182 -0.0414 -0.5622 -0.0103
 2872TIP3    H130031   6.656   0.583   1.120 -0.8233  0.0666 -0.2592
 2872TIP3    H230032   6.630   0.643   1.257  1.5073 -2.0714  1.1991
 2873TIP3   OH230033   2.417   1.127   5.843  0.0454 -0.1472 -0.1479
 2873TIP3    H130034   2.367   1.196   5.887  0.1497  1.2900 -2.1627
 2873TIP3    H230035   2.474   1.173   5.782  2.1963 -1.8775  0.3901
 2874TIP3   OH230036   2.545   3.621   2.187  0.6626 -0.2008  0.0654
 2874TIP3    H130037   2.574   3.564   2.258 -0.1493  0.0395  0.6098
 2874TIP3    H230038   2.547   3.566   2.110  1.2595 -0.5582  0.3295
 2875TIP3   OH230039   5.761   4.442   4.450  0.3235  0.6098 -0.3313
 2875TIP3    H130040   5.797   4.452   4.538 -0.0419 -0.7572 -0.0084
 2875TIP3    H230041   5.676   4.402   4.462  0.3798  0.1484 -1.3175
 2876TIP3   OH230042   4.803   4.284   1.024  0.3570  0.4053 -0.2648
 2876TIP3    H130043   4.807   4.315   1.114 -1.2903 -2.1092  0.7780
 2876TIP3    H230044   4.891   4.252   1.005  0.5310  0.2605  0.7435
 2877TIP3   OH230045   2.355   6.517  13.653 -1.2777  0.0206 -0.5882
 2877TIP3    H130046   2.408   6.437  13.653 -2.0130 -0.4813  0.2550
 2877TIP3    H230047   2.281   6.497  13.710 -1.1873  1.5030  0.0843
 2878TIP3   OH230048   2.977   6.177   5.709  0.8230 -0.0812  0.0978
 2878TIP3    H130049   2.964   6.271   5.698  0.6408 -0.2569 -1.5111
 2878TIP3    H230050   3.040   6.169   5.780 -0.7507  1.1586  1.7374
 2879TIP3   OH230051   5.692   1.836   4.043  0.4239 -0.0307 -0.1630
 2879TIP3    H130052   5.677   1.926   4.072 -1.9387 -0.1271 -0.8393
 2879TIP3    H230053   5.618   1.787   4.079  1.1571 -1.5191 -0.6061
 2880TIP3   OH230054   3.662   5.692   3.516 -0.0910  0.1908  0.1273
 2880TIP3    H130055   3.687   5.772   3.562 -0.6440 -0.0155  0.7998
 2880TIP3    H230056   3.668   5.715   3.423  0.0686  0.9105  0.3111
 2881TIP3   OH230057   3.511   4.456  13.687 -0.2572 -0.4260  0.0164
 2881TIP3    H130058   3.537   4.533  13.738 -2.2955  0.2963  0.0647
 2881TIP3    H230059   3.559   4.383  13.725  1.2498  0.7218  0.3752
 2882TIP3   OH230060   6.055   6.649  11.360  0.2111 -0.0331 -0.6076
 2882TIP3    H130061   6.042   6.560  11.328 -0.6540 -0.1075 -0.0788
 2882TIP3    H230062   6.030   6.705  11.287  0.1087 -0.2146 -0.7129
 2883TIP3   OH230063   6.457   4.849  11.158  0.2483  0.1781 -0.7583
 2883TIP3    H130064   6.402   4.816  11.087  0.0981 -0.0672 -0.5304
 2883TIP3    H230065   6.425   4.803  11.236 -0.1115  1.0191 -0.4003
 2884TIP3   OH230066   0.879   4.994   0.307 -0.0694  0.2095  0.1674
 2884TIP3    H130067   0.802   4.986   0.251  0.3635  1.1530 -0.5772
 2884TIP3    H230068   0.871   5.080   0.348  0.0521 -0.1267  0.9098
 2885TIP3   OH230069   4.124   6.296   2.256  0.2873 -0.1795 -0.5510
 2885TIP3    H130070   4.132   6.391   2.263  1.2427 -0.0962 -2.2766
 2885TIP3    H230071   4.187   6.263   2.320 -0.6101  0.3077  0.6215
 2886TIP3   OH230072   3.052   5.990   6.302  0.2187 -0.3224  0.7042
 2886TIP3    H130073   3.036   5.934   6.378  0.6510 -2.2804 -0.5541
 2886TIP3    H230074   2.986   5.962   6.238 -0.0385  1.1671  0.2877
 2887TIP3   OH230075   6.314   2.892   4.595 -0.4083 -0.0392 -0.0011
 2887TIP3    H130076   6.273   2.808   4.578  0.6178 -0.9905  1.8987
 2887TIP3    H230077   6.257   2.956   4.552 -0.8275 -1.7076 -2.1000
 2888TIP3   OH230078   5.350   2.595   1.522  0.4737 -0.2470 -0.2528
 2888TIP3    H130079   5.311   2.597   1.434  1.8800  1.9069 -0.9193
 2888TIP3    H230080   5.398   2.513   1.526 -0.3539 -0.7948 -1.1422
 2889TIP3   OH230081   4.006   2.940   4.961 -0.1750  0.0401  0.5857
 2889TIP3    H130082   3.912   2.951   4.947 -0.4305 -1.7500  0.6728
 2889TIP3    H230083   4.014   2.863   5.018  1.4031 -1.4695 -1.5119
 2890TIP3   OH230084   4.013   1.211   0.905  0.4565  0.1299 -0.5348
 2890TIP3    H130085   3.958   1.132   0.910  1.5654 -0.6111  3.2193
 2890TIP3    H230086   4.085   1.186   0.848 -0.9357 -0.3113 -2.1842
 2891TIP3   OH230087   4.835   2.797   1.521 -0.2340  0.2214 -0.0373
 2891TIP3    H130088   4.803   2.773   1.608 -0.8919  0.9250 -0.0736
 2891TIP3    H230089   4.848   2.892   1.526  0.8366  0.1029 -0.3593
 2892TIP3   OH230090   3.340   5.032   6.580  0.0075 -0.4860 -0.1129
 2892TIP3    H130091   3.358   4.960   6.519  2.3894 -1.1245  1.2151
 2892TIP3    H230092   3.321   5.107   6.524  0.9179 -1.3388 -1.6238
 2893TIP3   OH230093   0.708   3.485   6.678  0.4572  0.1473 -0.4871
 2893TIP3    H130094   0.764   3.558   6.705 -0.2804  0.1441  1.2399
 2893TIP3    H230095   0.661   3.518   6.602  1.8015  0.6250 -1.1470
 2894TIP3   OH230096   3.773   0.477   2.581  0.4926  0.0106 -0.3264
 2894TIP3    H130097   3.788   0.393   2.538 -2.9106 -0.9069  0.0397
 2894TIP3    H230098   3.810   0.465   2.669  0.3928 -0.9655 -0.4070
 2895TIP3   OH230099   2.104   4.576  11.979  0.7680  0.0961 -0.0891
 2895TIP3    H130100   2.184   4.524  11.992 -0.5811 -1.7844  1.2550
 2895TIP3    H230101   2.069   4.545  11.895  0.5652 -0.3993  0.1674
 2896TIP3   OH230102   1.507   6.327   2.960 -0.3266  0.6346 -1.0070
 2896TIP3    H130103   1.581   6.385   2.946 -0.8309  0.9407 -2.6655
 2896TIP3    H230104   1.520   6.291   3.048  1.3548  1.2685 -0.9672
 2897TIP3   OH230105   4.484   2.408   0.819  0.8462  0.0283  0.3962
 2897TIP3    H130106   4.441   2.465   0.755  0.7335  0.5363  0.9119
 2897TIP3    H230107   4.515   2.333   0.768  1.4563  0.7936 -0.3920
 2898TIP3   OH230108   2.051   0.305   3.597 -0.3021  0.0815 -0.5051
 2898TIP3    H130109   2.101   0.224   3.587 -0.3221  0.0404 -0.2872
 2898TIP3    H230110   2.063   0.328   3.689  3.1778  2.5783 -1.3614
 2899TIP3   OH230111   5.797   0.016  15.967  0.1915  0.2422  0.3459
 2899TIP3    H130112   5.711   0.053  15.948  0.2648 -0.8672 -2.6154
 2899TIP3    H230113   5.838   0.004  15.881  2.2409 -1.7829  1.4918
 2900TIP3   OH230114   0.631   5.318  16.322  0.0459 -0.4339  0.0668
 2900TIP3    H130115   0.596   5.296  16.236  2.5192  0.9374 -1.4378
 2900TIP3    H230116   0.624   5.237  16.373 -2.3210 -1.0227 -1.0577
 2901TIP3   OH230117   1.407   1.891  15.306 -0.1552 -0.7117 -0.5130
 2901TIP3    H130118   1.359   1.925  15.382 -2.5265  0.2642 -2.2886
 2901TIP3    H230119   1.375   1.801  15.296  2.6915 -2.0829  1.4982
 2902TIP3   OH230120   2.362   6.450  12.652 -0.2052  0.2575  0.2021
 2902TIP3    H130121   2.396   6.436  12.564 -1.2068  2.2089 -0.5523
 2902TIP3    H230122   2.346   6.361  12.686  2.1261 -0.5915 -0.7534
 2903TIP3   OH230123   1.022   4.812  11.334 -0.1284 -0.1539 -0.7597
 2903TIP3    H130124   1.007   4.721  11.361 -0.7808 -0.3185 -1.6157
 2903TIP3    H230125   0.977   4.819  11.249 -1.9180  1.5422  0.2468
 2904TIP3   OH230126   1.382   4.795   0.114  0.0161 -0.6902  0.2064
 2904TIP3    H130127   1.375   4.713   0.163  0.5076 -1.2241 -0.6001
 2904TIP3    H230128   1.303   4.844   0.138 -0.9837 -1.9723 -0.3645
 2905TIP3   OH230129   2.225   4.039   0.032  0.4307  0.7008  0.1834
 2905TIP3    H130130   2.184   3.968   0.082  0.3304  2.0983  2.1621
 2905TIP3    H230131   2.237   4.110   0.094  0.9070  2.3240 -1.6443
 2906TIP3   OH230132   4.895   1.602   3.810  1.1016  0.0361 -0.2892
 2906TIP3    H130133   4.867   1.576   3.722 -0.6068  0.8113 -0.0371
 2906TIP3    H230134   4.897   1.698   3.806 -0.8116  0.1917  0.9541
 2907TIP3   OH230135   1.455   4.317   3.390 -0.2941  0.3671  0.1196
 2907TIP3    H130136   1.412   4.327   3.475  0.6640  0.1671  0.6286
 2907TIP3    H230137   1.393   4.356   3.328 -0.5051  1.5519  1.0350
 2908TIP3   OH230138   0.475   5.348  16.069 -0.2594 -0.0531  0.1624
 2908TIP3    H130139   0.552   5.313  16.026  1.3717  1.5758  1.5706
 2908TIP3    H230140   0.450   5.424  16.017 -0.4869 -0.1527  0.1217
 2909TIP3   OH230141   0.977   4.690  17.059 -0.2368  0.1243 -0.5151
 2909TIP3    H130142   0.940   4.734  17.135 -3.2577  0.5455 -2.0931
 2909TIP3    H230143   0.957   4.597  17.073  1.4095 -0.1464  0.2944
 2910TIP3   OH230144   2.909   2.456   5.268  0.7227  0.5669  0.5510
 2910TIP3    H130145   2.947   2.542   5.252 -0.0020  0.9028  0.6060
 2910TIP3    H230146   2.977   2.394   5.239  0.5719  1.1475 -1.1361
 2911TIP3   OH230147   3.265   0.372  11.750  0.4431 -0.2676 -0.4507
 2911TIP3    H130148   3.355   0.404  11.743  1.3741 -2.4649  0.3670
 2911TIP3    H230149   3.231   0.414  11.829  0.6054  0.8687 -0.9684
 2912TIP3   OH230150   2.603   0.222  11.335  0.1320  0.0967  0.3718
 2912TIP3    H130151   2.694   0.193  11.324  0.8509  2.3013  0.0983
 2912TIP3    H230152   2.586   0.211  11.428  0.6604 -0.3856  0.4212
 2913TIP3   OH230153   0.287   2.779   0.302  0.3599 -0.3282 -0.0234
 2913TIP3    H130154   0.347   2.853   0.304 -0.6489  0.5088 -0.0229
 2913TIP3    H230155   0.330   2.711   0.354  0.6870  0.7182  1.0988
 2914TIP3   OH230156   4.324   2.550   1.888 -0.3122 -0.1705 -0.2374
 2914TIP3    H130157   4.381   2.623   1.914 -0.5149  0.2967 -1.0899
 2914TIP3    H230158   4.378   2.472   1.904  0.1047  0.1899  0.1623
 2915TIP3   OH230159   6.220   3.073  11.485 -0.0080  0.0170  0.3688
 2915TIP3    H130160   6.238   2.987  11.448  1.4872  0.6401 -0.4339
 2915TIP3    H230161   6.167   3.117  11.419 -2.6937 -0.9648  1.6965
 2916TIP3   OH230162   2.993   4.926  15.528  0.3740 -0.5387  0.3760
 2916TIP3    H130163   3.013   4.855  15.468 -0.5743 -0.3809 -0.1451
 2916TIP3    H230164   2.901   4.946  15.513  1.0257  2.0232 -0.8368
 2917TIP3   OH230165   0.651   0.317  14.755  0.2540 -0.6615 -0.1634
 2917TIP3    H130166   0.611   0.309  14.842  0.7330  0.3538  0.1612
 2917TIP3    H230167   0.587   0.367  14.704  1.0690  0.9435  0.3496
 2918TIP3   OH230168   1.934   2.081   3.773  0.6278 -0.0241  0.2339
 2918TIP3    H130169   1.965   2.008   3.720 -1.1935 -1.3273  0.8920
 2918TIP3    H230170   1.949   2.158   3.717  1.8144 -0.9482 -0.8064
 2919TIP3   OH230171   3.743   2.697  13.633  0.1617 -0.5390  0.0273
 2919TIP3    H130172   3.665   2.667  13.679 -0.4525 -1.6093 -1.6105
 2919TIP3    H230173   3.715   2.705  13.542  1.8739 -0.5780 -0.5363
 2920TIP3   OH230174   4.114   3.380  13.146 -0.3810 -0.1945 -0.2841
 2920TIP3    H130175   4.117   3.468  13.109  0.2487 -0.2006 -0.2540
 2920TIP3    H230176   4.185   3.379  13.210  0.2816 -1.0448 -1.0116
 2921TIP3   OH230177   0.166   5.566   1.735 -0.9682 -0.1232 -0.4315
 2921TIP3    H130178   0.121   5.501   1.681  0.3040 -0.0197 -1.6907
 2921TIP3    H230179   0.241   5.519   1.772  0.2553  0.6953 -1.7631
 2922TIP3   OH230180   4.143   2.434   3.944  0.0841 -0.1092  0.4326
 2922TIP3    H130181   4.171   2.505   4.001 -0.4499  0.6789 -0.2561
 2922TIP3    H230182   4.086   2.476   3.879  1.5106 -0.7784 -1.3465
 2923TIP3   OH230183   1.489   0.500  13.718  0.2660  0.1644 -0.1285
 2923TIP3    H130184   1.440   0.558  13.660 -0.1120 -0.1903 -0.1630
 2923TIP3    H230185   1.555   0.557  13.758  1.2761  0.2179 -1.7474
 2924TIP3   OH230186   0.533   4.233   2.921  0.3743  0.5358  0.3841
 2924TIP3    H130187   0.564   4.321   2.900  0.7434  0.6869  1.4875
 2924TIP3    H230188   0.597   4.200   2.984  0.4589 -0.6844 -0.3277
 2925TIP3   OH230189   5.142   0.415  16.634  0.0322 -0.2637 -0.4005
 2925TIP3    H130190   5.105   0.503  16.621  0.7405  0.1113  0.0520
 2925TIP3    H230191   5.179   0.392  16.549  0.7775  0.3319 -0.2478
 2926TIP3   OH230192   1.165   6.102   0.831 -0.1843  0.2264 -0.1053
 2926TIP3    H130193   1.142   6.059   0.914 -0.1406 -0.8408 -0.6288
 2926TIP3    H230194   1.261   6.097   0.828 -0.2662 -2.2981 -1.4831
 2927TIP3   OH230195   2.627   6.607  14.565 -0.1728  0.3766 -0.0514
 2927TIP3    H130196   2.652   6.518  14.590  0.2259  0.8473  1.3185
 2927TIP3    H230197   2.683   6.627  14.491  0.3522 -0.2050  0.1716
 2928TIP3   OH230198   0.750   3.224  16.812  0.6953 -0.0748  0.7539
 2928TIP3    H130199   0.824   3.164  16.798  0.3315 -0.6382  1.1468
 2928TIP3    H230200   0.711   3.192  16.894  0.5568  0.7768  1.0204
 2929TIP3   OH230201   3.323   0.511  16.696  0.4279  0.0382 -0.1698
 2929TIP3    H130202   3.280   0.511  16.610  1.3130 -0.1869 -0.6184
 2929TIP3    H230203   3.280   0.441  16.744 -0.2129  0.2956 -0.3577
 2930TIP3   OH230204   6.517   5.366  11.508 -0.4155  0.3779 -0.1494
 2930TIP3    H130205   6.597   5.418  11.511  1.2398 -2.0322 -0.0446
 2930TIP3    H230206   6.492   5.366  11.416  0.9338 -0.5508 -0.5422
 2931TIP3   OH230207   0.630   4.975   3.269 -0.4781  0.2444  0.5213
 2931TIP3    H130208   0.594   4.980   3.181  0.0830  0.4888  0.3032
 2931TIP3    H230209   0.569   4.918   3.316  0.2127 -1.4561 -0.5363
 2932TIP3   OH230210   6.241   2.538   4.924 -0.0959  0.2515 -0.0664
 2932TIP3    H130211   6.309   2.555   4.860 -0.3143  0.8423 -0.1408
 2932TIP3    H230212   6.214   2.624   4.955  0.0453 -0.0263  0.8586
 2933TIP3   OH230213   4.299   1.054  14.435 -0.0455  0.2689  0.4498
 2933TIP3    H130214   4.319   1.146  14.450  0.3155  0.1421  0.7444
 2933TIP3    H230215   4.206   1.053  14.410  0.5290  0.9763 -1.9580
 2934TIP3   OH230216   0.164   2.106   4.826 -0.0723  0.4791  0.0808
 2934TIP3    H130217   0.187   2.050   4.752 -1.3943 -1.0636  0.7725
 2934TIP3    H230218   0.070   2.092   4.838 -0.1101  1.5904  1.3271
 2935TIP3   OH230219   0.140   2.674   2.969  0.3451 -0.3295  0.2138
 2935TIP3    H130220   0.191   2.741   3.014 -0.3975  1.4084 -1.4304
 2935TIP3    H230221   0.205   2.610   2.939  1.8196  2.2820 -2.6574
 2936TIP3   OH230222   1.385   6.543  15.364  0.0663 -0.0900 -0.2452
 2936TIP3    H130223   1.363   6.624  15.318  1.1706 -0.4666 -1.4746
 2936TIP3    H230224   1.356   6.473  15.304 -0.1955 -0.6117  0.4738
 2937TIP3   OH230225   6.112   3.355   2.596 -0.3728 -0.2316  0.0872
 2937TIP3    H130226   6.032   3.304   2.602  0.3761 -1.2730  3.4708
 2937TIP3    H230227   6.118   3.381   2.504 -3.2440 -2.2247 -0.7770
 2938TIP3   OH230228   4.173   6.182  14.613  0.6741  0.0944 -0.3226
 2938TIP3    H130229   4.193   6.193  14.520  1.5685  0.0334 -0.1441
 2938TIP3    H230230   4.133   6.095  14.619 -1.1547  0.8336 -0.9118
 2939TIP3   OH230231   4.285   5.571  13.624 -0.1832  0.5237 -0.2366
 2939TIP3    H130232   4.201   5.525  13.624  0.8202 -1.4703 -1.5115
 2939TIP3    H230233   4.262   5.664  13.620 -2.3284  0.0138 -0.8374
 2940TIP3   OH230234   6.554   1.329   4.996  0.2320 -0.2820  0.4473
 2940TIP3    H130235   6.499   1.269   5.047  0.7279 -0.5013  0.7387
 2940TIP3    H230236   6.597   1.383   5.062 -1.4254  1.5136  0.1382
 2941TIP3   OH230237   4.890   1.234  16.582 -0.5177 -0.3672 -0.3938
 2941TIP3    H130238   4.901   1.163  16.519  0.5425 -0.8612  0.3211
 2941TIP3    H230239   4.979   1.262  16.603 -0.8610  2.5053 -2.0776
 2942TIP3   OH230240   4.725   5.320   5.466 -0.2815  0.2299 -0.0080
 2942TIP3    H130241   4.643   5.368   5.479 -0.5486 -0.0686 -0.5757
 2942TIP3    H230242   4.790   5.389   5.450 -0.6376  0.4239 -0.6892
 2943TIP3   OH230243   4.193   1.400  12.426  0.0815 -0.4249 -0.2428
 2943TIP3    H130244   4.166   1.405  12.518 -1.6894 -0.7704 -0.7097
 2943TIP3    H230245   4.171   1.311  12.399 -0.0273 -0.1301 -1.1713
 2944TIP3   OH230246   3.873   4.706  16.391 -0.2991 -0.0027 -0.2926
 2944TIP3    H130247   3.813   4.643  16.351 -0.8843  0.8764 -0.8520
 2944TIP3    H230248   3.891   4.769  16.321  0.0310  0.6232  0.3435
 2945TIP3   OH230249   4.319   2.055  11.854  0.0046  0.5704  0.3362
 2945TIP3    H130250   4.313   2.124  11.920 -0.6192  0.1155  0.7698
 2945TIP3    H230251   4.353   1.979  11.901  0.0414  0.3848  0.0146
 2946TIP3   OH230252   0.749   1.327   3.920  0.1605  0.4641  0.1433
 2946TIP3    H130253   0.813   1.256   3.916  0.8099  1.0778 -1.5964
 2946TIP3    H230254   0.676   1.297   3.865  0.3763  1.0639 -0.4829
 2947TIP3   OH230255   4.570   6.233  16.462 -0.0123 -0.5330 -0.4360
 2947TIP3    H130256   4.640   6.281  16.418  0.5102 -1.2106 -0.3566
 2947TIP3    H230257   4.567   6.270  16.551  0.5599 -0.8242 -0.2951
 2948TIP3   OH230258   5.098   2.980  15.091  0.5075 -0.1551  0.3523
 2948TIP3    H130259   5.181   2.978  15.044  1.5692 -0.9649  2.1183
 2948TIP3    H230260   5.074   3.073  15.094  1.5551  0.1351  0.1294
 2949TIP3   OH230261   0.787   0.279  13.200 -0.2764  0.4124 -0.1838
 2949TIP3    H130262   0.809   0.245  13.286 -2.0336 -1.5393 -0.4288
 2949TIP3    H230263   0.750   0.366  13.217 -0.5071  0.0920  0.9998
 2950TIP3   OH230264   6.043   6.191  13.171  0.5663 -0.1594 -0.0195
 2950TIP3    H130265   5.970   6.134  13.149  0.9494 -0.2051 -1.2081
 2950TIP3    H230266   6.045   6.192  13.267 -1.4011  0.3711  0.0477
 2951TIP3   OH230267   5.191   4.028   1.827  0.1878 -0.5480 -0.3604
 2951TIP3    H130268   5.188   4.046   1.921 -0.1060  0.5864 -0.5724
 2951TIP3    H230269   5.253   3.955   1.819  0.0821 -0.7835  0.7212
 2952TIP3   OH230270   0.569   0.152   4.016  0.0969 -0.3827  0.6593
 2952TIP3    H130271   0.487   0.177   3.973  0.8203 -1.1963 -1.3033
 2952TIP3    H230272   0.630   0.222   3.995 -0.1746  0.4753  2.5425
 2953TIP3   OH230273   2.190   4.952  17.018 -0.6288 -0.2247 -0.0694
 2953TIP3    H130274   2.266   4.898  17.042 -0.9226 -0.2760  0.7911
 2953TIP3    H230275   2.204   5.034  17.065 -1.3549 -0.4176  0.4934
 2954TIP3   OH230276   5.087   2.484  12.273 -0.4413 -0.3309 -0.9341
 2954TIP3    H130277   5.107   2.392  12.255 -2.6928 -1.1247  0.1980
 2954TIP3    H230278   5.098   2.493  12.367 -3.2625 -0.3844 -0.4990
 2955TIP3   OH230279   4.858   1.180   3.991  0.4673  0.0192 -0.0917
 2955TIP3    H130280   4.776   1.227   3.971  1.2183  1.4627  0.0798
 2955TIP3    H230281   4.882   1.139   3.908  0.0525  0.3627 -0.3912
 2956TIP3   OH230282   4.781   4.603   0.986  0.5097  0.0752  0.0579
 2956TIP3    H130283   4.692   4.592   0.952  0.4996  0.2767  0.0159
 2956TIP3    H230284   4.806   4.516   1.017 -0.0895  0.2273  1.0122
 2957TIP3   OH230285   0.874   4.870  15.156  0.0097  0.5413  0.0047
 2957TIP3    H130286   0.921   4.859  15.239  0.1875 -1.2103 -0.3086
 2957TIP3    H230287   0.879   4.964  15.139  2.3933  0.5858  0.5849
 2958TIP3   OH230288   0.413   2.699  14.371  0.4870  0.4109 -0.4011
 2958TIP3    H130289   0.449   2.611  14.380  1.6900  0.9589  0.3644
 2958TIP3    H230290   0.388   2.705  14.279  0.4505 -0.6962 -0.4769
 2959TIP3   OH230291   3.074   4.929   1.351 -0.5680  0.4796 -0.1883
 2959TIP3    H130292   2.978   4.935   1.350 -0.6177 -0.0563  0.7018
 2959TIP3    H230293   3.094   4.876   1.428  0.3012 -2.1493 -2.0877
 2960TIP3   OH230294   1.530   4.078   5.064 -0.1253  0.4572 -0.1712
 2960TIP3    H130295   1.520   3.988   5.035 -0.4309  0.3139  0.3476
 2960TIP3    H230296   1.486   4.080   5.150  0.0440  1.0487 -0.0935
 2961TIP3   OH230297   6.607   1.570   6.019  0.2345 -0.3232  0.9833
 2961TIP3    H130298   6.644   1.551   6.105  1.0209  0.0249  0.7275
 2961TIP3    H230299   6.565   1.656   6.029  1.5789  0.4047  0.6607
 2962TIP3   OH230300   3.267   3.782  10.569 -0.7640  0.4401  0.4565
 2962TIP3    H130301   3.241   3.690  10.578  0.2365  0.1962  1.0280
 2962TIP3    H230302   3.315   3.785  10.486 -0.7611  0.4304  0.4571
 2963TIP3   OH230303   6.281   1.024   2.286  0.1955 -0.1766  0.1415
 2963TIP3    H130304   6.312   0.934   2.275 -0.9957 -0.7264  1.1572
 2963TIP3    H230305   6.314   1.051   2.372  0.5561  0.3834 -0.1599
 2964TIP3   OH230306   2.763   5.835  14.338  0.3719  0.0543  0.0514
 2964TIP3    H130307   2.773   5.846  14.243 -0.2203  0.7236  0.0593
 2964TIP3    H230308   2.800   5.748  14.356 -0.3081 -0.4470 -0.9089
 2965TIP3   OH230309   1.653   0.379  12.004  0.4414  0.3774 -0.0757
 2965TIP3    H130310   1.633   0.311  12.068 -0.7300  0.1883 -0.6242
 2965TIP3    H230311   1.572   0.392  11.956  1.4468  0.0884 -1.9414
 2966TIP3   OH230312   4.184   0.953  10.659 -0.0098  0.5453  0.0980
 2966TIP3    H130313   4.139   1.035  10.640 -2.3819 -0.7608 -0.2431
 2966TIP3    H230314   4.263   0.956  10.604 -0.9916  1.7925 -1.3155
 2967TIP3   OH230315   1.236   6.651  11.997 -0.3628  0.8732 -0.0704
 2967TIP3    H130316   1.145   6.633  11.972 -0.4260 -0.3682  0.9509
 2967TIP3    H230317   1.248   6.744  11.979 -1.2985  0.6872 -1.8359
 2968TIP3   OH230318   0.915   2.586  15.117  0.2653 -0.0358 -0.1499
 2968TIP3    H130319   0.889   2.578  15.026  1.6268  0.7617 -0.6336
 2968TIP3    H230320   0.925   2.680  15.131 -2.3775  0.0952  1.5683
 2969TIP3   OH230321   2.054   5.406   4.250 -0.0262  0.5195 -0.2917
 2969TIP3    H130322   2.066   5.315   4.222 -1.6906  0.3456 -0.5538
 2969TIP3    H230323   2.009   5.399   4.334  1.7088  1.1124  0.7463
 2970TIP3   OH230324   1.018   1.310   1.881 -0.2160 -0.0178  0.4973
 2970TIP3    H130325   1.080   1.374   1.913 -1.3633  1.1995  0.3709
 2970TIP3    H230326   0.999   1.337   1.791 -1.0882 -0.2205  0.6103
 2971TIP3   OH230327   5.981   0.914  14.172  0.6289 -0.0654  0.0374
 2971TIP3    H130328   6.029   0.834  14.151 -0.4336 -0.7055 -0.0353
 2971TIP3    H230329   5.915   0.921  14.104  0.7212  0.9063  0.0261
 2972TIP3   OH230330   1.461   2.577  11.807 -0.0220  0.0041  0.4607
 2972TIP3    H130331   1.555   2.594  11.814  0.1410 -0.7365  0.2145
 2972TIP3    H230332   1.439   2.533  11.889 -0.0858 -0.1075  0.3833
 2973TIP3   OH230333   6.146   4.734  13.800 -0.0732  0.5390  0.3818
 2973TIP3    H130334   6.153   4.704  13.891 -2.4793  0.0049  0.4587
 2973TIP3    H230335   6.138   4.653  13.749 -0.5350  0.8880 -0.1043
 2974TIP3   OH230336   3.837   6.103   0.938 -0.0905 -0.1128 -1.1387
 2974TIP3    H130337   3.766   6.158   0.903 -0.5088  0.3739  0.4140
 2974TIP3    H230338   3.855   6.139   1.025 -0.9882 -2.9079  0.3362
 2975TIP3   OH230339   3.966   6.189  12.192  0.3399  0.0998 -0.2307
 2975TIP3    H130340   4.038   6.212  12.251 -0.0202 -0.6879  0.5428
 2975TIP3    H230341   4.003   6.196  12.105  1.4783 -0.6954  0.1743
 2976TIP3   OH230342   2.660   1.414  17.238  0.0596  0.0984  0.1536
 2976TIP3    H130343   2.618   1.383  17.318 -1.0099  1.2798  0.0780
 2976TIP3    H230344   2.682   1.334  17.191  0.6091 -0.6147  1.5574
 2977TIP3   OH230345   3.220   3.298   2.230 -0.5887  0.3431  0.6112
 2977TIP3    H130346   3.216   3.374   2.287  1.3516 -0.0087  1.2996
 2977TIP3    H230347   3.309   3.263   2.243 -1.0945 -1.4587 -0.4090
 2978TIP3   OH230348   1.231   3.267  15.135  0.0306  0.6361  0.1068
 2978TIP3    H130349   1.201   3.203  15.070 -1.1466 -1.3182  2.4350
 2978TIP3    H230350   1.315   3.233  15.165 -0.0904  0.7520  0.5851
 2979TIP3   OH230351   0.706   0.305  12.213 -0.7619 -0.4628  0.0593
 2979TIP3    H130352   0.800   0.323  12.220 -1.0190  0.8066  0.5998
 2979TIP3    H230353   0.700   0.211  12.196  0.5905 -0.6179  0.3548
 2980TIP3   OH230354   5.121   0.300  16.877 -0.1121 -0.2174  0.5319
 2980TIP3    H130355   5.129   0.309  16.783  0.0983  0.0475  0.5756
 2980TIP3    H230356   5.201   0.338  16.912 -1.1077  1.6116  0.9309
 2981TIP3   OH230357   2.080   0.355  11.704 -0.4437  0.1017  0.1749
 2981TIP3    H130358   2.049   0.332  11.792 -2.8791  0.1912 -0.5962
 2981TIP3    H230359   2.039   0.290  11.647  0.4978  0.5069 -0.9933
 2982TIP3   OH230360   0.757   5.699  12.657  0.1253  0.3579  0.6408
 2982TIP3    H130361   0.837   5.706  12.605 -1.0968  0.4755 -1.3298
 2982TIP3    H230362   0.688   5.679  12.593 -1.2640 -0.7994  2.3985
 2983TIP3   OH230363   3.180   0.907  14.053  0.3311 -0.6043 -0.6070
 2983TIP3    H130364   3.159   0.991  14.095 -1.5249 -0.2151 -2.1253
 2983TIP3    H230365   3.262   0.880  14.093  1.1201  2.0579 -0.2025
 2984TIP3   OH230366   6.616   4.968  11.534 -0.7425  0.0539  0.4000
 2984TIP3    H130367   6.637   4.908  11.605  0.0532  1.1571  1.1278
 2984TIP3    H230368   6.644   4.923  11.455 -1.0188 -0.9130  0.8427
 2985TIP3   OH230369   3.853   3.987  15.745 -0.0128  0.7626  0.4390
 2985TIP3    H130370   3.806   4.003  15.664  0.3579  1.2017  0.3093
 2985TIP3    H230371   3.920   3.923  15.722 -0.0053  0.7712  0.4369
 2986TIP3   OH230372   5.074   6.268  11.664  0.1745  0.1152 -0.1906
 2986TIP3    H130373   5.139   6.288  11.596  0.6393  0.1170  0.2490
 2986TIP3    H230374   5.036   6.185  11.637 -0.3023  0.5625 -0.9429
 2987TIP3   OH230375   4.292   0.358   1.238  0.1132  0.0537 -0.4409
 2987TIP3    H130376   4.277   0.401   1.154 -0.9004  0.4551 -0.0573
 2987TIP3    H230377   4.373   0.397   1.271  0.4119  0.0303 -1.1419
 2988TIP3   OH230378   3.900   1.044   2.649 -0.4136  0.1046  0.3846
 2988TIP3    H130379   3.884   0.986   2.724 -0.3836 -1.4449 -0.7534
 2988TIP3    H230380   3.820   1.037   2.596 -0.6441  1.5840  0.4982
 2989TIP3   OH230381   3.534   1.595   4.660  0.2141 -0.0425 -0.0912
 2989TIP3    H130382   3.507   1.506   4.680  1.3065 -0.5275 -0.6944
 2989TIP3    H230383   3.510   1.608   4.568  3.1041 -0.9883 -1.1052
 2990TIP3   OH230384   5.283   5.531  16.159 -0.3599 -0.1056  0.1705
 2990TIP3    H130385   5.234   5.613  16.157 -0.7940 -0.2847  2.0005
 2990TIP3    H230386   5.369   5.555  16.193 -0.3146 -0.3236  0.2140
 2991TIP3   OH230387   4.067   6.446   0.111  0.3663  0.2407 -0.8930
 2991TIP3    H130388   4.120   6.471   0.035  0.2188  0.6087 -0.8778
 2991TIP3    H230389   4.066   6.525   0.165  1.3943 -0.3475  0.0292
 2992TIP3   OH230390   4.513   4.392   6.645  0.0212  0.0796 -0.1622
 2992TIP3    H130391   4.469   4.467   6.606  0.0760 -0.5268 -1.4275
 2992TIP3    H230392   4.482   4.317   6.594  0.8728 -0.6167  0.3248
 2993TIP3   OH230393   1.815   6.630  15.458 -0.6524  0.1562 -0.5514
 2993TIP3    H130394   1.745   6.694  15.447 -0.8172  0.0179 -0.3227
 2993TIP3    H230395   1.842   6.608  15.369 -2.9207 -2.0360 -0.7963
 2994TIP3   OH230396   1.801   3.668  13.973 -0.3900  0.0381  0.1555
 2994TIP3    H130397   1.869   3.603  13.955 -0.4286  0.3135 -1.0828
 2994TIP3    H230398   1.839   3.724  14.040  0.3210 -0.2501  0.0063
 2995TIP3   OH230399   4.489   3.930  16.475  0.1736 -0.2879 -0.5695
 2995TIP3    H130400   4.446   3.924  16.560  0.1878  1.1537 -0.4289
 2995TIP3    H230401   4.419   3.920  16.411  0.0545 -0.6905 -0.3713
 2996TIP3   OH230402   2.806   2.202  16.729 -0.0055 -0.2553 -0.0301
 2996TIP3    H130403   2.788   2.289  16.692 -0.7112 -0.7037 -0.7711
 2996TIP3    H230404   2.770   2.141  16.665  1.9364 -1.1564 -0.3427
 2997TIP3   OH230405   1.559   6.668   2.856  0.5696  0.0177 -0.0821
 2997TIP3    H130406   1.635   6.637   2.905 -0.9895 -0.5450  2.1832
 2997TIP3    H230407   1.551   6.607   2.783  1.4445 -0.8178  0.4930
 2998TIP3   OH230408   1.090   2.686  15.735  0.2204  0.1936  0.2716
 2998TIP3    H130409   1.016   2.635  15.769  1.7267 -0.8003  2.3210
 2998TIP3    H230410   1.151   2.621  15.702 -0.0697  1.0421 -2.1154
 2999TIP3   OH230411   5.264   2.080  11.761  0.6846  0.1053  0.2123
 2999TIP3    H130412   5.274   1.994  11.721  1.6002  0.1832  0.2569
 2999TIP3    H230413   5.192   2.069  11.823  0.9988 -0.7112  0.4433
 3000TIP3   OH230414   3.573   2.792   4.531  0.1945  0.2642 -0.1912
 3000TIP3    H130415   3.585   2.887   4.533  1.8950  0.0726  0.0035
 3000TIP3    H230416   3.593   2.767   4.441  0.5031  0.0038 -0.0507
 3001TIP3   OH230417   5.862   5.671   0.176  0.2550 -0.4733  0.1312
 3001TIP3    H130418   5.910   5.752   0.160  0.9964 -1.4011 -2.8945
 3001TIP3    H230419   5.922   5.617   0.227  0.5701  0.0585  0.3399
 3002TIP3   OH230420   6.715   0.607  12.000 -0.6934 -0.1345 -0.0554
 3002TIP3    H130421   6.788   0.565  11.955  1.0391  0.0204  2.4180
 3002TIP3    H230422   6.661   0.643  11.930  0.0136 -2.7455 -2.1009
 3003TIP3   OH230423   4.301   4.458   3.627 -0.4431 -0.3709  0.5269
 3003TIP3    H130424   4.316   4.490   3.716  1.3393  1.2724 -0.2727
 3003TIP3    H230425   4.334   4.368   3.627  1.0880  0.1574  1.1655
 3004TIP3   OH230426   5.934   0.062  12.808 -0.2227 -0.0031 -0.0619
 3004TIP3    H130427   5.885   0.058  12.726 -0.0400 -1.3764 -0.1272
 3004TIP3    H230428   6.019   0.024  12.787  0.2441  0.7342  0.4807
 3005TIP3   OH230429   3.650   3.133  17.295  0.5690  0.2361  0.1593
 3005TIP3    H130430   3.630   3.224  17.319 -4.5944 -0.3183 -0.9896
 3005TIP3    H230431   3.626   3.128  17.202  1.9871 -2.0846 -0.1523
 3006TIP3   OH230432   3.315   4.672  11.721 -0.7586  0.3514 -0.3440
 3006TIP3    H130433   3.256   4.643  11.652 -0.2038 -1.8715  0.0238
 3006TIP3    H230434   3.268   4.654  11.802 -0.2321  0.0892 -0.0921
 3007TIP3   OH230435   0.747   5.148   5.923 -0.4877  0.5319 -0.7582
 3007TIP3    H130436   0.775   5.139   5.832 -0.9301  1.8588 -1.0534
 3007TIP3    H230437   0.798   5.222   5.956  1.4812 -1.3953  0.8608
 3008TIP3   OH230438   6.262   0.257   3.918  0.4866 -0.5629  0.3643
 3008TIP3    H130439   6.281   0.172   3.878  0.9057 -0.1424 -0.3486
 3008TIP3    H230440   6.223   0.235   4.003 -0.5767 -1.4886 -0.3250
 3009TIP3   OH230441   4.456   0.145  12.929  0.0873 -0.2433 -0.0824
 3009TIP3    H130442   4.374   0.142  12.880  0.1793 -2.3741 -0.1689
 3009TIP3    H230443   4.516   0.193  12.871 -0.4352 -0.7432 -1.0634
 3010TIP3   OH230444   4.775   6.029   0.569  0.3221  0.2703 -0.0258
 3010TIP3    H130445   4.701   6.060   0.518  0.4803 -0.0122 -0.4321
 3010TIP3    H230446   4.741   5.954   0.617  0.5714 -0.4227 -0.9034
 3011TIP3   OH230447   0.518   6.669   5.065  0.5079 -0.6210 -0.3970
 3011TIP3    H130448   0.441   6.718   5.038 -0.0607 -2.0300 -1.4605
 3011TIP3    H230449   0.592   6.723   5.037 -0.0789  0.4070 -0.0104
 3012TIP3   OH230450   3.631   3.777   2.555 -0.0453  0.0838  1.1884
 3012TIP3    H130451   3.704   3.779   2.493  0.2290 -0.4409  1.4948
 3012TIP3    H230452   3.664   3.822   2.633 -0.6554  1.4739  0.6863
 3013TIP3   OH230453   1.112   2.792   0.913  0.4425  0.2899 -0.0228
 3013TIP3    H130454   1.106   2.725   0.981 -0.2431  0.3147 -0.0490
 3013TIP3    H230455   1.063   2.866   0.948 -0.2038  0.1830 -0.6746
 3014TIP3   OH230456   6.615   2.525  17.232 -0.2362  0.2329  0.3431
 3014TIP3    H130457   6.565   2.445  17.248 -0.0998 -0.0633 -0.6573
 3014TIP3    H230458   6.564   2.573  17.167 -0.3236  0.9837  0.9415
 3015TIP3   OH230459   3.339   3.515   0.041  0.0461 -0.1095 -0.3549
 3015TIP3    H130460   3.321   3.430  -0.000 -0.7558 -0.1775  0.1347
 3015TIP3    H230461   3.387   3.493   0.121  1.3347  0.0075 -1.0561
 3016TIP3   OH230462   3.282   1.148   5.542  0.3758 -0.5070  0.4401
 3016TIP3    H130463   3.309   1.087   5.611 -1.0120 -2.2993 -0.4951
 3016TIP3    H230464   3.191   1.123   5.522  0.2662  0.8955 -1.0409
 3017TIP3   OH230465   2.721   0.443  13.122  0.1041  0.5807  0.4644
 3017TIP3    H130466   2.740   0.361  13.168 -0.3560 -0.5960 -1.3795
 3017TIP3    H230467   2.652   0.484  13.175  0.4591 -0.1100  1.5074
 3018TIP3   OH230468   3.656   1.422  13.371  0.1579 -0.0624 -0.4375
 3018TIP3    H130469   3.639   1.329  13.359  1.5040 -0.2924 -0.7028
 3018TIP3    H230470   3.642   1.437  13.465 -1.4904 -0.1904 -0.6238
 3019TIP3   OH230471   3.970   1.612  15.349  0.4162  0.4159 -0.0697
 3019TIP3    H130472   3.943   1.638  15.261 -0.3776  0.2842  0.1223
 3019TIP3    H230473   3.914   1.664  15.407 -0.5862 -1.0305  0.3268
 3020TIP3   OH230474   3.800   4.832   0.680  0.1290  0.7944 -0.1491
 3020TIP3    H130475   3.748   4.912   0.690 -0.3207  0.5204 -0.3174
 3020TIP3    H230476   3.739   4.761   0.694  0.8378  0.4719  1.5286
 3021TIP3   OH230477   1.876   2.910   2.969  0.3204  0.2070  0.2313
 3021TIP3    H130478   1.943   2.858   2.925  1.0696  1.2155  0.1648
 3021TIP3    H230479   1.840   2.966   2.901 -1.1035 -0.8033  0.1086
 3022TIP3   OH230480   6.369   0.541  11.688 -0.2082  0.2331  0.1626
 3022TIP3    H130481   6.346   0.618  11.637 -0.5103  0.2172  0.2723
 3022TIP3    H230482   6.292   0.484  11.682 -0.6836  0.7070  1.5449
 3023TIP3   OH230483   3.910   5.218  14.614  0.2215  0.3097 -0.2735
 3023TIP3    H130484   3.886   5.270  14.538  0.9858  1.1358  0.0154
 3023TIP3    H230485   3.834   5.224  14.673 -0.3816 -0.3631 -0.9676
 3024TIP3   OH230486   4.038   1.650  14.886 -0.2696  0.1876  0.0870
 3024TIP3    H130487   4.044   1.735  14.843  0.3364 -0.1668 -0.5552
 3024TIP3    H230488   4.040   1.587  14.814  1.4422 -0.4562  0.6486
 3025TIP3   OH230489   6.172   2.942  16.275  0.1769  0.5450 -0.1067
 3025TIP3    H130490   6.229   2.900  16.211 -0.0704  0.3501 -0.2043
 3025TIP3    H230491   6.108   2.991  16.221 -1.0275 -0.9144 -0.0705
 3026TIP3   OH230492   2.695   6.132   4.999 -0.4846  0.2806 -0.2991
 3026TIP3    H130493   2.666   6.105   4.912 -2.5231  0.4968  0.2507
 3026TIP3    H230494   2.775   6.182   4.984 -0.9611  0.5667 -2.0678
 3027TIP3   OH230495   1.211   4.336   2.381 -0.7070 -0.1138  0.3945
 3027TIP3    H130496   1.221   4.428   2.405 -2.0458  0.3644 -0.7625
 3027TIP3    H230497   1.186   4.293   2.462 -0.3734  0.5935  0.8834
 3028TIP3   OH230498   0.619   3.420   5.074  0.2089 -0.2391 -0.3287
 3028TIP3    H130499   0.662   3.348   5.027 -0.5041 -1.5543  0.9645
 3028TIP3    H230500   0.560   3.459   5.009  1.4557 -0.0405 -1.3866
 3029TIP3   OH230501   6.410   4.582   2.878 -0.2886  0.2727  0.6216
 3029TIP3    H130502   6.326   4.607   2.840  0.0277  1.4476  0.6642
 3029TIP3    H230503   6.475   4.607   2.812  0.1941  1.5213  1.5212
 3030TIP3   OH230504   5.210   3.097  13.751  0.8285  0.3240  0.0123
 3030TIP3    H130505   5.238   3.188  13.756  2.3528 -0.1629  1.7719
 3030TIP3    H230506   5.195   3.071  13.842  0.1925 -1.1219 -0.4614
 3031TIP3   OH230507   2.078   1.383  13.352  0.0775 -0.1844  0.2595
 3031TIP3    H130508   2.003   1.441  13.365 -0.6101 -1.0122  0.1155
 3031TIP3    H230509   2.155   1.438  13.365 -0.5599  0.4807  1.3140
 3032TIP3   OH230510   2.955   3.321   3.641 -0.1013  0.2553  0.1161
 3032TIP3    H130511   2.972   3.261   3.714  0.6607 -1.6415 -1.5049
 3032TIP3    H230512   2.878   3.283   3.597 -0.7662  1.5680  0.0898
 3033TIP3   OH230513   4.888   1.578  14.573 -0.5395 -0.2270 -0.2658
 3033TIP3    H130514   4.958   1.595  14.636  0.2522  2.6932 -1.7431
 3033TIP3    H230515   4.807   1.590  14.622  0.0126 -0.7670  0.8017
 3034TIP3   OH230516   3.753   2.071  16.138  0.1879  0.0638 -0.1302
 3034TIP3    H130517   3.692   2.135  16.175  0.1728 -0.2393  0.3809
 3034TIP3    H230518   3.817   2.124  16.090 -0.2238  0.4134 -0.3024
 3035TIP3   OH230519   2.061   5.692  11.519  0.4044 -0.0585  0.1757
 3035TIP3    H130520   2.126   5.669  11.453  0.5815  0.5039  0.1471
 3035TIP3    H230521   1.998   5.747  11.472  0.6944  0.5960  0.5420
 3036TIP3   OH230522   0.248   2.482   5.438  0.3031  0.3054  0.0094
 3036TIP3    H130523   0.328   2.455   5.394 -0.5037 -0.5833 -0.9528
 3036TIP3    H230524   0.278   2.538   5.510  1.7379  0.4687 -0.6860
 3037TIP3   OH230525   3.572   5.021   3.847  0.8941  0.7283 -0.2127
 3037TIP3    H130526   3.541   5.055   3.930  0.7010  0.4727 -0.1780
 3037TIP3    H230527   3.620   4.941   3.870 -0.6602 -0.3355 -0.4817
 3038TIP3   OH230528   3.078   4.359   1.787 -0.6182 -0.4665 -0.5279
 3038TIP3    H130529   3.135   4.284   1.771 -0.2734  0.2653 -3.0549
 3038TIP3    H230530   3.103   4.423   1.720 -2.2611  1.1291  0.3100
 3039TIP3   OH230531   2.132   1.165   5.584 -0.1356  0.0358 -0.0987
 3039TIP3    H130532   2.062   1.156   5.649  0.3364  1.1741  0.5967
 3039TIP3    H230533   2.101   1.115   5.509 -1.5502  0.2338  0.3186
 3040TIP3   OH230534   1.327   2.223   2.971  0.6029 -0.4010  0.6353
 3040TIP3    H130535   1.384   2.244   2.897  1.6997 -0.1044  1.5444
 3040TIP3    H230536   1.240   2.251   2.943  1.4588  2.3959  0.5391
 3041TIP3   OH230537   1.769   6.489   5.628  0.0256  0.3080 -0.3016
 3041TIP3    H130538   1.784   6.520   5.539  2.7594 -0.2741 -0.1280
 3041TIP3    H230539   1.768   6.394   5.620  0.3632  0.2519  0.2981
 3042TIP3   OH230540   5.662   5.234   3.932 -0.0905  0.2157  0.0784
 3042TIP3    H130541   5.677   5.183   3.853  0.8539  0.6971 -0.0628
 3042TIP3    H230542   5.675   5.171   4.004 -1.1359 -0.2683 -0.1270
 3043TIP3   OH230543   2.159   1.705   4.057  0.0445  0.5538 -0.3451
 3043TIP3    H130544   2.163   1.614   4.085  0.6364  0.5639 -0.3763
 3043TIP3    H230545   2.143   1.701   3.963 -0.5640  0.4938 -0.2379
 3044TIP3   OH230546   5.412   0.028  12.863  0.0251 -0.0899 -0.2021
 3044TIP3    H130547   5.379   0.102  12.913  0.4927  1.2654 -1.7958
 3044TIP3    H230548   5.505   0.023  12.887  0.4171  1.0126 -1.4186
 3045TIP3   OH230549   5.688   2.461  12.811  0.2772 -0.2768  0.0383
 3045TIP3    H130550   5.696   2.494  12.901 -0.4922  1.3940 -0.4484
 3045TIP3    H230551   5.618   2.397  12.815 -0.3438  0.4083  0.5050
 3046TIP3   OH230552   2.096   0.146   1.063 -0.3881  0.1834 -0.2821
 3046TIP3    H130553   2.136   0.212   1.119  0.2028 -0.4976  0.1238
 3046TIP3    H230554   2.025   0.109   1.116  1.6121 -2.0874  1.0257
 3047TIP3   OH230555   5.648   1.318   0.310 -0.1067  0.0698 -0.0885
 3047TIP3    H130556   5.597   1.390   0.346 -1.5627 -0.1503 -1.5946
 3047TIP3    H230557   5.605   1.297   0.227  0.1855 -2.5974  0.3337
 3048TIP3   OH230558   0.608   1.088  12.664  0.0220  0.1229 -0.1985
 3048TIP3    H130559   0.584   1.138  12.742 -0.1409 -2.7732  1.7362
 3048TIP3    H230560   0.704   1.095  12.660  0.1005 -0.2972  0.7223
 3049TIP3   OH230561   4.437   1.425  12.324  0.1541 -0.1113  0.8017
 3049TIP3    H130562   4.497   1.460  12.390  0.6129  1.4176 -0.3608
 3049TIP3    H230563   4.350   1.432  12.364  0.4131  0.9155  1.2055
 3050TIP3   OH230564   5.865   1.276   1.520  0.1684  0.6777  0.2793
 3050TIP3    H130565   5.922   1.201   1.505 -2.6023 -2.6642  4.2748
 3050TIP3    H230566   5.917   1.334   1.576  0.6380 -0.9083  1.5559
 3051TIP3   OH230567   1.374   6.539   5.981 -0.2844 -0.1652  0.0488
 3051TIP3    H130568   1.423   6.546   5.899  0.1033  0.4248  0.3289
 3051TIP3    H230569   1.282   6.539   5.953 -0.1572  0.1524 -0.3776
 3052TIP3   OH230570   3.961   0.476   1.776  0.3450 -0.5813  0.2739
 3052TIP3    H130571   3.949   0.551   1.835 -3.2452  0.4546 -1.4883
 3052TIP3    H230572   3.892   0.414   1.803  1.5772 -2.1356  0.0042
 3053TIP3   OH230573   5.501   0.349   3.103 -0.2430  0.2631 -0.0729
 3053TIP3    H130574   5.504   0.384   3.014 -1.3129  0.4346 -0.0554
 3053TIP3    H230575   5.505   0.427   3.159  3.1200  0.0599  0.1491
 3054TIP3   OH230576   1.710   6.704  13.682 -0.2081  0.4646  0.0744
 3054TIP3    H130577   1.664   6.658  13.611 -0.3544  0.3340  0.2500
 3054TIP3    H230578   1.644   6.712  13.750  0.3000 -0.6092  0.7223
 3055TIP3   OH230579   6.117   4.880  15.557  0.4067  0.5819 -0.3702
 3055TIP3    H130580   6.159   4.797  15.580  2.1549  1.3188 -0.7094
 3055TIP3    H230581   6.139   4.939  15.628 -0.2022  0.9538 -0.4847
 3056TIP3   OH230582   0.564   3.647  14.892  0.1643 -0.2589 -0.1266
 3056TIP3    H130583   0.482   3.642  14.941 -0.5864 -0.5709 -1.3631
 3056TIP3    H230584   0.576   3.741  14.875  0.7425 -0.0875  1.1206
 3057TIP3   OH230585   5.740   5.392  12.814  0.6423 -0.3249 -0.4131
 3057TIP3    H130586   5.788   5.459  12.765  0.1965 -0.9198 -1.6947
 3057TIP3    H230587   5.747   5.420  12.905 -0.4777  2.0825 -0.9819
 3058TIP3   OH230588   0.050   1.915  12.887  0.1902  0.2312  0.4160
 3058TIP3    H130589   0.087   1.901  12.974  1.1456 -3.2308 -0.4136
 3058TIP3    H230590   0.115   1.879  12.827 -0.7242  1.9625 -1.7637
 3059TIP3   OH230591   2.734   0.409   0.069  0.5546  0.5061 -0.1114
 3059TIP3    H130592   2.765   0.458   0.145 -0.4644  1.2258 -0.1285
 3059TIP3    H230593   2.648   0.376   0.096  1.3202 -1.5751  0.0082
 3060TIP3   OH230594   6.708   1.372   5.237 -0.1387 -0.7422  0.4737
 3060TIP3    H130595   6.641   1.373   5.306  0.3642  0.8735  0.9638
 3060TIP3    H230596   6.763   1.448   5.255  0.3175 -0.5781 -1.4214
 3061TIP3   OH230597   5.721   1.877   3.310  0.0437 -0.0083 -0.2433
 3061TIP3    H130598   5.803   1.831   3.290  0.2407  1.0433 -2.0201
 3061TIP3    H230599   5.712   1.942   3.241 -2.9497 -0.9071 -0.8287
 3062TIP3   OH230600   0.261   6.179  14.636  0.2300 -0.3475 -0.1493
 3062TIP3    H130601   0.335   6.119  14.634  1.0560  0.6673 -1.4146
 3062TIP3    H230602   0.251   6.203  14.728  0.1323 -2.0902  0.3264
 3063TIP3   OH230603   1.532   3.956  15.481 -0.4955  0.3462 -0.8224
 3063TIP3    H130604   1.513   4.049  15.495  0.1037  0.3988 -0.3230
 3063TIP3    H230605   1.447   3.913  15.493 -0.4057  0.6046  1.1235
 3064TIP3   OH230606   0.913   0.828   1.658  0.0580  0.2683  0.0968
 3064TIP3    H130607   0.893   0.884   1.733 -1.1901 -1.4394  1.1328
 3064TIP3    H230608   0.832   0.826   1.607 -0.4400 -1.6161  0.8439
 3065TIP3   OH230609   2.287   5.056  14.425  0.5211 -0.0092 -0.5106
 3065TIP3    H130610   2.320   4.990  14.363  1.8720  0.6269 -0.4895
 3065TIP3    H230611   2.200   5.078  14.391  1.4255  0.7137 -2.5165
 3066TIP3   OH230612   5.015   5.753  16.734  0.9480 -0.7527  0.0109
 3066TIP3    H130613   5.051   5.827  16.782 -1.6816  1.6983 -1.4833
 3066TIP3    H230614   4.958   5.708  16.798 -2.2279  2.2527 -0.4011
 3067TIP3   OH230615   3.827   1.610  11.799  0.0791  0.0125 -0.3204
 3067TIP3    H130616   3.733   1.613  11.782 -0.2813 -1.6906  1.1448
 3067TIP3    H230617   3.835   1.607  11.894  1.7087  1.5097 -0.3448
 3068TIP3   OH230618   4.924   1.141  12.607  0.1751  0.0190  0.0993
 3068TIP3    H130619   5.010   1.141  12.649  0.1607 -0.2655  0.1252
 3068TIP3    H230620   4.862   1.137  12.680  0.1586 -1.6951  0.0259
 3069TIP3   OH230621   1.946   0.231   5.706  0.1275 -0.1349  0.0164
 3069TIP3    H130622   1.994   0.298   5.756  0.5427 -0.7037  0.3947
 3069TIP3    H230623   2.014   0.182   5.660 -0.3461  1.6299 -2.7907
 3070TIP3   OH230624   2.772   0.522  11.463 -0.4741  0.0896  0.2752
 3070TIP3    H130625   2.782   0.568  11.546 -0.1724  0.5435 -0.0058
 3070TIP3    H230626   2.825   0.442  11.473  1.6835  1.3527 -0.3562
 3071TIP3   OH230627   1.603   6.581   1.197  0.1244  0.1701  0.0066
 3071TIP3    H130628   1.578   6.488   1.198  0.7923 -0.0168  0.1479
 3071TIP3    H230629   1.551   6.620   1.267 -0.5700  0.0155 -0.4191
 3072TIP3   OH230630   5.363   2.932   0.040  0.0905  0.3319 -0.1511
 3072TIP3    H130631   5.302   2.960  -0.029 -0.4545  0.1199  0.2322
 3072TIP3    H230632   5.405   3.013   0.069 -0.8698  0.6667  0.3797
 3073TIP3   OH230633   4.271   4.903  16.689  0.2541  0.7496  0.6496
 3073TIP3    H130634   4.229   4.975  16.641  2.4269  0.0344 -2.7030
 3073TIP3    H230635   4.212   4.828  16.677  0.3487  0.8027 -0.1865
 3074TIP3   OH230636   3.166   3.359   5.202  0.3500 -0.1396 -0.3250
 3074TIP3    H130637   3.100   3.419   5.169  0.7897  0.9147  0.6764
 3074TIP3    H230638   3.234   3.415   5.239  0.9378 -1.2407  0.3160
 3075TIP3   OH230639   6.736   5.960   1.818  0.4211  0.4625 -0.0557
 3075TIP3    H130640   6.785   5.991   1.741 -0.6622  0.1570 -0.8957
 3075TIP3    H230641   6.775   5.875   1.839  1.3410  0.9645  0.3254
 3076TIP3   OH230642   2.853   5.189  16.195 -0.5204 -0.3648 -0.3770
 3076TIP3    H130643   2.759   5.200  16.213 -0.2054  2.3662  0.0531
 3076TIP3    H230644   2.896   5.236  16.267  1.0626  1.4866 -2.4224
 3077TIP3   OH230645   4.788   5.589  13.301 -0.5308 -0.5667 -0.7460
 3077TIP3    H130646   4.869   5.618  13.344 -0.4910  1.1872 -1.8956
 3077TIP3    H230647   4.816   5.557  13.215 -1.0072 -0.3198 -1.0003
 3078TIP3   OH230648   2.354   2.165   0.375  0.0438 -0.4128 -0.9081
 3078TIP3    H130649   2.306   2.107   0.433  1.5306 -0.1615  0.6559
 3078TIP3    H230650   2.426   2.112   0.341 -0.6596 -0.4847 -2.3964
 3079TIP3   OH230651   1.354   3.592  13.167  0.2300 -0.1517  0.2372
 3079TIP3    H130652   1.433   3.573  13.115 -0.7856 -1.9103 -0.7812
 3079TIP3    H230653   1.387   3.607  13.255  1.8025  0.2859 -0.3922
 3080TIP3   OH230654   0.138   1.438   3.394  0.3686 -0.2983  0.4962
 3080TIP3    H130655   0.102   1.386   3.465 -0.8054 -0.6792 -0.3398
 3080TIP3    H230656   0.145   1.377   3.320 -0.7863  0.6318 -0.4285
 3081TIP3   OH230657   0.551   2.012  13.874  0.1207  0.1073 -0.0068
 3081TIP3    H130658   0.606   1.980  13.802  0.1389  1.8821 -0.8424
 3081TIP3    H230659   0.569   2.106  13.878 -2.2408  0.6239  0.2067
 3082TIP3   OH230660   6.582   3.337  14.070  0.2484  0.0851  0.5273
 3082TIP3    H130661   6.583   3.431  14.088  0.3361  0.2285 -0.1854
 3082TIP3    H230662   6.629   3.298  14.143 -1.2358  0.4209  1.7146
 3083TIP3   OH230663   6.178   1.356   0.398 -0.4635 -0.1210 -0.3329
 3083TIP3    H130664   6.166   1.451   0.398 -2.6392 -0.3505 -0.9538
 3083TIP3    H230665   6.092   1.320   0.418  0.5495 -1.9847  1.0572
 3084TIP3   OH230666   2.647   0.305   0.749 -0.0873 -0.0761 -0.1025
 3084TIP3    H130667   2.603   0.390   0.741  0.6148  0.3144  0.1011
 3084TIP3    H230668   2.686   0.291   0.663  0.9657  0.4732  0.2724
 3085TIP3   OH230669   6.588   0.474  14.421 -0.4981 -0.3672  0.0670
 3085TIP3    H130670   6.585   0.449  14.513 -3.8936 -0.8377 -0.0553
 3085TIP3    H230671   6.498   0.466  14.390  0.4214  0.2129 -3.2177
 3086TIP3   OH230672   0.065   6.370   2.138 -0.0878 -0.1874  0.5943
 3086TIP3    H130673   0.120   6.297   2.166 -0.4812 -0.8317 -0.2606
 3086TIP3    H230674  -0.022   6.348   2.171 -0.3867 -0.5515 -0.4013
 3087TIP3   OH230675   0.951   3.830   2.915  0.1452 -0.4948  0.0113
 3087TIP3    H130676   0.981   3.828   3.005  0.3657  0.1445 -0.0456
 3087TIP3    H230677   0.974   3.744   2.880 -0.8545 -1.1222  0.8461
 3088TIP3   OH230678   5.186   5.681  15.594 -0.0315  0.7811 -0.0122
 3088TIP3    H130679   5.216   5.592  15.574 -1.7797 -0.2505  1.5939
 3088TIP3    H230680   5.103   5.688  15.547  0.6523  2.0529 -1.0898
 3089TIP3   OH230681   0.494   3.120  14.922  0.0159  0.2828  0.8718
 3089TIP3    H130682   0.534   3.084  14.842 -2.6169  0.3476 -0.6052
 3089TIP3    H230683   0.403   3.091  14.918 -1.1300  3.3102  1.9758
 3090TIP3   OH230684   5.043   0.340   0.092  0.4744  0.5070  0.4534
 3090TIP3    H130685   5.136   0.357   0.079  0.2424  0.7540 -1.0483
 3090TIP3    H230686   5.000   0.421   0.065 -0.3861 -0.8363 -2.6385
 3091TIP3   OH230687   4.466   5.197   3.948 -0.6295 -0.2465  0.3361
 3091TIP3    H130688   4.465   5.103   3.927 -1.8562 -0.0847 -0.4500
 3091TIP3    H230689   4.415   5.238   3.878 -1.6304  0.7780  1.5946
 3092TIP3   OH230690   5.571   3.145   5.974  0.4729  0.0852  0.2265
 3092TIP3    H130691   5.527   3.060   5.967 -0.6067  0.5982  0.6441
 3092TIP3    H230692   5.567   3.181   5.885 -3.4596  1.7969  0.8921
 3093TIP3   OH230693   4.712   4.653   0.069 -0.1654  0.1783 -0.4256
 3093TIP3    H130694   4.730   4.559   0.062  0.0406 -0.0603  2.2462
 3093TIP3    H230695   4.797   4.695   0.055 -0.0995 -0.0834 -0.8257
 3094TIP3   OH230696   5.750   4.049  15.662  0.4776  0.0299 -0.7522
 3094TIP3    H130697   5.840   4.079  15.675  0.1535  0.4008  0.9551
 3094TIP3    H230698   5.738   3.980  15.727  0.5997 -2.6107 -3.3360
 3095TIP3   OH230699   5.780   0.412   4.495 -0.4848 -0.2562 -0.1146
 3095TIP3    H130700   5.814   0.410   4.405  0.2398 -1.6625  0.1633
 3095TIP3    H230701   5.782   0.505   4.518  2.1774 -0.1058 -0.5398
 3096TIP3   OH230702   3.404   6.344  16.221  0.2916  0.2771 -0.2239
 3096TIP3    H130703   3.364   6.289  16.289  0.7319  0.1784 -0.0462
 3096TIP3    H230704   3.339   6.413  16.205 -0.6120 -0.7022 -0.9861
 3097TIP3   OH230705   2.907   3.087   2.962  0.0463  0.0452  0.6784
 3097TIP3    H130706   2.872   3.169   2.997 -1.4506 -0.9285  1.6221
 3097TIP3    H230707   2.995   3.108   2.932 -0.8047  2.3147 -0.4311
 3098TIP3   OH230708   5.751   0.916  12.043  0.0997  0.6829 -0.0395
 3098TIP3    H130709   5.679   0.906  11.981  0.6514 -1.0552 -0.4534
 3098TIP3    H230710   5.800   0.991  12.010 -1.3339  1.7177  0.0916
 3099TIP3   OH230711   4.627   4.770  12.670  0.5123  0.2849 -0.3350
 3099TIP3    H130712   4.667   4.813  12.594  0.8612  1.6454  0.5751
 3099TIP3    H230713   4.657   4.680  12.666 -0.4458  0.0055 -2.4689
 3100TIP3   OH230714   0.936   3.114  11.424  0.5612 -0.0563  1.0090
 3100TIP3    H130715   0.996   3.045  11.395  2.4381  0.6549  2.9097
 3100TIP3    H230716   0.953   3.188  11.366  0.6827 -0.2158  0.8404
 3101TIP3   OH230717   5.384   0.661  12.667  0.3624  0.1837 -0.6292
 3101TIP3    H130718   5.333   0.729  12.624  0.3242  0.7397  0.2762
 3101TIP3    H230719   5.327   0.629  12.737  0.9668  0.2985 -0.0768
 3102TIP3   OH230720   0.858   5.994  10.666  0.2021  0.2277  0.1828
 3102TIP3    H130721   0.904   6.055  10.609  1.3154  0.3975  1.2173
 3102TIP3    H230722   0.835   5.920  10.610  1.8656  0.0800 -0.3406
 3103TIP3   OH230723   1.354   0.852   1.315 -0.2702  0.2000  0.0862
 3103TIP3    H130724   1.447   0.833   1.324  0.1131  0.7588 -2.0703
 3103TIP3    H230725   1.312   0.805   1.387  1.6010 -0.5874  0.7141
 3104TIP3   OH230726   2.661   2.040  14.725  0.2234 -0.5389 -0.2574
 3104TIP3    H130727   2.685   2.008  14.638 -1.3585 -0.7788 -0.6269
 3104TIP3    H230728   2.745   2.060  14.767  1.0376 -1.0350 -1.5935
 3105TIP3   OH230729   6.733   5.557   1.080  0.1179  0.2145 -0.2950
 3105TIP3    H130730   6.662   5.592   1.027 -0.3713  1.2439  0.9854
 3105TIP3    H230731   6.786   5.633   1.104  0.4690 -0.2476  0.4603
 3106TIP3   OH230732   3.839   5.470   3.564  0.0337  0.6121 -0.0595
 3106TIP3    H130733   3.765   5.431   3.518 -0.1252  1.8512 -0.9108
 3106TIP3    H230734   3.816   5.563   3.573  1.0599  0.8335  0.5292
 3107TIP3   OH230735   4.947   4.210   4.822 -0.2695  0.5236  0.7604
 3107TIP3    H130736   4.916   4.121   4.808 -0.7901  0.7577  0.4175
 3107TIP3    H230737   4.976   4.240   4.736  0.6445  0.4110  1.0196
 3108TIP3   OH230738   6.083   6.007  15.248 -0.7019 -0.3416 -0.6343
 3108TIP3    H130739   6.026   5.945  15.293 -0.6176  0.3791  0.5028
 3108TIP3    H230740   6.087   6.083  15.306 -0.4753  0.5738 -1.8031
 3109TIP3   OH230741   2.980   0.115  15.578  0.6120 -0.1144  0.1420
 3109TIP3    H130742   2.888   0.135  15.594  0.2830 -2.4059  1.4743
 3109TIP3    H230743   3.024   0.200  15.580 -1.3428  0.9444  0.2292
 3110TIP3   OH230744   0.038   3.781  14.795 -0.2201  0.1997 -0.3325
 3110TIP3    H130745   0.094   3.849  14.833  2.1647 -1.3483 -0.8438
 3110TIP3    H230746   0.053   3.787  14.701 -1.2329  0.0048 -0.5101
 3111TIP3   OH230747   2.834   5.944   1.857 -0.0331  0.3438  0.2253
 3111TIP3    H130748   2.840   5.984   1.944  0.0233  1.9450 -0.4819
 3111TIP3    H230749   2.746   5.966   1.827 -0.2942 -0.7765  0.1234
 3112TIP3   OH230750   3.724   1.247   2.972  0.6097 -0.0161 -0.1409
 3112TIP3    H130751   3.744   1.281   2.884  1.8588  0.3865  0.2749
 3112TIP3    H230752   3.801   1.269   3.024 -0.3243  0.2141  1.2017
 3113TIP3   OH230753   2.438   1.308  11.025  0.0499  0.2410  0.2662
 3113TIP3    H130754   2.401   1.382  11.073  0.0176 -0.6997  1.7664
 3113TIP3    H230755   2.516   1.283  11.075 -0.7700 -1.6754  0.7037
 3114TIP3   OH230756   6.208   5.187   0.358 -0.3335 -0.0187  0.1559
 3114TIP3    H130757   6.268   5.162   0.428  1.0340  1.7399 -0.3085
 3114TIP3    H230758   6.168   5.105   0.329  0.4258 -0.9928  1.7710
 3115TIP3   OH230759   3.005   6.318   3.696 -0.5687 -0.4941 -0.2172
 3115TIP3    H130760   2.979   6.258   3.626 -2.0537 -0.2653  0.0937
 3115TIP3    H230761   3.005   6.264   3.775  0.0097 -0.5030 -0.2169
 3116TIP3   OH230762   6.132   6.034   0.534  0.1887 -0.0348  0.2569
 3116TIP3    H130763   6.149   6.046   0.627 -1.1425  1.5100  0.3531
 3116TIP3    H230764   6.213   6.059   0.491  0.0283  1.7620  0.9093
 3117TIP3   OH230765   5.324   0.579   6.735 -0.0530  0.6707  0.6512
 3117TIP3    H130766   5.263   0.525   6.784  0.4456 -0.7146 -0.1909
 3117TIP3    H230767   5.275   0.608   6.658  0.5609 -1.3103 -0.5788
 3118TIP3   OH230768   0.081   4.217   2.469  0.6050 -0.0485  0.1898
 3118TIP3    H130769   0.120   4.145   2.519  1.4036 -0.0386 -0.4154
 3118TIP3    H230770   0.013   4.251   2.527  1.0104 -0.5250  0.9668
 3119TIP3   OH230771   1.290   4.946  14.925  0.2089 -0.1161  0.4763
 3119TIP3    H130772   1.238   4.954  14.845  0.2077 -2.6116  0.1703
 3119TIP3    H230773   1.285   4.854  14.949  1.0525  0.3583  2.8178
 3120TIP3   OH230774   0.781   0.046  12.984  0.4728 -0.1447  0.1558
 3120TIP3    H130775   0.758   0.128  13.028  2.2282 -0.1979  1.2724
 3120TIP3    H230776   0.844   0.072  12.917  1.1780 -0.5891  0.6360
 3121TIP3   OH230777   4.871   1.282  14.760  0.4826  0.4493 -0.0089
 3121TIP3    H130778   4.841   1.192  14.751  2.5173 -0.2831  0.1433
 3121TIP3    H230779   4.880   1.313  14.669  0.4742  0.2736 -0.0699
 3122TIP3   OH230780   2.801   4.286   6.177  0.4220 -0.0437 -0.3271
 3122TIP3    H130781   2.764   4.205   6.143  0.3942 -0.7090  1.1979
 3122TIP3    H230782   2.803   4.345   6.102 -0.3630 -1.1659 -1.2670
 3123TIP3   OH230783   4.702   1.642   3.548  0.1043 -0.3349 -0.4642
 3123TIP3    H130784   4.616   1.615   3.579  1.8087 -2.3941  3.1411
 3123TIP3    H230785   4.713   1.597   3.464 -1.4011 -2.0323  0.1764
 3124TIP3   OH230786   1.897   1.520   3.076 -0.1548 -0.5137 -0.3407
 3124TIP3    H130787   1.847   1.545   2.998  0.6319 -0.4599 -0.8361
 3124TIP3    H230788   1.854   1.566   3.148 -1.3585 -1.1673 -0.6170
 3125TIP3   OH230789   2.608   3.150   4.323 -0.1721  0.3659  0.2704
 3125TIP3    H130790   2.685   3.093   4.326  0.2846  0.9753  0.2936
 3125TIP3    H230791   2.572   3.147   4.412  0.5928  1.1175  0.6124
 3126TIP3   OH230792   4.263   6.313   3.960 -0.0491 -0.0169  0.5766
 3126TIP3    H130793   4.210   6.235   3.945  0.7269 -0.4995  0.2568
 3126TIP3    H230794   4.217   6.361   4.029 -0.8035 -0.5003  0.4201
 3127TIP3   OH230795   4.835   3.743  16.475  0.4727 -0.0305  0.8915
 3127TIP3    H130796   4.764   3.679  16.476 -1.0575  1.1698 -4.2228
 3127TIP3    H230797   4.910   3.696  16.439  1.4967 -0.4796  3.3956
 3128TIP3   OH230798   3.125   6.455   3.925  0.3405 -0.4270  0.5599
 3128TIP3    H130799   3.071   6.395   3.976 -0.1765 -0.0250  0.4996
 3128TIP3    H230800   3.212   6.416   3.925  0.1317 -0.8982  0.9715
 3129TIP3   OH230801   1.917   4.549   0.873 -0.6876 -0.1853 -0.0858
 3129TIP3    H130802   1.913   4.534   0.778  2.1297 -0.3266 -0.2602
 3129TIP3    H230803   1.834   4.514   0.906 -3.1411  2.5409 -2.7422
 3130TIP3   OH230804   5.206   4.023   5.096  0.0311 -0.0537 -0.1255
 3130TIP3    H130805   5.239   4.080   5.026 -0.5052 -1.4238 -1.5752
 3130TIP3    H230806   5.245   3.938   5.077 -0.2742 -0.4931  1.1674
 3131TIP3   OH230807   6.494   2.023   3.210 -0.0002  0.3726  0.1122
 3131TIP3    H130808   6.580   2.060   3.231  0.0778  0.0148  0.4465
 3131TIP3    H230809   6.432   2.087   3.242  0.1402  1.1221 -1.0521
 3132TIP3   OH230810   3.896   0.817  16.108  0.1639  0.4882  0.0180
 3132TIP3    H130811   3.964   0.859  16.161  0.4114  1.0862 -0.7601
 3132TIP3    H230812   3.814   0.838  16.153  0.3343  1.3325 -0.0474
 3133TIP3   OH230813   4.782   4.646   3.370 -0.3734 -0.2109 -0.3001
 3133TIP3    H130814   4.838   4.610   3.300 -1.3298 -2.4666  0.0193
 3133TIP3    H230815   4.794   4.586   3.443 -3.8142 -1.3262 -0.4925
 3134TIP3   OH230816   5.839   2.994   1.287 -0.3109 -0.7810 -0.0934
 3134TIP3    H130817   5.853   2.936   1.362 -0.5290 -0.1094  0.4733
 3134TIP3    H230818   5.927   3.004   1.249  0.0343 -0.0798  0.8542
 3135TIP3   OH230819   3.035   6.002   0.987  1.0052  0.3220 -0.3482
 3135TIP3    H130820   2.996   6.044   1.064  1.6080  0.9465 -0.3718
 3135TIP3    H230821   3.001   5.913   0.988  1.4536  0.1519  0.9711
 3136TIP3   OH230822   2.960   5.075   0.944 -0.0295 -0.1011 -0.5438
 3136TIP3    H130823   2.990   5.165   0.928  1.2186 -0.5256 -0.6913
 3136TIP3    H230824   2.925   5.046   0.860  2.0351 -0.6474 -1.2670
 3137TIP3   OH230825   4.650   4.494  12.691 -0.1651  0.0001 -0.4312
 3137TIP3    H130826   4.713   4.464  12.626 -0.1776 -1.8117  0.3283
 3137TIP3    H230827   4.628   4.415  12.741 -2.5861  0.6785 -0.2987
 3138TIP3   OH230828   0.269   4.017  17.024  0.1169  0.5214  0.0378
 3138TIP3    H130829   0.312   3.933  17.044  2.2444  1.0828 -1.8413
 3138TIP3    H230830   0.327   4.083  17.062 -1.2775  1.2022  1.0470
 3139TIP3   OH230831   6.249   4.167  16.013 -0.5561 -0.1939 -0.0883
 3139TIP3    H130832   6.170   4.121  15.985 -0.3298 -0.1284 -0.8618
 3139TIP3    H230833   6.304   4.170  15.935 -0.5651  1.3736 -0.0665
 3140TIP3   OH230834   0.268   4.781   2.183 -0.2627  0.0867 -0.5305
 3140TIP3    H130835   0.249   4.782   2.277  0.9652  1.1712 -0.2687
 3140TIP3    H230836   0.277   4.873   2.159 -1.5112 -0.1164 -1.9438
 3141TIP3   OH230837   0.139   3.546   2.012 -0.2858 -0.1393  0.0658
 3141TIP3    H130838   0.069   3.561   1.948  0.5760 -2.2298 -1.4799
 3141TIP3    H230839   0.129   3.617   2.075 -1.9678  1.3045 -1.6954
 3142TIP3   OH230840   5.142   2.137  14.758 -0.4905  0.0763 -0.7030
 3142TIP3    H130841   5.125   2.058  14.810 -0.0382  0.3429 -0.1384
 3142TIP3    H230842   5.067   2.143  14.699 -2.7022  1.4365  1.9951
 3143TIP3   OH230843   4.593   0.565  11.910  0.0965 -0.3270  0.3194
 3143TIP3    H130844   4.569   0.523  11.993 -1.3609  1.0867  0.6573
 3143TIP3    H230845   4.523   0.628  11.894  3.1030  3.4988  0.8616
 3144TIP3   OH230846   4.814   5.098  11.392 -0.1072 -0.5370 -0.1294
 3144TIP3    H130847   4.719   5.101  11.384 -0.3020 -0.9519  1.6142
 3144TIP3    H230848   4.845   5.071  11.306 -1.4473  1.2370 -1.2284
 3145TIP3   OH230849   1.799   4.573  14.384  0.2937 -0.0445  0.2269
 3145TIP3    H130850   1.741   4.545  14.313 -0.2179  0.1403  0.5724
 3145TIP3    H230851   1.779   4.665  14.397  1.1330  0.1915 -0.0909
 3146TIP3   OH230852   5.579   1.012   6.552  0.0475 -0.5430  0.5332
 3146TIP3    H130853   5.523   1.039   6.625  0.0538 -0.7519  0.6169
 3146TIP3    H230854   5.634   1.088   6.535  0.5521 -0.7375  1.2299
 3147TIP3   OH230855   2.390   4.921   1.888  0.0564 -0.3457  0.0774
 3147TIP3    H130856   2.380   4.987   1.819 -0.5954 -0.6031 -0.0775
 3147TIP3    H230857   2.403   4.839   1.841  1.8297 -0.2106  0.2671
 3148TIP3   OH230858   0.628   1.240  12.896  0.6485 -0.1157 -0.1025
 3148TIP3    H130859   0.718   1.266  12.878  0.6376 -0.4706 -0.6830
 3148TIP3    H230860   0.617   1.256  12.990  1.6927 -1.2137  0.2300
 3149TIP3   OH230861   0.063   0.224   2.417  0.0319 -0.3141 -0.2449
 3149TIP3    H130862   0.068   0.154   2.352 -1.7079  0.5398 -1.3724
 3149TIP3    H230863   0.137   0.280   2.398  0.1600 -0.6595 -0.7848
 3150TIP3   OH230864   3.047   3.438  14.167  0.1810  0.4341 -0.0449
 3150TIP3    H130865   3.036   3.514  14.111  0.2568 -0.1785 -0.9107
 3150TIP3    H230866   3.139   3.413  14.155 -0.1903 -0.6290 -0.8859
 3151TIP3   OH230867   1.677   0.648  13.325 -0.3407 -0.3305  0.1574
 3151TIP3    H130868   1.669   0.723  13.383  0.8111  0.1705 -0.3070
 3151TIP3    H230869   1.607   0.589  13.352 -1.0097  0.7275  0.7952
 3152TIP3   OH230870   4.313   1.202   3.126  0.0312  0.4963  0.2065
 3152TIP3    H130871   4.372   1.266   3.085  1.0566 -1.0541 -0.8268
 3152TIP3    H230872   4.279   1.150   3.053 -0.4503 -0.3986  1.0503
 3153TIP3   OH230873   5.272   0.116   5.280  0.3882  0.4017 -0.1272
 3153TIP3    H130874   5.340   0.051   5.302  2.0695  1.5648 -1.5757
 3153TIP3    H230875   5.250   0.097   5.189 -2.7465 -1.1644  0.8132
 3154TIP3   OH230876   1.906   1.245   3.972 -0.4586  0.0798  0.3100
 3154TIP3    H130877   1.885   1.332   4.008  0.8417  0.8222 -0.6721
 3154TIP3    H230878   1.995   1.228   4.002  0.4247  0.4268 -1.9086
 3155TIP3   OH230879   4.528   0.222  10.709 -0.0083  0.3024  0.5067
 3155TIP3    H130880   4.459   0.240  10.645 -1.0180 -0.4827  1.3530
 3155TIP3    H230881   4.487   0.235  10.794  1.1039  0.5557  1.0238
 3156TIP3   OH230882   6.616   1.985   2.639  0.3802  0.2318  0.6177
 3156TIP3    H130883   6.711   1.995   2.638  0.4801 -0.6327  0.3384
 3156TIP3    H230884   6.602   1.894   2.614 -0.6106  0.9508 -1.7367
 3157TIP3   OH230885   1.077   2.891  14.357  0.0619 -0.1033  0.6549
 3157TIP3    H130886   1.066   2.829  14.286  0.1076 -0.2475  0.7732
 3157TIP3    H230887   0.995   2.887  14.406 -0.1327  0.3041  0.3693
 3158TIP3   OH230888   6.130   0.992   3.526 -0.1132  0.1096  0.2819
 3158TIP3    H130889   6.049   0.990   3.475 -0.6501 -0.2688  1.1261
 3158TIP3    H230890   6.181   1.062   3.487 -0.9362  0.4870 -0.1470
 3159TIP3   OH230891   6.406   0.739   0.383  0.2523  0.4158  0.6291
 3159TIP3    H130892   6.323   0.703   0.350 -1.1716  1.4344  2.8527
 3159TIP3    H230893   6.385   0.772   0.470  2.9970  0.8920  1.2073
 3160TIP3   OH230894   2.986   1.134  11.638  0.6024  0.2371 -0.1260
 3160TIP3    H130895   2.960   1.134  11.730  1.3469  1.1019  0.0930
 3160TIP3    H230896   3.082   1.139  11.640  0.5735  1.5782 -0.9455
 3161TIP3   OH230897   2.284   0.578  14.758  0.0538 -0.4058 -0.3103
 3161TIP3    H130898   2.238   0.515  14.813 -0.4664 -1.6748 -2.1418
 3161TIP3    H230899   2.242   0.662  14.778 -1.5783 -1.1830 -0.3459
 3162TIP3   OH230900   6.091   0.527   6.062 -0.1200 -0.9200  0.6712
 3162TIP3    H130901   6.149   0.452   6.047  0.3440 -0.6530  1.1027
 3162TIP3    H230902   6.103   0.549   6.154  0.3016  0.1380  0.3805
 3163TIP3   OH230903   0.430   1.974   6.051 -0.0184 -0.4104 -0.6162
 3163TIP3    H130904   0.396   2.040   6.112  0.9218  0.0011 -0.5172
 3163TIP3    H230905   0.525   1.980   6.060  0.0818 -1.7494 -0.6584
 3164TIP3   OH230906   4.369   0.328   1.757 -0.4657  0.0520 -0.9521
 3164TIP3    H130907   4.451   0.317   1.708  0.3321  0.1758  0.3043
 3164TIP3    H230908   4.374   0.261   1.826 -0.7474  0.9940  0.0013
 3165TIP3   OH230909   0.593   0.239   1.212  0.4675 -0.2769  0.3179
 3165TIP3    H130910   0.626   0.304   1.150  0.4636 -0.8606 -0.3018
 3165TIP3    H230911   0.640   0.258   1.293 -0.0744  0.9716  0.3729
 3166TIP3   OH230912   3.717   3.512   1.074  0.2675  0.0677 -0.1146
 3166TIP3    H130913   3.674   3.522   1.159 -0.6997 -0.5361 -0.5053
 3166TIP3    H230914   3.799   3.466   1.094  0.8209  1.3500  0.6648
 3167TIP3   OH230915   1.724   5.599   5.925 -0.4117 -1.0046 -0.1518
 3167TIP3    H130916   1.795   5.543   5.895 -0.7060 -0.4423 -2.0077
 3167TIP3    H230917   1.766   5.665   5.979  0.3195 -1.3176 -0.3339
 3168TIP3   OH230918   1.614   1.355  12.803  0.1120 -0.5799  0.0952
 3168TIP3    H130919   1.666   1.281  12.835  0.5701 -0.2875  0.0405
 3168TIP3    H230920   1.541   1.361  12.865 -0.2851 -1.4704 -0.2612
 3169TIP3   OH230921   5.298   1.536   5.513  0.3652 -0.0172 -0.0115
 3169TIP3    H130922   5.344   1.594   5.574  1.5858 -0.4983 -0.4400
 3169TIP3    H230923   5.342   1.451   5.523 -0.5632 -0.5492 -0.3066
 3170TIP3   OH230924   0.429   2.820  12.447  0.0377 -0.0269 -0.2524
 3170TIP3    H130925   0.501   2.799  12.388  0.5829  0.6124  0.1683
 3170TIP3    H230926   0.426   2.747  12.508  1.7299  0.9076  1.0263
 3171TIP3   OH230927   2.008   6.480  15.559  0.4750 -0.1784  0.0386
 3171TIP3    H130928   1.938   6.539  15.530  0.2501 -0.8515 -0.8275
 3171TIP3    H230929   2.082   6.539  15.578  0.0531  0.4367 -0.1947
 3172TIP3   OH230930   6.611   4.310   4.326 -0.2531  0.1310  0.5721
 3172TIP3    H130931   6.639   4.238   4.383 -1.4969  0.4695  1.6494
 3172TIP3    H230932   6.565   4.267   4.254  0.3886 -0.2321  0.3674
 3173TIP3   OH230933   6.654   6.403   5.158  0.3791  0.2291 -0.0236
 3173TIP3    H130934   6.596   6.471   5.193  0.1706 -0.0327  0.1460
 3173TIP3    H230935   6.718   6.451   5.105  0.2712  0.5616  0.1434
 3174TIP3   OH230936   4.165   3.721   6.612  0.2031 -0.8120 -0.6534
 3174TIP3    H130937   4.086   3.769   6.589  0.6920  0.2031 -0.3096
 3174TIP3    H230938   4.157   3.637   6.567 -0.1693  0.0057 -2.1886
 3175TIP3   OH230939   5.350   1.161  13.980  0.2644 -0.4334 -0.1493
 3175TIP3    H130940   5.395   1.116  14.051 -0.2122 -0.8643 -0.1127
 3175TIP3    H230941   5.262   1.123  13.980 -0.2309  0.6810  0.0519
 3176TIP3   OH230942   4.143   4.174  14.403  0.2066  0.5522  0.1568
 3176TIP3    H130943   4.221   4.119  14.396 -0.8649 -1.1777  1.1366
 3176TIP3    H230944   4.176   4.256  14.440  1.6826  0.1999 -0.2729
 3177TIP3   OH230945   2.411   5.719  16.837  0.2782 -0.3781  0.5579
 3177TIP3    H130946   2.397   5.664  16.760  0.9170  1.8575 -1.2697
 3177TIP3    H230947   2.425   5.657  16.909  1.3085 -2.6063 -1.4262
 3178TIP3   OH230948   0.655   4.062   3.122  0.0721  0.2247  0.2060
 3178TIP3    H130949   0.640   3.978   3.079  1.2548 -1.0716  2.1412
 3178TIP3    H230950   0.750   4.068   3.129 -0.0383  1.2326  0.9778
 3179TIP3   OH230951   4.255   6.590  15.020 -0.2818  0.1547  0.0293
 3179TIP3    H130952   4.264   6.506  14.974  3.2256  0.1224  0.4863
 3179TIP3    H230953   4.262   6.567  15.113  0.9982  0.9373  0.1486
 3180TIP3   OH230954   3.860   3.083   0.045 -0.3528  0.1041 -0.4677
 3180TIP3    H130955   3.784   3.103  -0.010 -0.5599  0.0734 -0.1896
 3180TIP3    H230956   3.887   2.995   0.018 -1.2694 -0.4603  0.4177
 3181TIP3   OH230957   4.093   1.090   4.221 -0.0221  0.3904  0.3078
 3181TIP3    H130958   4.081   0.998   4.198  0.3873  0.8242 -1.8409
 3181TIP3    H230959   4.019   1.135   4.180  0.6895  1.2204 -0.0941
 3182TIP3   OH230960   5.508   6.648   0.485 -0.6975  0.1697  0.2448
 3182TIP3    H130961   5.570   6.674   0.417 -1.7000 -0.1461 -0.8434
 3182TIP3    H230962   5.526   6.706   0.558 -1.5141  2.6063 -1.3514
 3183TIP3   OH230963   2.376   4.579   0.055 -0.2085  0.0917  0.3839
 3183TIP3    H130964   2.432   4.616  -0.013 -0.2977 -0.3725  0.0525
 3183TIP3    H230965   2.423   4.501   0.085 -0.7774 -0.4413 -0.0659
 3184TIP3   OH230966   4.053   3.167   0.451 -0.3477 -0.1535 -0.3476
 3184TIP3    H130967   4.027   3.102   0.517 -2.0656  1.0927  0.2608
 3184TIP3    H230968   4.086   3.115   0.378 -1.8290 -1.7331  0.0485
 3185TIP3   OH230969   0.591   2.327  12.669 -0.5450 -0.2070 -0.2114
 3185TIP3    H130970   0.546   2.251  12.633  0.4019 -0.9425  0.0964
 3185TIP3    H230971   0.555   2.337  12.757 -0.2874 -0.6572 -0.0485
 3186TIP3   OH230972   4.951   6.175  14.831 -1.1519 -0.3198  0.1313
 3186TIP3    H130973   4.976   6.266  14.816 -0.2785 -0.3995  1.0601
 3186TIP3    H230974   4.860   6.180  14.859 -1.3917  0.1878 -0.6963
 3187TIP3   OH230975   4.315   1.337   1.365  0.3033  0.9188 -0.4761
 3187TIP3    H130976   4.353   1.282   1.433 -0.2223  1.8498  0.5963
 3187TIP3    H230977   4.221   1.336   1.382  0.2264  1.6744 -0.7967
 3188TIP3   OH230978   2.074   1.613   5.132 -0.4601  0.0102  0.1637
 3188TIP3    H130979   2.041   1.699   5.157 -0.8171  0.0275 -0.3723
 3188TIP3    H230980   2.168   1.617   5.153 -0.8322 -0.1926  2.1076
 3189TIP3   OH230981   2.384   3.765  14.074 -0.8584  0.2584 -0.1534
 3189TIP3    H130982   2.474   3.755  14.041 -0.1831  0.8379  1.4258
 3189TIP3    H230983   2.394   3.816  14.154 -2.5158 -0.4633  0.5392
 3190TIP3   OH230984   3.899   2.589   5.623  0.2699  0.6452 -0.0608
 3190TIP3    H130985   3.965   2.603   5.555 -0.1876  1.0528 -0.4267
 3190TIP3    H230986   3.921   2.651   5.692  1.8274 -0.9865  1.0124
 3191TIP3   OH230987   4.287   6.111   2.872 -0.4317  0.3132  0.2542
 3191TIP3    H130988   4.309   6.020   2.851 -0.4909  0.3229  0.1534
 3191TIP3    H230989   4.345   6.163   2.817  0.3637  0.3358  1.0883
 3192TIP3   OH230990   0.665   4.212   2.644 -0.8093  0.4516  0.5190
 3192TIP3    H130991   0.687   4.304   2.659 -0.3446  0.3110  0.7208
 3192TIP3    H230992   0.699   4.167   2.721  1.7542 -0.3265 -0.9491
 3193TIP3   OH230993   0.807   1.645  13.670 -0.5679  0.2219  0.0370
 3193TIP3    H130994   0.806   1.551  13.655  0.3367 -0.3951  3.1440
 3193TIP3    H230995   0.899   1.666  13.685 -0.9296  1.3034  0.8798
 3194TIP3   OH230996   1.638   2.449  14.476  0.4718 -0.0086 -0.1044
 3194TIP3    H130997   1.726   2.480  14.452 -0.1974  0.2575 -2.4208
 3194TIP3    H230998   1.616   2.385  14.408 -1.2190  0.0656  0.3377
 3195TIP3   OH230999   5.809   4.869   3.012  0.1438 -0.2356 -0.1280
 3195TIP3    H131000   5.818   4.867   3.107  0.5910  0.2511 -0.1522
 3195TIP3    H231001   5.865   4.942   2.985  0.3382 -0.6252 -0.7976
 3196TIP3   OH231002   3.596   2.444   1.916  0.3223  0.0527 -0.0051
 3196TIP3    H131003   3.664   2.503   1.948 -1.4080  1.5605  1.1469
 3196TIP3    H231004   3.555   2.410   1.996 -1.1933  0.3518 -0.6293
 3197TIP3   OH231005   5.228   1.009  11.092 -0.1081 -0.0175 -0.5754
 3197TIP3    H131006   5.316   0.995  11.058 -0.7170  0.1760 -2.3018
 3197TIP3    H231007   5.233   1.094  11.138  1.0208 -0.8681  0.9600
 3198TIP3   OH231008   2.866   2.809  14.142  0.3752  0.0372  0.0636
 3198TIP3    H131009   2.855   2.740  14.077 -1.1016  1.2537 -1.0350
 3198TIP3    H231010   2.819   2.779  14.219  3.3282 -2.0793  1.2291
 3199TIP3   OH231011   5.559   0.343   6.508 -0.2673  0.2557 -0.2269
 3199TIP3    H131012   5.604   0.316   6.588 -0.0602  0.9936 -0.0864
 3199TIP3    H231013   5.481   0.289   6.505 -1.0908  1.2800  1.3165
 3200TIP3   OH231014   0.669   6.156  10.484 -0.1525  0.3396 -0.4157
 3200TIP3    H131015   0.764   6.143  10.483 -0.2967 -0.7868 -0.7982
 3200TIP3    H231016   0.633   6.073  10.452 -1.3388  0.0778  1.4523
 3201TIP3   OH231017   1.519   4.484  14.481  0.1413  0.3494  0.0671
 3201TIP3    H131018   1.502   4.552  14.417  1.1732  1.2389  0.7002
 3201TIP3    H231019   1.566   4.529  14.551  0.3889 -0.9133  0.7333
 3202TIP3   OH231020   5.613   5.835  11.462 -0.2082 -0.3334 -0.3013
 3202TIP3    H131021   5.656   5.900  11.407 -1.1082  0.3307 -0.2416
 3202TIP3    H231022   5.547   5.795  11.405 -2.8253  2.0113  0.7925
 3203TIP3   OH231023   0.811   4.785  16.803 -0.1205  0.7402 -0.3711
 3203TIP3    H131024   0.896   4.827  16.790  0.6939 -0.7337 -0.0318
 3203TIP3    H231025   0.823   4.729  16.880 -0.6259 -1.3390 -1.7117
 3204TIP3   OH231026   0.369   3.869   3.103  0.0516 -0.6184  0.1909
 3204TIP3    H131027   0.306   3.806   3.068  0.6616  0.0802 -2.3259
 3204TIP3    H231028   0.455   3.833   3.081  0.4390  2.0412 -3.4831
 3205TIP3   OH231029   5.145   4.885   3.847 -0.1870 -0.3650  0.4033
 3205TIP3    H131030   5.186   4.805   3.814 -0.7122 -0.0089 -1.2255
 3205TIP3    H231031   5.181   4.896   3.935  3.3625  0.0113 -0.9295
 3206TIP3   OH231032   4.922   1.456  11.434 -0.2599  0.3329 -0.6736
 3206TIP3    H131033   5.005   1.443  11.388  0.4608  0.5142  0.5175
 3206TIP3    H231034   4.947   1.458  11.527 -1.8811 -2.0902 -0.0930
 3207TIP3   OH231035   1.094   4.174   2.576  0.1086 -0.2260 -0.4463
 3207TIP3    H131036   1.017   4.157   2.522  0.8014  0.8623 -1.8390
 3207TIP3    H231037   1.100   4.098   2.634 -0.2497 -1.8609 -2.4205
 3208TIP3   OH231038   5.859   2.030   0.996 -0.3151 -0.6706 -0.0606
 3208TIP3    H131039   5.782   2.072   0.957 -0.2609  0.6645  1.1907
 3208TIP3    H231040   5.837   2.021   1.089  1.4540  0.7656  0.5395
 3209TIP3   OH231041   0.932   5.904  13.551  0.1923 -0.5282  0.2493
 3209TIP3    H131042   0.895   5.951  13.476  0.3421 -1.4452 -0.4133
 3209TIP3    H231043   0.955   5.973  13.613  1.4265  0.3859 -1.1480
 3210TIP3   OH231044   0.594   3.112  13.052 -0.2953 -0.4163  0.4185
 3210TIP3    H131045   0.687   3.132  13.061 -0.6812  0.4990  3.1814
 3210TIP3    H231046   0.582   3.028  13.096 -0.8008 -0.5087  0.1226
 3211TIP3   OH231047   2.662   0.699   5.210 -0.1904  0.1016 -0.3456
 3211TIP3    H131048   2.750   0.673   5.182 -0.0715 -0.1168  0.2277
 3211TIP3    H231049   2.607   0.624   5.190 -0.0156 -0.2495  0.4419
 3212TIP3   OH231050   1.650   0.621   3.559  0.3099  0.4952  0.0342
 3212TIP3    H131051   1.602   0.694   3.519 -1.0688 -0.7187 -0.6263
 3212TIP3    H231052   1.630   0.546   3.503  3.0892 -0.0838 -0.3329
 3213TIP3   OH231053   2.088   1.577  17.078  0.4927  0.4222 -0.4339
 3213TIP3    H131054   2.159   1.635  17.107  1.5821 -1.3740  0.6797
 3213TIP3    H231055   2.052   1.541  17.159 -0.2897 -0.3218 -1.0951
 3214TIP3   OH231056   1.957   0.868   4.389 -0.4298  0.4616 -0.1987
 3214TIP3    H131057   1.919   0.810   4.455 -0.4226  0.6975  0.0126
 3214TIP3    H231058   1.901   0.945   4.389 -1.3213 -0.1524 -1.5347
 3215TIP3   OH231059   1.501   4.761   4.927 -0.3843  0.8227  0.0213
 3215TIP3    H131060   1.435   4.821   4.892  0.7860  1.1479 -1.7419
 3215TIP3    H231061   1.543   4.809   4.998 -1.7666  0.7343  0.9468
 3216TIP3   OH231062   0.107   5.252   1.002  0.4636 -0.7270  0.0734
 3216TIP3    H131063   0.020   5.255   1.041  0.0379 -1.5014 -0.7991
 3216TIP3    H231064   0.095   5.278   0.911  0.9540 -1.9159 -0.3520
 3217TIP3   OH231065   0.394   2.281  14.832 -0.5874  0.6157  0.1981
 3217TIP3    H131066   0.485   2.266  14.805 -1.1502 -0.0659 -1.4827
 3217TIP3    H231067   0.380   2.374  14.817  0.1800  1.0003  1.6926
 3218TIP3   OH231068   2.318   4.413   2.043  0.3744 -0.3377 -0.0820
 3218TIP3    H131069   2.248   4.349   2.028  1.0773 -1.0530 -0.3671
 3218TIP3    H231070   2.272   4.492   2.071 -0.6018 -0.5973 -0.8796
 3219TIP3   OH231071   4.425   3.881  14.083  0.4056 -0.5367 -0.4381
 3219TIP3    H131072   4.380   3.851  14.004  1.3770  1.4428 -1.8159
 3219TIP3    H231073   4.479   3.806  14.109  0.7731 -0.9524 -2.2229
 3220TIP3   OH231074   0.389   5.436  13.905 -0.3835  0.1399 -0.6179
 3220TIP3    H131075   0.469   5.461  13.859  0.0630 -1.0008 -0.5017
 3220TIP3    H231076   0.402   5.466  13.994 -0.3900  0.5860 -0.7676
 3221TIP3   OH231077   4.619   6.678  13.794 -0.4833  0.5632 -0.0117
 3221TIP3    H131078   4.673   6.651  13.719  0.6872  0.0506  0.9801
 3221TIP3    H231079   4.535   6.636  13.779 -0.8228  1.7597 -1.8494
 3222TIP3   OH231080   6.572   4.611  15.926  0.0038  0.6189  0.2055
 3222TIP3    H131081   6.626   4.551  15.978 -1.1421 -0.0051  0.6964
 3222TIP3    H231082   6.624   4.691  15.921  1.6363 -0.4248 -0.5785
 3223TIP3   OH231083   0.639   4.656  13.219 -0.2646  0.1153 -0.2454
 3223TIP3    H131084   0.575   4.683  13.285  0.2259 -1.3153  0.8593
 3223TIP3    H231085   0.614   4.567  13.196  0.5918 -0.0131 -0.7163
 3224TIP3   OH231086   4.218   3.975   2.101 -0.6880  0.2611 -0.0105
 3224TIP3    H131087   4.174   3.891   2.112 -0.3774 -0.3676 -2.7523
 3224TIP3    H231088   4.200   4.000   2.010  2.3350  1.2998 -0.4474
 3225TIP3   OH231089   2.749   0.115   5.398  0.1679  0.4459  0.0026
 3225TIP3    H131090   2.802   0.194   5.391  0.5775  0.2278  0.4930
 3225TIP3    H231091   2.690   0.118   5.323  1.5239  0.2214 -1.1185
 3226TIP3   OH231092   0.199   2.453   0.823 -0.3970  0.4324 -0.3619
 3226TIP3    H131093   0.263   2.484   0.886 -1.5600  1.6930  0.2645
 3226TIP3    H231094   0.194   2.359   0.837 -0.4718  0.6598  1.2896
 3227TIP3   OH231095   3.277   6.367  16.564 -0.2296  0.4344  0.0301
 3227TIP3    H131096   3.185   6.359  16.590 -0.3480  0.4052 -0.3809
 3227TIP3    H231097   3.325   6.313  16.626 -0.2915  1.8026  1.3396
 3228TIP3   OH231098   1.050   3.793  10.553  0.2804 -0.3068  0.3212
 3228TIP3    H131099   1.034   3.888  10.552 -0.7649 -0.4072  2.5840
 3228TIP3    H231100   0.994   3.760  10.623  0.5631 -2.6373 -0.4800
 3229TIP3   OH231101   2.185   4.452  16.899 -0.4257 -0.3804  0.4821
 3229TIP3    H131102   2.235   4.424  16.822 -0.1352  0.3962  0.3793
 3229TIP3    H231103   2.144   4.534  16.873 -1.8964 -1.0617  0.5138
 3230TIP3   OH231104   1.176   4.946  12.906 -0.0600 -0.1529 -0.2832
 3230TIP3    H131105   1.099   4.970  12.957  0.0778 -0.7368  0.2144
 3230TIP3    H231106   1.236   5.020  12.916 -0.8954  0.7358 -1.4402
 3231TIP3   OH231107   4.006   2.224  16.829 -0.4448  0.1015 -0.2475
 3231TIP3    H131108   4.042   2.260  16.910 -0.8004 -0.2904  0.0914
 3231TIP3    H231109   4.082   2.210  16.772 -0.0162 -1.0041  0.5647
 3232TIP3   OH231110   4.171   5.743  13.133 -0.4480  1.4499 -0.2407
 3232TIP3    H131111   4.081   5.758  13.107  0.2012  1.4970 -2.7040
 3232TIP3    H231112   4.217   5.824  13.110  0.4830  0.9162 -0.2978
 3233TIP3   OH231113   3.419   4.484  16.970  0.1727  0.5419 -0.9360
 3233TIP3    H131114   3.462   4.457  17.051 -0.2403 -0.4900 -1.0582
 3233TIP3    H231115   3.329   4.504  16.995 -0.9291 -2.9381 -1.6252
 3234TIP3   OH231116   0.209   5.775   2.773 -0.3792  0.0791  0.6113
 3234TIP3    H131117   0.254   5.821   2.844 -1.0694  3.3069 -0.8398
 3234TIP3    H231118   0.116   5.792   2.789 -0.5208  1.6175 -1.3865
 3235TIP3   OH231119   6.573   2.279   2.630 -0.0321 -0.6709 -0.3141
 3235TIP3    H131120   6.586   2.278   2.535  0.2470 -0.5325 -0.2788
 3235TIP3    H231121   6.531   2.195   2.649 -1.8453  0.0904 -0.7886
 3236TIP3   OH231122   2.373   2.927  13.724 -0.4129  0.3308  0.1484
 3236TIP3    H131123   2.347   3.013  13.755  0.7818  0.0004  2.2188
 3236TIP3    H231124   2.339   2.866  13.790  1.3760 -0.4933  0.3686
 3237TIP3   OH231125   2.846   2.932  15.451  0.1009 -0.1133 -0.2658
 3237TIP3    H131126   2.857   2.944  15.356 -0.3419  0.7010 -0.2237
 3237TIP3    H231127   2.903   2.999  15.490 -0.4844  0.2224  0.0241
 3238TIP3   OH231128   4.776   1.417   4.090 -0.5170  0.0258  0.3264
 3238TIP3    H131129   4.693   1.444   4.129 -0.6462  0.0763  0.0160
 3238TIP3    H231130   4.769   1.441   3.998  0.2412  0.9456  0.4987
 3239TIP3   OH231131   4.533   2.631   5.429  0.3082 -0.0575  0.0815
 3239TIP3    H131132   4.438   2.641   5.424  0.3315 -0.3805 -1.3296
 3239TIP3    H231133   4.560   2.694   5.496 -0.8791  0.1337  0.4000
 3240TIP3   OH231134   4.242   0.087  14.313 -0.1080 -0.3170 -0.5252
 3240TIP3    H131135   4.230   0.165  14.367 -0.7836  1.0996 -2.5871
 3240TIP3    H231136   4.188   0.020  14.355 -0.8643  0.8134  0.3745
 3241TIP3   OH231137   1.076   4.971  11.540 -0.1356  0.0446  0.1552
 3241TIP3    H131138   1.039   5.058  11.527  0.6741  0.5151  0.9230
 3241TIP3    H231139   1.057   4.925  11.458  0.7955  1.4493 -0.8961
 3242TIP3   OH231140   6.680   0.596   4.160 -0.2937 -0.1731  0.6455
 3242TIP3    H131141   6.591   0.562   4.152 -1.2190  2.2027  0.1855
 3242TIP3    H231142   6.680   0.648   4.240 -0.0498  1.7478 -0.5301
 3243TIP3   OH231143   4.265   3.203  13.004  0.6171  0.0537  0.3692
 3243TIP3    H131144   4.225   3.282  13.042 -0.0551  1.0093 -2.1282
 3243TIP3    H231145   4.251   3.135  13.070  0.0936  1.7117  2.0693
 3244TIP3   OH231146   1.253   5.283   0.839  0.0509  0.7304 -0.7364
 3244TIP3    H131147   1.269   5.204   0.787 -0.5059 -0.5357  0.9160
 3244TIP3    H231148   1.326   5.288   0.900 -0.8822  0.3451  0.4654
 3245TIP3   OH231149   5.809   6.147   0.663  0.4847 -0.1026  0.4315
 3245TIP3    H131150   5.837   6.080   0.600 -0.5550 -1.1525  1.0303
 3245TIP3    H231151   5.890   6.184   0.697  1.1341 -1.8810  0.9235
 3246TIP3   OH231152   4.477   1.238   1.569 -0.0171 -0.0302  0.3362
 3246TIP3    H131153   4.462   1.165   1.629 -0.4820 -0.5903 -0.4353
 3246TIP3    H231154   4.551   1.286   1.607 -0.2156 -0.4410  1.2764
 3247TIP3   OH231155   3.661   2.542  14.517 -0.6191  0.0796 -0.1887
 3247TIP3    H131156   3.662   2.626  14.470  0.5444  0.8049  1.0647
 3247TIP3    H231157   3.688   2.564  14.606  1.1000 -1.8287 -0.1780
 3248TIP3   OH231158   0.764   1.686  12.912  0.5238 -0.3894  0.5133
 3248TIP3    H131159   0.703   1.712  12.981 -0.1783 -0.8735  0.0847
 3248TIP3    H231160   0.710   1.641  12.848  0.9543  1.1391 -0.9868
 3249TIP3   OH231161   6.402   6.649   0.468 -0.3154 -0.0665  0.4368
 3249TIP3    H131162   6.438   6.640   0.556 -0.9404 -3.8147  0.4749
 3249TIP3    H231163   6.470   6.695   0.418  1.2810 -0.4064  2.2109
 3250TIP3   OH231164   3.635   1.986  12.372  0.0674 -0.2339  0.4435
 3250TIP3    H131165   3.673   1.974  12.458 -0.8129 -1.6862  0.6613
 3250TIP3    H231166   3.691   1.936  12.313  1.4946  1.8746 -0.1239
 3251TIP3   OH231167   1.269   4.601   1.985  0.0174 -0.0530  0.0955
 3251TIP3    H131168   1.307   4.579   1.900 -0.3819 -1.3546  0.2316
 3251TIP3    H231169   1.325   4.671   2.018  1.5734 -1.0617 -0.2687
 3252TIP3   OH231170   5.779   0.922   6.424 -0.3254 -0.0243 -0.1068
 3252TIP3    H131171   5.727   0.953   6.498  1.0781 -2.4223  2.0612
 3252TIP3    H231172   5.731   0.846   6.391 -0.7228  0.7752 -1.4324
 3253TIP3   OH231173   4.583   6.426  11.411 -0.3200 -0.5122 -0.1131
 3253TIP3    H131174   4.663   6.383  11.440 -0.0141  0.8614  1.2638
 3253TIP3    H231175   4.607   6.470  11.330  0.6232  0.6270  0.7462
 3254TIP3   OH231176   3.255   1.574   4.986  0.5100  1.0374 -0.3466
 3254TIP3    H131177   3.340   1.616   4.972  1.4203 -0.6873 -0.2078
 3254TIP3    H231178   3.242   1.520   4.908 -0.7327  1.6773 -0.6133
 3255TIP3   OH231179   2.355   4.392   6.296 -0.1876  0.6794  0.2484
 3255TIP3    H131180   2.372   4.301   6.324 -0.5231 -0.0465 -1.7727
 3255TIP3    H231181   2.261   4.395   6.281  0.0196  0.9410 -1.0707
 3256TIP3   OH231182   4.071   5.629   0.083  0.4887 -0.2648  0.1839
 3256TIP3    H131183   4.092   5.541   0.112 -0.7196 -0.1770  1.3677
 3256TIP3    H231184   4.146   5.654   0.027  0.6528 -2.1587 -0.5075
 3257TIP3   OH231185   5.190   4.038  16.767  0.1330 -0.2059  0.3677
 3257TIP3    H131186   5.144   4.120  16.751 -0.8736 -1.0270 -1.1141
 3257TIP3    H231187   5.230   4.050  16.854 -0.2958  1.6829  0.3501
 3258TIP3   OH231188   2.017   6.716  13.036 -0.1727  0.4201 -0.1288
 3258TIP3    H131189   1.975   6.633  13.013  0.6798 -0.0466 -0.0399
 3258TIP3    H231190   2.014   6.719  13.131  1.7895 -0.6017  0.0062
 3259TIP3   OH231191   0.162   0.155   1.892 -0.2272  0.1798  0.0131
 3259TIP3    H131192   0.240   0.156   1.948  0.6542  2.2040 -1.1414
 3259TIP3    H231193   0.159   0.243   1.854 -2.9978  0.1033 -0.1230
 3260TIP3   OH231194   4.833   6.354  13.710 -0.5333 -0.5593  0.8702
 3260TIP3    H131195   4.846   6.261  13.692  0.6008  0.0424 -2.0413
 3260TIP3    H231196   4.777   6.384  13.638  0.5378  1.3264  0.7685
 3261TIP3   OH231197   1.478   5.178   3.241  0.5340 -0.2393  0.1010
 3261TIP3    H131198   1.501   5.244   3.307  0.7440 -1.2143  1.0283
 3261TIP3    H231199   1.553   5.178   3.181 -0.7223  2.4520 -1.6809
 3262TIP3   OH231200   1.900   0.654   2.874 -0.3438 -0.4519 -0.2323
 3262TIP3    H131201   1.868   0.574   2.916 -0.3951 -0.7911 -0.8901
 3262TIP3    H231202   1.990   0.634   2.850 -0.6234 -0.6376 -1.1712
 3263TIP3   OH231203   6.373   5.775   4.111 -0.2788  0.2569  0.3519
 3263TIP3    H131204   6.378   5.777   4.015  2.7032  1.2349  0.4119
 3263TIP3    H231205   6.416   5.856   4.139  0.0535 -0.5805  2.5061
 3264TIP3   OH231206   0.767   4.442  14.183  0.3566  0.0149 -0.6025
 3264TIP3    H131207   0.800   4.374  14.241  0.4332  0.8776  0.4035
 3264TIP3    H231208   0.845   4.477  14.139  0.6884  1.2139  0.8514
 3265TIP3   OH231209   4.272   3.738  17.109 -0.0231  0.4781 -0.0345
 3265TIP3    H131210   4.235   3.794  17.177  1.3122  2.0048 -0.4919
 3265TIP3    H231211   4.249   3.649  17.136 -2.2284  1.2079  0.7182
 3266TIP3   OH231212   6.196   3.591   3.063  0.3600 -0.7508  0.3833
 3266TIP3    H131213   6.108   3.607   3.098 -0.6877 -0.5248 -2.1491
 3266TIP3    H231214   6.249   3.663   3.098 -1.5139  1.6545 -1.3485
 3267TIP3   OH231215   0.753   0.671  15.571 -0.5829  0.0434  0.7792
 3267TIP3    H131216   0.788   0.598  15.623  0.3875  0.8822  1.3451
 3267TIP3    H231217   0.830   0.719  15.543 -1.0853 -0.3256 -1.4128
 3268TIP3   OH231218   1.155   0.491  16.514 -0.8111 -0.2117  0.1145
 3268TIP3    H131219   1.246   0.514  16.530 -0.4851 -1.7225  0.5791
 3268TIP3    H231220   1.157   0.439  16.434 -1.1397 -0.9893  0.6028
 3269TIP3   OH231221   6.741   1.126   5.033 -0.1819  0.0254 -0.5534
 3269TIP3    H131222   6.791   1.195   4.988  1.2142 -0.2152  0.5702
 3269TIP3    H231223   6.663   1.171   5.066 -0.3667  0.5761 -1.6634
 3270TIP3   OH231224   6.689   2.359  11.680  0.3362  0.4525  0.1993
 3270TIP3    H131225   6.757   2.426  11.668  2.2855 -0.6370  3.6419
 3270TIP3    H231226   6.646   2.384  11.762  1.7290 -2.8364  2.1030
 3271TIP3   OH231227   4.101   6.384   1.443 -0.5836  0.2189  0.0978
 3271TIP3    H131228   4.009   6.368   1.464 -0.5748  1.2731  1.0568
 3271TIP3    H231229   4.123   6.464   1.490  0.5742  0.5120 -0.8740
 3272TIP3   OH231230   2.221   4.630  10.827 -0.4133  0.4047  0.0804
 3272TIP3    H131231   2.193   4.701  10.885  0.0851  1.8296 -1.3214
 3272TIP3    H231232   2.252   4.675  10.748  2.1172 -1.2466  0.0140
 3273TIP3   OH231233   5.220   4.521   3.402 -0.4117  0.0259 -0.1268
 3273TIP3    H131234   5.179   4.438   3.426  1.1985 -0.5069  0.9965
 3273TIP3    H231235   5.250   4.557   3.486  2.7369 -0.4094 -0.9277
 3274TIP3   OH231236   1.702   6.257  13.815  0.1887  0.2279  0.1698
 3274TIP3    H131237   1.761   6.292  13.883  0.2899  2.6096 -1.0411
 3274TIP3    H231238   1.746   6.177  13.784 -0.1880 -1.3371  3.2710
 3275TIP3   OH231239   0.474   6.644  11.850  0.4023  0.0732 -0.4774
 3275TIP3    H131240   0.419   6.711  11.889 -1.1964 -0.6167 -1.4230
 3275TIP3    H231241   0.498   6.587  11.923 -3.7816 -2.0846 -0.4358
 3276TIP3   OH231242   3.976   1.415  16.682  0.5153  0.0154 -0.3920
 3276TIP3    H131243   4.063   1.430  16.719 -0.2596 -0.2501  1.6433
 3276TIP3    H231244   3.986   1.336  16.630  2.0404  1.3316 -2.2540
 3277TIP3   OH231245   6.162   3.452   5.667  0.5245  0.1170  0.0419
 3277TIP3    H131246   6.128   3.445   5.578  1.1185  0.6776 -0.2391
 3277TIP3    H231247   6.087   3.478   5.720  0.3629  0.6725 -0.4519
 3278TIP3   OH231248   3.827   6.516  12.720 -0.0009 -0.1810  0.5811
 3278TIP3    H131249   3.915   6.488  12.696 -0.6914 -2.1826  0.1655
 3278TIP3    H231250   3.813   6.478  12.807  0.0663  1.4184  1.3283
 3279TIP3   OH231251   1.858   6.589   2.481 -0.4920  0.2944  1.0532
 3279TIP3    H131252   1.863   6.576   2.386 -0.4594 -1.2126  1.2421
 3279TIP3    H231253   1.772   6.629   2.495 -0.3411  0.8849  0.3661
 3280TIP3   OH231254   2.708   2.566  15.994  0.5303 -1.0478 -0.1205
 3280TIP3    H131255   2.647   2.536  16.062 -0.1343  1.7350  0.6503
 3280TIP3    H231256   2.791   2.579  16.040  0.5360 -0.7649 -0.2089
 3281TIP3   OH231257   4.869   6.457   6.549 -0.0240  1.0568 -0.0332
 3281TIP3    H131258   4.939   6.439   6.612 -0.1700  1.5938  0.2952
 3281TIP3    H231259   4.790   6.421   6.589 -0.1124  1.3739  0.0879
 3282TIP3   OH231260   3.833   5.088   2.531  0.3643  0.2013  0.4037
 3282TIP3    H131261   3.835   5.027   2.458  0.0449  0.0522  0.5182
 3282TIP3    H231262   3.797   5.169   2.494  0.5817  0.2526  0.3035
 3283TIP3   OH231263   3.793   5.025   1.310 -0.1484 -0.2043 -0.1822
 3283TIP3    H131264   3.705   5.004   1.279  0.2452 -0.8501 -0.8746
 3283TIP3    H231265   3.778   5.070   1.394 -1.1335 -0.2864 -0.3009
 3284TIP3   OH231266   0.300   1.939   4.339 -0.3639  0.7327  0.3741
 3284TIP3    H131267   0.382   1.927   4.387 -0.0648 -0.9488 -0.4835
 3284TIP3    H231268   0.311   2.023   4.294  1.5978 -0.1950 -0.9926
 3285TIP3   OH231269   5.521   4.576  14.004 -0.2345 -0.1149  0.2502
 3285TIP3    H131270   5.476   4.542  14.081 -0.0099 -0.1475  0.3701
 3285TIP3    H231271   5.540   4.667  14.025 -2.4258  0.6450 -0.7844
 3286TIP3   OH231272   1.224   1.185   4.903  0.2360 -0.1978 -0.0255
 3286TIP3    H131273   1.154   1.123   4.922  1.4513 -1.6033  0.1149
 3286TIP3    H231274   1.183   1.252   4.850 -1.1340 -1.1559 -0.2428
 3287TIP3   OH231275   2.701   2.562   6.180  0.2051  0.4341 -0.0795
 3287TIP3    H131276   2.629   2.585   6.239  0.0266  0.0831 -0.1551
 3287TIP3    H231277   2.773   2.619   6.206 -0.7343  2.3082 -1.4157
 3288TIP3   OH231278   4.723   5.597  11.616  0.3018 -0.6070  0.1673
 3288TIP3    H131279   4.758   5.512  11.589  1.2820 -0.3883  0.6927
 3288TIP3    H231280   4.797   5.657  11.607 -0.9335  0.6966 -2.3584
 3289TIP3   OH231281   3.446   2.482   3.713 -0.1726 -0.1781  0.0850
 3289TIP3    H131282   3.452   2.391   3.684  0.3800 -0.1494  0.0999
 3289TIP3    H231283   3.481   2.481   3.802 -2.0436 -0.3027  0.8597
 3290TIP3   OH231284   6.133   5.778   3.426 -0.0400 -0.3046 -0.6024
 3290TIP3    H131285   6.045   5.762   3.393 -0.4161 -0.3642  0.4081
 3290TIP3    H231286   6.149   5.871   3.409 -0.5311 -0.1548 -0.2581
 3291TIP3   OH231287   5.743   3.951  13.990 -0.9311  0.3260 -0.0984
 3291TIP3    H131288   5.679   3.987  13.929  0.3950  2.2141 -0.4569
 3291TIP3    H231289   5.803   3.901  13.934 -2.2432 -1.8155  0.2877
 3292TIP3   OH231290   6.231   3.472   6.281  0.1647  0.5220 -0.1537
 3292TIP3    H131291   6.272   3.531   6.218 -1.1985 -0.7758 -2.3880
 3292TIP3    H231292   6.296   3.461   6.350  1.8742  1.7337 -1.4992
 3293TIP3   OH231293   3.569   0.303   1.783 -0.1308 -0.0050 -0.1020
 3293TIP3    H131294   3.556   0.397   1.784  0.4803  0.0846 -0.2022
 3293TIP3    H231295   3.650   0.289   1.832 -1.0041 -0.6201  1.2201
 3294TIP3   OH231296   2.964   5.426   1.453  0.4346  0.2207  0.2655
 3294TIP3    H131297   2.966   5.355   1.516  0.2923 -0.2085 -0.2074
 3294TIP3    H231298   3.005   5.390   1.374 -1.0733  0.1287 -0.5074
 3295TIP3   OH231299   4.315   5.079  12.495  0.4158  0.1193  0.1804
 3295TIP3    H131300   4.265   5.100  12.574  0.0221  0.5769 -0.1860
 3295TIP3    H231301   4.399   5.124  12.507  0.4335  0.0194  0.4306
 3296TIP3   OH231302   0.191   0.074  14.167 -0.2043 -0.3287 -0.4757
 3296TIP3    H131303   0.161  -0.016  14.162  0.6738 -0.6382 -0.4305
 3296TIP3    H231304   0.136   0.122  14.105 -0.1068 -1.0678 -1.1485
 3297TIP3   OH231305   6.528   3.581   5.228 -0.4236  0.2287  0.0314
 3297TIP3    H131306   6.580   3.622   5.297  0.8514  0.2576 -0.9149
 3297TIP3    H231307   6.513   3.651   5.164 -0.8685 -0.0036 -0.1249
 3298TIP3   OH231308   5.503   2.255  15.005 -0.3974 -0.1936 -0.0987
 3298TIP3    H131309   5.475   2.277  14.916  1.4536 -1.2444 -0.9973
 3298TIP3    H231310   5.535   2.165  14.998  4.1014  1.1186  0.4922
 3299TIP3   OH231311   2.038   3.931  15.945 -0.1654 -0.3967 -0.0049
 3299TIP3    H131312   2.126   3.895  15.937 -0.1129 -0.7877  1.8832
 3299TIP3    H231313   2.028   3.951  16.038 -1.2308  1.8595 -0.5104
 3300TIP3   OH231314   6.280   1.954   4.193  0.5747  0.3138 -0.2535
 3300TIP3    H131315   6.270   1.871   4.145  0.2841  0.3116 -0.1930
 3300TIP3    H231316   6.213   1.950   4.261  0.9250  0.3584  0.0967
 3301TIP3   OH231317   6.177   0.428   3.139 -0.0274 -0.3230  0.4227
 3301TIP3    H131318   6.237   0.405   3.068  0.0218  1.3234 -0.0966
 3301TIP3    H231319   6.234   0.454   3.212 -0.0748  1.2092 -0.0599
 3302TIP3   OH231320   4.627   2.401   2.478  0.2454  0.0579  0.1062
 3302TIP3    H131321   4.680   2.422   2.555 -0.7134  1.5093  0.4240
 3302TIP3    H231322   4.687   2.356   2.419  1.1261 -0.6639  1.4938
 3303TIP3   OH231323   4.190   1.613   3.069 -0.6332  0.7594  0.3555
 3303TIP3    H131324   4.148   1.567   2.996 -1.0396  1.0925  0.3802
 3303TIP3    H231325   4.132   1.686   3.088 -0.0859  1.1771  0.4477
 3304TIP3   OH231326   0.693   3.271  11.311 -0.1357 -0.3184 -0.0492
 3304TIP3    H131327   0.734   3.206  11.368 -1.7559  0.1061  1.6761
 3304TIP3    H231328   0.761   3.291  11.246  1.7403 -0.9412  1.6079
 3305TIP3   OH231329   1.994   0.566  14.842 -0.2805  0.2268 -0.3374
 3305TIP3    H131330   1.923   0.574  14.907 -0.8984 -0.0837 -0.9700
 3305TIP3    H231331   2.022   0.475  14.849 -1.8735 -0.4517 -2.0529
 3306TIP3   OH231332   0.610   0.945  15.680  0.4343 -0.5107 -0.1225
 3306TIP3    H131333   0.583   0.890  15.606  1.8773 -0.5671 -0.6351
 3306TIP3    H231334   0.558   1.025  15.671  0.0139 -0.8420 -0.7300
 3307TIP3   OH231335   6.681   5.438  16.488 -0.0823  0.3768 -0.0785
 3307TIP3    H131336   6.663   5.526  16.524  0.7360  0.9585 -1.0434
 3307TIP3    H231337   6.682   5.451  16.393 -2.0922 -1.1008 -0.3787
 3308TIP3   OH231338   5.116   5.300   3.476  0.1146 -0.1916 -0.2535
 3308TIP3    H131339   5.149   5.329   3.391  0.8290 -0.7949 -0.1970
 3308TIP3    H231340   5.031   5.343   3.485 -0.8256 -1.5502 -2.0961
 3309TIP3   OH231341   0.481   0.221  14.946  0.5953 -0.1928 -0.5450
 3309TIP3    H131342   0.479   0.289  15.013  0.1040 -0.4925 -0.2477
 3309TIP3    H231343   0.398   0.174  14.957  0.3861 -0.0805 -1.5387
 3310TIP3   OH231344   4.929   6.224  16.390 -0.4463 -0.4658  0.4025
 3310TIP3    H131345   4.909   6.137  16.424  0.7954 -0.8898  0.1064
 3310TIP3    H231346   4.978   6.267  16.460  0.7207 -0.7637 -0.2032
 3311TIP3   OH231347   6.389   5.710  13.592  0.2407  0.0956  0.2750
 3311TIP3    H131348   6.333   5.775  13.635 -0.0833  0.0112 -0.0168
 3311TIP3    H231349   6.338   5.628  13.596  0.2557  0.0610 -0.1618
 3312TIP3   OH231350   6.352   6.400   4.573  0.1100  0.5796 -0.4065
 3312TIP3    H131351   6.426   6.443   4.529 -0.2198 -0.7791 -2.4547
 3312TIP3    H231352   6.374   6.307   4.569  0.6060  0.3515  3.4941
 3313TIP3   OH231353   3.386   5.318  15.644  0.0038  0.1020 -0.0051
 3313TIP3    H131354   3.372   5.371  15.722  2.0914  0.1499  0.3935
 3313TIP3    H231355   3.361   5.229  15.671 -0.1882  0.2809  0.4150
 3314TIP3   OH231356   1.604   6.321   6.070 -0.0668 -0.2604  0.1568
 3314TIP3    H131357   1.629   6.334   6.162  0.5176  0.3134 -0.0772
 3314TIP3    H231358   1.637   6.399   6.025  1.0077 -1.2489 -0.8103
 3315TIP3   OH231359   0.914   2.162   4.668  0.5588 -0.4663 -0.1154
 3315TIP3    H131360   0.986   2.167   4.606 -2.3688 -3.5959 -4.3736
 3315TIP3    H231361   0.943   2.099   4.734  1.9358 -1.2041 -1.3807
 3316TIP3   OH231362   1.900   5.350  12.137  0.4238  0.0556  0.2428
 3316TIP3    H131363   1.888   5.351  12.232 -0.2318 -0.3618  0.1773
 3316TIP3    H231364   1.938   5.435  12.116  1.4211 -0.1919  0.9731
 3317TIP3   OH231365   4.062   1.454   2.876 -0.4471  0.2055  0.0852
 3317TIP3    H131366   4.148   1.430   2.841 -0.9675 -1.5224 -0.0984
 3317TIP3    H231367   4.006   1.379   2.857 -2.0188  1.2868  0.1980
 3318TIP3   OH231368   3.167   5.413   2.390 -0.3092  0.7402 -0.5305
 3318TIP3    H131369   3.106   5.363   2.445  1.2653  0.3045  0.9206
 3318TIP3    H231370   3.152   5.504   2.415  1.5494  0.4611  2.0441
 3319TIP3   OH231371   5.922   5.437   0.621 -0.0975  0.5345  0.0641
 3319TIP3    H131372   5.990   5.500   0.643 -0.9663  1.5652 -0.1638
 3319TIP3    H231373   5.923   5.434   0.525 -1.6700  2.0406 -0.0374
 3320TIP3   OH231374   3.216   2.160   2.845 -0.1396 -0.2428  0.1084
 3320TIP3    H131375   3.153   2.221   2.806 -1.2770  0.3742  2.6636
 3320TIP3    H231376   3.206   2.080   2.794 -1.0923  0.6656 -1.1955
 3321TIP3   OH231377   4.295   3.960   5.249  0.1345 -0.1737  0.1534
 3321TIP3    H131378   4.248   4.036   5.282  1.6352  0.6938  0.3747
 3321TIP3    H231379   4.232   3.915   5.192 -0.6952  1.3786 -0.1947
 3322TIP3   OH231380   5.248   2.489  16.728 -0.1239  0.3294  0.0893
 3322TIP3    H131381   5.173   2.496  16.786 -1.2062  1.2288 -1.3337
 3322TIP3    H231382   5.282   2.578  16.721  0.4608  0.1011 -0.0539
 3323TIP3   OH231383   1.741   1.401   0.416  0.3885 -0.2030  0.5513
 3323TIP3    H131384   1.735   1.483   0.366 -1.3191 -0.9574 -0.5752
 3323TIP3    H231385   1.674   1.409   0.484  1.6292  0.1497  1.8007
 3324TIP3   OH231386   5.751   3.829   5.997  0.0472 -0.6440  0.4810
 3324TIP3    H131387   5.685   3.898   6.003 -0.0267 -0.5937 -0.6365
 3324TIP3    H231388   5.821   3.857   6.055  0.4429  0.8763 -0.6884
 3325TIP3   OH231389   5.137   4.346   5.116  0.0379  0.2242  0.2619
 3325TIP3    H131390   5.177   4.329   5.031  2.7288  1.1481  1.2265
 3325TIP3    H231391   5.103   4.435   5.110 -1.5368 -0.3879 -0.4031
 3326TIP3   OH231392   2.306   4.101   5.555 -0.4809 -0.4642  0.3220
 3326TIP3    H131393   2.244   4.032   5.531 -1.8614  0.8833 -0.1948
 3326TIP3    H231394   2.258   4.156   5.617  0.6779 -0.1075  0.9323
 3327TIP3   OH231395   6.384   5.666  13.079  0.1217  0.4832  0.2888
 3327TIP3    H131396   6.444   5.690  13.008  0.6818  3.8989  1.7131
 3327TIP3    H231397   6.434   5.679  13.159 -1.3515 -0.5015  1.4304
 3328TIP3   OH231398   1.021   4.818  10.987 -0.0348  0.5361  1.0167
 3328TIP3    H131399   0.961   4.892  10.979 -0.9213 -0.3368 -1.8480
 3328TIP3    H231400   1.085   4.831  10.917 -1.5401 -2.3929 -1.1307
 3329TIP3   OH231401   1.896   0.234  15.436 -0.2107  0.0123  0.3887
 3329TIP3    H131402   1.973   0.210  15.384 -0.7243 -1.3141  0.2079
 3329TIP3    H231403   1.822   0.217  15.379 -0.6465  2.5315  0.0764
 3330TIP3   OH231404   4.404   2.459  15.880  0.2141 -0.2877 -0.4436
 3330TIP3    H131405   4.331   2.505  15.922  1.1677  0.7023  0.1533
 3330TIP3    H231406   4.364   2.378  15.847 -1.3383  0.5745 -0.8268
 3331TIP3   OH231407   0.543   4.978   2.994 -0.4594 -0.2474  1.0477
 3331TIP3    H131408   0.601   4.924   2.942  0.3826 -0.2606  1.9662
 3331TIP3    H231409   0.458   4.972   2.950  0.3270  0.1824 -0.6157
 3332TIP3   OH231410   5.054   1.266   1.393  0.7079 -0.0448 -0.2344
 3332TIP3    H131411   4.998   1.300   1.463  1.5632  0.3540  0.2776
 3332TIP3    H231412   5.031   1.174   1.387  0.7394 -0.1318  0.7164
 3333TIP3   OH231413   5.814   5.469   4.068 -0.5037  0.8252  0.1086
 3333TIP3    H131414   5.761   5.395   4.035  0.2013  0.6729 -0.7348
 3333TIP3    H231415   5.812   5.460   4.163 -0.4443 -0.2855  0.0191
 3334TIP3   OH231416   0.529   3.860   1.158 -0.5494  0.0176  0.3291
 3334TIP3    H131417   0.471   3.928   1.193  0.7038  0.7908  0.9890
 3334TIP3    H231418   0.576   3.826   1.234 -1.0059 -1.4721 -0.0275
 3335TIP3   OH231419   1.349   0.633  16.138  0.4961  0.2268 -0.5407
 3335TIP3    H131420   1.379   0.724  16.144  0.1934  0.2543  0.9246
 3335TIP3    H231421   1.426   0.584  16.107  1.3971  0.6460  0.9352
 3336TIP3   OH231422   5.264   4.979  17.143 -0.2605 -0.4885  0.4436
 3336TIP3    H131423   5.323   5.034  17.093 -0.0624 -1.1145 -0.0308
 3336TIP3    H231424   5.315   4.951  17.219 -0.7538  0.9391  1.3242
 3337TIP3   OH231425   5.902   1.598  17.327 -0.3436  0.5632  0.0539
 3337TIP3    H131426   5.853   1.520  17.302 -3.3329  1.8693  1.2944
 3337TIP3    H231427   5.975   1.565  17.379 -0.4432 -1.4623 -0.9739
 3338TIP3   OH231428   2.701   2.086   2.771  0.3839  0.1909  0.2482
 3338TIP3    H131429   2.622   2.034   2.764  0.3414  0.0067  1.8335
 3338TIP3    H231430   2.771   2.029   2.739 -0.1199  0.4451 -1.3982
 3339TIP3   OH231431   0.548   2.555  16.081 -0.1445  0.1370  0.1483
 3339TIP3    H131432   0.588   2.638  16.106 -0.3679  0.3683 -0.2612
 3339TIP3    H231433   0.612   2.489  16.109  0.0436  0.4452  0.4547
 3340TIP3   OH231434   2.738   3.035   3.385  0.2306  0.6641 -0.1621
 3340TIP3    H131435   2.745   2.950   3.343  0.3775  0.4946  0.1988
 3340TIP3    H231436   2.829   3.063   3.398  0.1978  1.6014 -1.7101
 3341TIP3   OH231437   1.938   1.890   0.903  0.5139  0.5753  0.3315
 3341TIP3    H131438   1.981   1.835   0.969  1.4842 -0.8611 -1.4057
 3341TIP3    H231439   1.848   1.899   0.934  0.6701 -0.9368  1.3329
 3342TIP3   OH231440   4.257   3.743   3.939 -0.3538  0.2172 -0.2065
 3342TIP3    H131441   4.245   3.796   3.860 -1.5374  0.9193  0.4083
 3342TIP3    H231442   4.351   3.739   3.951 -0.2052  1.3440 -0.8507
 3343TIP3   OH231443   3.333   3.826   2.516  0.0866  0.4366 -0.1634
 3343TIP3    H131444   3.416   3.795   2.552  1.1386  2.5426 -0.6638
 3343TIP3    H231445   3.353   3.848   2.425 -1.7289 -1.6330 -1.1795
 3344TIP3   OH231446   4.201   3.951   3.188 -0.4326 -0.6702 -0.2982
 3344TIP3    H131447   4.133   3.914   3.243 -0.2146 -0.7571 -0.0862
 3344TIP3    H231448   4.218   3.884   3.122 -1.4025 -0.1692 -1.0974
 3345TIP3   OH231449   4.896   6.480  14.171  0.1121 -0.2620  0.1410
 3345TIP3    H131450   4.872   6.572  14.178  1.2628  0.1890 -1.3110
 3345TIP3    H231451   4.858   6.451  14.088  0.6638 -0.7760  0.0589
 3346TIP3   OH231452   6.291   6.367   0.657 -0.6532  0.0188 -1.3458
 3346TIP3    H131453   6.347   6.444   0.668 -1.0517  0.1502  0.0685
 3346TIP3    H231454   6.351   6.294   0.647 -0.2690  0.5116 -2.7695
 3347TIP3   OH231455   6.738   5.585  16.913  0.1136  0.1272  0.2905
 3347TIP3    H131456   6.798   5.623  16.849  0.6699 -0.5776  0.3815
 3347TIP3    H231457   6.677   5.656  16.933  2.0120  1.5234  1.5698
 3348TIP3   OH231458   1.126   2.744   3.694 -0.0438 -0.1872 -0.4313
 3348TIP3    H131459   1.103   2.807   3.625  0.0126 -1.3341 -1.5238
 3348TIP3    H231460   1.133   2.797   3.773 -2.3349  0.8673 -0.8395
 3349TIP3   OH231461   5.654   6.136  11.738  0.2365  0.3948 -0.3287
 3349TIP3    H131462   5.685   6.216  11.778 -0.6889  0.2583  0.7044
 3349TIP3    H231463   5.560   6.135  11.755 -0.5756  1.1441 -3.9271
 3350TIP3   OH231464   2.041   3.557  13.085  0.1827  0.8742  0.0848
 3350TIP3    H131465   2.044   3.583  12.993 -0.3612  2.4494  0.4872
 3350TIP3    H231466   2.133   3.551  13.111  0.3309  1.2496 -0.3425
 3351TIP3   OH231467   3.570   2.887  17.264 -0.4777  0.1325 -0.1520
 3351TIP3    H131468   3.611   2.964  17.303  1.5193 -1.1484  0.4681
 3351TIP3    H231469   3.575   2.820  17.333 -0.9903 -0.9115 -1.1033
 3352TIP3   OH231470   5.443   4.684   0.437 -0.0428 -0.1233  0.6409
 3352TIP3    H131471   5.482   4.703   0.523 -0.6405 -0.0956  0.9118
 3352TIP3    H231472   5.358   4.647   0.458  1.3215 -3.9115  0.1786
 3353TIP3   OH231473   5.448   3.309  12.983 -0.1670  0.4030  0.3489
 3353TIP3    H131474   5.525   3.289  13.036 -0.2799  2.0725  1.2116
 3353TIP3    H231475   5.448   3.242  12.915  1.5858 -0.1243  0.8040
 3354TIP3   OH231476   5.283   3.650   2.829 -0.0896  0.3196  0.4656
 3354TIP3    H131477   5.255   3.618   2.915  0.3767 -0.2460  0.4204
 3354TIP3    H231478   5.377   3.666   2.840 -0.1784  0.9950  0.2769
 3355TIP3   OH231479   4.119   1.011  11.976  0.3295 -0.4351 -0.2446
 3355TIP3    H131480   4.193   0.985  12.031  0.5991 -1.1246 -0.9135
 3355TIP3    H231481   4.060   1.057  12.035  1.3288  0.2049  0.2815
 3356TIP3   OH231482   0.594   1.278  13.171  0.4106 -0.3644  0.8261
 3356TIP3    H131483   0.563   1.227  13.247  2.9522 -1.0980  1.4539
 3356TIP3    H231484   0.518   1.330  13.145 -0.8562 -0.8678  3.2212
 3357TIP3   OH231485   2.620   2.249   5.494  0.0018  0.2614  0.2695
 3357TIP3    H131486   2.539   2.206   5.521  1.1085 -1.3611  1.2137
 3357TIP3    H231487   2.633   2.221   5.403  0.9041 -1.8408  0.9892
 3358TIP3   OH231488   1.405   3.883  10.652 -0.4605 -0.2640 -0.2551
 3358TIP3    H131489   1.424   3.798  10.611 -1.2898 -0.1589 -0.8928
 3358TIP3    H231490   1.407   3.946  10.580  0.4065  0.3095  0.2585
 3359TIP3   OH231491   2.534   3.356   1.731 -0.5617 -0.4319  0.2818
 3359TIP3    H131492   2.448   3.323   1.703 -1.5881  1.1463  1.3823
 3359TIP3    H231493   2.546   3.437   1.680 -0.3820  0.0885  1.1361
 3360TIP3   OH231494   6.496   2.199   5.312  0.3642 -0.0753  0.4410
 3360TIP3    H131495   6.494   2.110   5.277 -1.9923  0.2008 -0.3346
 3360TIP3    H231496   6.502   2.187   5.407  1.9332 -0.9748  0.2486
 3361TIP3   OH231497   0.144   1.249   3.622  0.2318 -0.2330 -0.7012
 3361TIP3    H131498   0.063   1.202   3.601  0.5466 -0.1741 -2.1559
 3361TIP3    H231499   0.205   1.224   3.552  1.0212  0.8229 -0.4101
 3362TIP3   OH231500   3.610   5.168  14.488  0.3547  0.0457  0.0660
 3362TIP3    H131501   3.536   5.168  14.548  0.2806  0.6976 -0.0205
 3362TIP3    H231502   3.640   5.077  14.486 -0.6996 -0.3038 -0.2145
 3363TIP3   OH231503   4.437   0.214  14.021 -0.0451 -0.1484 -0.0626
 3363TIP3    H131504   4.375   0.148  14.052  1.9574 -0.7352  3.3441
 3363TIP3    H231505   4.395   0.298  14.040 -0.6424 -0.5118  0.2550
 3364TIP3   OH231506   0.405   0.357  16.713 -0.4564 -0.0991 -0.1616
 3364TIP3    H131507   0.398   0.448  16.740  0.5048 -0.1887  0.4299
 3364TIP3    H231508   0.349   0.350  16.635 -1.5043  0.6890  0.5090
 3365TIP3   OH231509   2.748   5.926  11.812 -0.1911  0.2899  0.2303
 3365TIP3    H131510   2.785   5.862  11.873  1.4475 -0.5237 -1.5104
 3365TIP3    H231511   2.756   5.885  11.726  2.0129  3.1547 -1.1271
 3366TIP3   OH231512   1.182   4.963   2.009 -0.4981 -0.3592  0.1924
 3366TIP3    H131513   1.161   5.035   2.069 -0.8062 -0.6729  0.4634
 3366TIP3    H231514   1.204   5.007   1.927 -1.3033  0.0187  0.1710
 3367TIP3   OH231515   0.726   3.107  12.499  0.2304 -0.0090  0.6907
 3367TIP3    H131516   0.757   3.019  12.479 -1.0812 -0.2970 -0.2146
 3367TIP3    H231517   0.679   3.098  12.582 -0.6439 -0.3548  0.1672
 3368TIP3   OH231518   1.046   0.612   5.534 -0.1435 -0.1009  0.1266
 3368TIP3    H131519   1.023   0.602   5.626 -0.7099  0.0245 -0.0019
 3368TIP3    H231520   0.964   0.603   5.486 -0.0936  1.3020 -0.2624
 3369TIP3   OH231521   4.388   0.697  17.080 -0.1530 -0.5627 -0.2747
 3369TIP3    H131522   4.304   0.706  17.125 -0.1172  1.4196 -0.5317
 3369TIP3    H231523   4.412   0.605  17.092 -0.7038 -0.4111  2.7913
 3370TIP3   OH231524   0.559   2.491  16.785 -0.5958 -0.0258 -0.0705
 3370TIP3    H131525   0.618   2.428  16.827 -0.5570  1.3618  2.1201
 3370TIP3    H231526   0.510   2.530  16.858 -0.5419  2.5435 -1.2905
 3371TIP3   OH231527   3.287   2.998  14.076 -0.6090  0.0218 -0.2994
 3371TIP3    H131528   3.238   3.044  14.007 -2.4685  0.8410  1.4553
 3371TIP3    H231529   3.220   2.974  14.140  0.7175 -2.7634  0.1625
 3372TIP3   OH231530   3.059   0.338  14.276  0.3226  0.3923  0.4072
 3372TIP3    H131531   2.969   0.306  14.275  0.6976 -0.6968 -0.6119
 3372TIP3    H231532   3.064   0.393  14.354 -1.3791  0.9473  0.1707
 3373TIP3   OH231533   1.276   5.611  12.302 -0.4246 -0.2477 -0.1087
 3373TIP3    H131534   1.358   5.564  12.285 -0.4758 -0.7167  0.8913
 3373TIP3    H231535   1.247   5.639  12.215 -0.3057 -1.9309 -0.7388
 3374TIP3   OH231536   0.996   6.516   0.419  0.2254  0.0836  0.6180
 3374TIP3    H131537   1.005   6.522   0.324 -2.8529  0.6274  0.2642
 3374TIP3    H231538   1.009   6.424   0.439  1.6829  0.0879 -0.1929
 3375TIP3   OH231539   1.827   3.400  11.832  0.2283 -0.1834  0.1182
 3375TIP3    H131540   1.901   3.439  11.786 -1.1522 -1.1551 -3.1629
 3375TIP3    H231541   1.768   3.474  11.851  1.1816  0.3365  1.2025
 3376TIP3   OH231542   3.832   0.702  14.778 -0.0001  0.6289  0.2844
 3376TIP3    H131543   3.848   0.647  14.702 -0.9361  3.0345 -1.8108
 3376TIP3    H231544   3.799   0.642  14.845 -0.3839 -1.4106 -1.6282
 3377TIP3   OH231545   3.512   2.629  11.749 -0.1119  0.7657 -0.4686
 3377TIP3    H131546   3.487   2.570  11.820  1.4081  0.9221  0.2416
 3377TIP3    H231547   3.471   2.713  11.772 -0.7623  0.4606 -0.5122
 3378TIP3   OH231548   3.285   5.173  14.439  0.7485  0.3897 -0.1533
 3378TIP3    H131549   3.229   5.182  14.516  2.2187  0.7373  0.9191
 3378TIP3    H231550   3.270   5.083  14.409 -1.4015  0.8960 -0.7539
 3379TIP3   OH231551   4.942   0.708  17.173 -0.0448 -0.1689  0.1694
 3379TIP3    H131552   4.934   0.713  17.268 -1.3474  1.3364  0.0300
 3379TIP3    H231553   4.986   0.790  17.148  0.5243 -0.6670 -0.5139
 3380TIP3   OH231554   5.141   5.128   1.546  0.0703 -0.6421  0.6994
 3380TIP3    H131555   5.159   5.221   1.556 -1.3644 -0.3038  0.3525
 3380TIP3    H231556   5.174   5.107   1.459 -2.3292  0.3015 -0.5282
 3381TIP3   OH231557   0.647   4.776  13.831 -0.6638 -0.2783 -0.3586
 3381TIP3    H131558   0.558   4.780  13.864 -0.2201 -0.6102  0.9544
 3381TIP3    H231559   0.646   4.708  13.764 -1.0789 -1.3901  0.7466
 3382TIP3   OH231560   5.751   4.768   1.343  0.0510  0.1709  0.3668
 3382TIP3    H131561   5.668   4.725   1.325 -0.2168  1.0115 -0.4962
 3382TIP3    H231562   5.775   4.739   1.431 -0.3809 -1.2841  0.0256
 3383TIP3   OH231563   0.958   1.798   2.757  0.2507  0.1121 -0.4432
 3383TIP3    H131564   0.949   1.842   2.672 -0.3701 -0.0708 -0.4742
 3383TIP3    H231565   0.880   1.824   2.806  1.5883  1.9122  0.8718
 3384TIP3   OH231566   5.757   4.492   1.826  0.1099  0.5646 -0.3188
 3384TIP3    H131567   5.765   4.532   1.913 -0.0706  1.0959 -0.5457
 3384TIP3    H231568   5.664   4.468   1.820  0.3993 -0.8033  0.2087
 3385TIP3   OH231569   5.061   2.959   0.283 -0.1170 -0.1722  0.3705
 3385TIP3    H131570   5.092   2.969   0.372 -2.5784 -1.8393  1.5370
 3385TIP3    H231571   5.037   2.866   0.276 -1.9073  0.3342 -1.3202
 3386TIP3   OH231572   1.425   4.550   0.374 -0.4449 -0.0258 -0.1709
 3386TIP3    H131573   1.339   4.523   0.343 -0.0012  2.0072 -3.7743
 3386TIP3    H231574   1.480   4.472   0.364 -1.7892 -1.3924  2.3436
 3387TIP3   OH231575   0.714   2.183   1.982  0.2980 -0.4103  0.3252
 3387TIP3    H131576   0.664   2.245   2.034 -1.5186 -1.3491 -0.2049
 3387TIP3    H231577   0.696   2.098   2.022  2.0342 -0.7274  0.5115
 3388TIP3   OH231578   5.966   5.900  12.439  0.3048 -0.1164  0.1151
 3388TIP3    H131579   6.002   5.812  12.442 -1.5711 -0.9486 -0.5482
 3388TIP3    H231580   5.967   5.924  12.346 -1.8983 -0.6740 -0.1108
 3389TIP3   OH231581   6.581   3.071   4.067  0.0899 -0.4586 -0.2062
 3389TIP3    H131582   6.569   3.079   3.973  3.9941 -0.4889 -0.8783
 3389TIP3    H231583   6.567   3.160   4.101  1.0764  0.1000 -1.2129
 3390TIP3   OH231584   2.098   1.310  15.091 -0.6496 -0.0479 -0.0431
 3390TIP3    H131585   2.039   1.333  15.163  0.1478  0.5300  0.4405
 3390TIP3    H231586   2.080   1.376  15.024 -0.8066 -0.0926 -0.0455
 3391TIP3   OH231587   6.545   1.716   2.571 -0.5064  0.2227 -0.0126
 3391TIP3    H131588   6.555   1.621   2.561 -0.6538  0.3889 -2.1790
 3391TIP3    H231589   6.486   1.726   2.647  1.5111 -1.2775  1.8881
 3392TIP3   OH231590   5.215   3.175   5.022  0.0534 -0.0731  0.0090
 3392TIP3    H131591   5.151   3.184   5.093  0.5641  3.2540  0.1900
 3392TIP3    H231592   5.224   3.080   5.010 -2.0651 -0.7067  2.5212
 3393TIP3   OH231593   4.006   3.282   5.866  0.1587  0.8372 -0.0323
 3393TIP3    H131594   4.095   3.262   5.894 -0.2140 -2.2673 -0.7270
 3393TIP3    H231595   3.960   3.304   5.947  1.1738  0.9038  0.5434
 3394TIP3   OH231596   2.780   3.409  11.926 -0.3536 -0.2732 -0.0839
 3394TIP3    H131597   2.823   3.341  11.978 -1.1341 -0.3682  0.4498
 3394TIP3    H231598   2.753   3.475  11.990  1.0949  0.9508 -0.6775
 3395TIP3   OH231599   2.829   0.585  15.973 -0.4591 -0.1619 -0.2261
 3395TIP3    H131600   2.895   0.654  15.967 -0.8146  0.3294  1.2614
 3395TIP3    H231601   2.880   0.503  15.969  0.1173  0.1971 -0.3559
 3396TIP3   OH231602   4.950   3.269  15.625 -0.7736 -0.5930  0.5800
 3396TIP3    H131603   4.951   3.173  15.633  0.8275 -0.6102  0.4698
 3396TIP3    H231604   5.006   3.299  15.696  1.8877  0.0116 -1.6022
 3397TIP3   OH231605   5.709   3.706  15.078 -0.5819 -0.1932 -0.3122
 3397TIP3    H131606   5.698   3.775  15.012 -0.0966  0.3774  0.1937
 3397TIP3    H231607   5.774   3.647  15.041  0.6024  0.7811  0.1614
 3398TIP3   OH231608   4.101   2.989   0.674  0.3753  0.4731  0.4963
 3398TIP3    H131609   4.177   3.046   0.678  1.1296 -0.5462  1.0485
 3398TIP3    H231610   4.078   2.972   0.766 -0.1408  0.2850  0.3404
 3399TIP3   OH231611   6.422   1.542  12.341 -0.3959  0.1190 -0.6765
 3399TIP3    H131612   6.493   1.493  12.301 -0.6997 -0.1337 -0.9154
 3399TIP3    H231613   6.391   1.601  12.273  0.5522  1.2984 -0.1156
 3400TIP3   OH231614   6.709   3.886  15.775 -0.7385  0.1250 -0.2494
 3400TIP3    H131615   6.651   3.896  15.700 -3.0560  0.3731  1.4725
 3400TIP3    H231616   6.653   3.853  15.845  1.3188 -0.0928  1.4041
 3401TIP3   OH231617   0.544   3.405   2.228  0.2578 -0.2344  0.8012
 3401TIP3    H131618   0.558   3.465   2.154  0.8910  0.1501  1.2133
 3401TIP3    H231619   0.453   3.418   2.253 -0.1864 -0.9442 -0.3980
 3402TIP3   OH231620   6.206   4.846   6.120 -0.2770 -0.3373  0.7249
 3402TIP3    H131621   6.163   4.923   6.159  1.6878  1.5685 -0.6213
 3402TIP3    H231622   6.159   4.832   6.038 -1.5033 -1.4990  1.5814
 3403TIP3   OH231623   1.366   2.684   4.849  0.5444  0.1032  0.0545
 3403TIP3    H131624   1.432   2.706   4.914 -0.1041  0.2095  0.6930
 3403TIP3    H231625   1.295   2.644   4.899  0.3453 -0.5068 -0.6857
 3404TIP3   OH231626   2.804   0.207   3.036 -0.4005  0.1454 -0.1821
 3404TIP3    H131627   2.823   0.265   3.109  1.1167 -0.5651  0.0409
 3404TIP3    H231628   2.775   0.125   3.076 -0.4469  0.0550 -0.3973
 3405TIP3   OH231629   6.146   2.451   1.363 -0.7401  0.2579 -0.0239
 3405TIP3    H131630   6.238   2.471   1.347 -0.7613  0.8267  0.5398
 3405TIP3    H231631   6.144   2.356   1.374  0.0517  0.3873  1.5619
 3406TIP3   OH231632   5.387   3.877   3.455 -0.1573  0.4841  0.3803
 3406TIP3    H131633   5.475   3.872   3.493 -0.5689 -0.7304  1.2356
 3406TIP3    H231634   5.329   3.882   3.531 -1.1061 -3.4025  0.0821
 3407TIP3   OH231635   0.688   5.285   1.232  0.1659  0.1782  0.2227
 3407TIP3    H131636   0.741   5.205   1.229  1.6430  1.1308 -0.1015
 3407TIP3    H231637   0.635   5.281   1.153 -0.4269 -0.8877  0.6485
 3408TIP3   OH231638   5.467   3.249   5.719  0.2336 -0.5372 -0.5941
 3408TIP3    H131639   5.409   3.325   5.708  0.0583 -0.6692 -0.5797
 3408TIP3    H231640   5.430   3.182   5.662 -1.1786 -1.5178  1.3652
 3409TIP3   OH231641   6.342   5.426   1.103 -0.2030 -0.0661 -0.3004
 3409TIP3    H131642   6.300   5.457   1.183  0.2202  2.2388 -0.8920
 3409TIP3    H231643   6.293   5.470   1.032  0.7617 -0.3919 -1.1924
 3410TIP3   OH231644   2.782   5.545  17.016  1.0820  0.0948 -0.3474
 3410TIP3    H131645   2.811   5.530  17.106 -2.1061  0.6156  0.9044
 3410TIP3    H231646   2.746   5.461  16.987  1.5569  0.0827 -0.9198
 3411TIP3   OH231647   2.700   6.558  11.502 -0.3356  0.6499  0.0568
 3411TIP3    H131648   2.719   6.464  11.498 -0.9208  0.5676 -2.0303
 3411TIP3    H231649   2.605   6.564  11.491 -0.4168  1.4656  1.0371
 3412TIP3   OH231650   3.603   4.691  12.774  0.0036  0.1449 -0.1233
 3412TIP3    H131651   3.694   4.716  12.788 -0.1751  0.7519  0.0181
 3412TIP3    H231652   3.570   4.756  12.712 -0.6324  0.6161  0.6903
 3413TIP3   OH231653   0.139   1.371   4.945 -0.3935  0.3133 -0.2559
 3413TIP3    H131654   0.212   1.351   4.887 -0.6029 -0.3366 -0.3027
 3413TIP3    H231655   0.144   1.466   4.959  0.5143  0.2582 -0.1743
 3414TIP3   OH231656   2.168   6.476   1.176 -0.2390  0.2086  0.2666
 3414TIP3    H131657   2.185   6.510   1.088 -0.2786  2.0840  0.9470
 3414TIP3    H231658   2.091   6.421   1.165 -1.1288  1.5589 -0.6632
 3415TIP3   OH231659   6.144   2.826   2.371 -0.0152  0.2474 -0.4440
 3415TIP3    H131660   6.206   2.808   2.441 -1.1720  0.5584  0.6824
 3415TIP3    H231661   6.090   2.747   2.365  0.9777 -0.3553 -1.9819
 3416TIP3   OH231662   0.985   0.278   0.938  0.6331  0.1066  0.1265
 3416TIP3    H131663   1.073   0.239   0.936  0.7167  0.0639  2.3244
 3416TIP3    H231664   0.926   0.202   0.938  0.7199  0.0053  1.6327
 3417TIP3   OH231665   0.908   2.986  16.537 -0.5168  0.0932  0.5842
 3417TIP3    H131666   0.915   3.081  16.542 -0.0856  0.0474  0.9202
 3417TIP3    H231667   0.886   2.959  16.626 -0.1589 -0.1572  0.5969
 3418TIP3   OH231668   6.129   5.448   6.565 -0.2311  0.2624 -0.2302
 3418TIP3    H131669   6.071   5.509   6.611 -0.9410  1.5926 -2.6507
 3418TIP3    H231670   6.092   5.362   6.583 -0.1772  0.6561  1.9778
 3419TIP3   OH231671   4.053   1.985  13.115  0.2542  0.3438 -0.5472
 3419TIP3    H131672   4.056   2.063  13.060 -2.2796  1.0031  0.1282
 3419TIP3    H231673   3.961   1.977  13.140  0.8814 -1.4189  1.4612
 3420TIP3   OH231674   3.337   5.476  11.714  0.0632  0.7327 -0.7730
 3420TIP3    H131675   3.376   5.481  11.627  1.2231  0.9061 -0.2614
 3420TIP3    H231676   3.350   5.385  11.740  2.1481  1.2673  0.2713
 3421TIP3   OH231677   1.907   0.825  16.128  0.0278  0.5072 -0.2935
 3421TIP3    H131678   2.002   0.811  16.130  0.0258  0.4791  2.3709
 3421TIP3    H231679   1.886   0.860  16.215 -2.6912 -1.3311 -0.1089
 3422TIP3   OH231680   2.824   2.149   4.522 -0.4333 -0.0124  0.2502
 3422TIP3    H131681   2.782   2.217   4.469  2.6442  1.2751 -0.7797
 3422TIP3    H231682   2.818   2.181   4.612  0.1196  1.1383 -0.1149
 3423TIP3   OH231683   1.819   0.396  13.292 -0.5200  0.4542 -0.0567
 3423TIP3    H131684   1.817   0.400  13.197  1.9460  0.9767 -0.1597
 3423TIP3    H231685   1.775   0.475  13.321 -0.7536  0.5951 -0.7895
 3424TIP3   OH231686   2.768   2.471  16.664 -0.2375 -0.4699  0.1964
 3424TIP3    H131687   2.703   2.541  16.674 -0.6375 -1.0353  1.8906
 3424TIP3    H231688   2.851   2.512  16.688  0.0124  0.1295 -1.5293
 3425TIP3   OH231689   6.237   1.060  12.795  0.3360  0.1348 -0.0890
 3425TIP3    H131690   6.231   1.155  12.780  0.2639  0.0071 -0.8730
 3425TIP3    H231691   6.294   1.052  12.871 -0.0428  0.8312  0.2864
 3426TIP3   OH231692   5.158   2.734  12.133 -0.4740 -0.2200  0.2459
 3426TIP3    H131693   5.112   2.672  12.189  0.4508 -1.8172 -0.6900
 3426TIP3    H231694   5.235   2.760  12.183 -0.5791 -0.2624  0.4278
 3427TIP3   OH231695   3.108   5.641  14.868  0.1070  0.2906 -0.0764
 3427TIP3    H131696   3.043   5.572  14.882  1.4445 -0.8276  0.8709
 3427TIP3    H231697   3.067   5.720  14.904 -0.5358 -0.4918  0.9716
 3428TIP3   OH231698   1.921   1.613   2.120  0.4062 -0.3805 -0.3211
 3428TIP3    H131699   1.951   1.599   2.210 -1.7733 -0.3016  0.4787
 3428TIP3    H231700   1.989   1.573   2.065  2.6334  1.0289  1.2409
 3429TIP3   OH231701   6.112   2.174  15.233 -0.2052  0.2771 -0.3833
 3429TIP3    H131702   6.093   2.227  15.156  1.8329 -1.3178 -2.1149
 3429TIP3    H231703   6.158   2.233  15.292  0.7147  0.8551 -1.6388
 3430TIP3   OH231704   1.535   0.049  14.423 -0.6064 -0.6106  0.0969
 3430TIP3    H131705   1.453   0.089  14.392 -0.3508  0.3363  0.6013
 3430TIP3    H231706   1.523   0.042  14.518  0.4298  0.8349  0.3579
 3431TIP3   OH231707   5.293   0.886  17.020 -0.2152  0.1598 -0.1041
 3431TIP3    H131708   5.365   0.890  17.082  0.6094 -2.8006 -0.7124
 3431TIP3    H231709   5.327   0.926  16.940  0.4804 -0.4820 -0.1372
 3432TIP3   OH231710   5.104   1.386  13.271 -0.7791  0.4719 -0.4013
 3432TIP3    H131711   5.140   1.347  13.192  0.5414 -0.8990  0.8220
 3432TIP3    H231712   5.011   1.362  13.269 -0.3258 -1.4400 -0.4788
 3433TIP3   OH231713   3.167   2.867  10.706  0.1302  0.2774  0.1161
 3433TIP3    H131714   3.262   2.867  10.694  0.0340 -0.5260 -0.7182
 3433TIP3    H231715   3.151   2.940  10.765  1.1136  1.4753 -1.0311
 3434TIP3   OH231716   5.458   0.909  13.347 -0.8415 -0.1183  0.3338
 3434TIP3    H131717   5.528   0.975  13.340 -1.1383 -0.0067 -3.0625
 3434TIP3    H231718   5.378   0.956  13.324 -1.1726 -1.4278 -1.3529
 3435TIP3   OH231719   3.709   4.310   2.753 -0.0145  0.0598 -0.5659
 3435TIP3    H131720   3.679   4.325   2.843  0.0664 -0.2107 -0.4927
 3435TIP3    H231721   3.666   4.378   2.702 -0.4950 -0.1189 -0.4059
 3436TIP3   OH231722   4.305   2.181  15.862  0.0010  0.3056 -0.5931
 3436TIP3    H131723   4.383   2.128  15.842 -0.8145 -1.5072  0.6727
 3436TIP3    H231724   4.300   2.179  15.958 -1.0782  1.2069 -0.6164
 3437TIP3   OH231725   0.554   1.908  13.341  0.0455 -0.1650 -0.6577
 3437TIP3    H131726   0.467   1.949  13.345  0.0408 -0.2680  3.0368
 3437TIP3    H231727   0.615   1.982  13.333 -0.2360  0.1272 -0.1146
 3438TIP3   OH231728   1.639   2.087   2.654  0.2646 -0.4298 -0.8548
 3438TIP3    H131729   1.646   2.181   2.668 -0.1869 -0.4889 -0.1520
 3438TIP3    H231730   1.641   2.076   2.559  0.6204  0.2597 -0.9330
 3439TIP3   OH231731   3.317   3.877   0.346  0.4425 -0.1208 -0.1393
 3439TIP3    H131732   3.294   3.891   0.438 -1.9074 -0.7114 -0.5677
 3439TIP3    H231733   3.306   3.783   0.333 -1.2887  0.2121 -1.4646
 3440TIP3   OH231734   2.755   2.924  15.125  0.6285  0.1249 -0.1236
 3440TIP3    H131735   2.675   2.939  15.075  0.6016 -0.3915 -0.2410
 3440TIP3    H231736   2.784   2.836  15.099  1.1137  0.2194  0.0798
 3441TIP3   OH231737   2.658   3.563   6.285 -0.4394 -0.7310 -0.1288
 3441TIP3    H131738   2.708   3.634   6.245 -1.4731  0.6520  0.8865
 3441TIP3    H231739   2.719   3.524   6.348 -0.3394  0.4135  0.5335
 3442TIP3   OH231740   1.475   0.894   0.148 -0.4397 -0.8333 -0.3365
 3442TIP3    H131741   1.502   0.973   0.100 -1.7107  1.4543  2.3946
 3442TIP3    H231742   1.406   0.855   0.095 -0.8185  0.7686 -1.0694
 3443TIP3   OH231743   5.578   5.243  14.506 -0.6408 -1.2260  0.2242
 3443TIP3    H131744   5.499   5.245  14.453  0.2680  0.6494 -1.1410
 3443TIP3    H231745   5.630   5.318  14.476  0.7120 -1.1390  2.5481
 3444TIP3   OH231746   1.168   0.957   3.938  0.0735 -0.2358  0.0164
 3444TIP3    H131747   1.145   0.875   3.893 -1.6626  1.3450 -2.2025
 3444TIP3    H231748   1.231   1.000   3.880 -1.2434  1.2823 -0.3609
 3445TIP3   OH231749   3.414   5.908  14.423  0.1924 -0.0476 -0.8684
 3445TIP3    H131750   3.368   5.838  14.376 -0.5240  0.3088 -0.7083
 3445TIP3    H231751   3.423   5.978  14.358  0.6133 -0.1487 -0.9278
 3446TIP3   OH231752   3.954   3.538  11.395 -0.0569  0.1357 -1.2129
 3446TIP3    H131753   4.038   3.515  11.435  0.1356  1.0119 -1.1005
 3446TIP3    H231754   3.888   3.508  11.457  0.2427  1.6044 -0.1442
 3447TIP3   OH231755   3.941   1.241   4.924 -0.6645 -0.1999 -0.5457
 3447TIP3    H131756   3.926   1.174   4.858 -1.9825 -1.3291  0.8315
 3447TIP3    H231757   4.024   1.216   4.965  0.2672  0.6235 -1.8450
 3448TIP3   OH231758   5.314   5.584  16.565  0.3877  0.4646  0.6843
 3448TIP3    H131759   5.370   5.512  16.536  2.2724  2.1415 -0.1047
 3448TIP3    H231760   5.253   5.544  16.626 -0.3034 -2.2681 -1.5758
 3449TIP3   OH231761   3.339   0.690  11.326 -0.1254  0.2750  0.1062
 3449TIP3    H131762   3.354   0.702  11.233 -1.1848  0.6602 -0.0259
 3449TIP3    H231763   3.368   0.600  11.344 -2.1461 -0.6961 -1.1150
 3450TIP3   OH231764   4.539   3.184   4.548 -0.0971  0.2262 -0.0714
 3450TIP3    H131765   4.476   3.137   4.493 -2.0637  1.2995  1.1753
 3450TIP3    H231766   4.592   3.234   4.486  0.8260 -2.0882 -1.2853
 3451TIP3   OH231767   1.534   0.742  12.060  0.1062 -0.1330  0.5327
 3451TIP3    H131768   1.514   0.745  12.154 -1.4260 -1.0290  0.2792
 3451TIP3    H231769   1.541   0.833  12.034 -1.9494  0.2249  1.0742
 3452TIP3   OH231770   5.802   4.144   0.795 -0.2049  0.9334  0.4968
 3452TIP3    H131771   5.875   4.129   0.856  1.6894 -0.1732 -1.8887
 3452TIP3    H231772   5.754   4.061   0.796  0.0916  0.7545  0.1727
 3453TIP3   OH231773   2.133   4.668   2.738 -0.3220 -0.1173 -0.0074
 3453TIP3    H131774   2.081   4.654   2.817 -0.9024  1.3603 -0.0821
 3453TIP3    H231775   2.156   4.580   2.707  0.0187 -0.7139  1.8493
 3454TIP3   OH231776   3.770   6.273   2.564  0.6687  0.2052 -0.1376
 3454TIP3    H131777   3.741   6.229   2.484  0.8783  1.3499 -0.8761
 3454TIP3    H231778   3.804   6.203   2.619  0.5773 -0.6112 -1.0842
 3455TIP3   OH231779   1.941   4.254  10.977  0.1236  0.7368 -0.0703
 3455TIP3    H131780   1.942   4.326  10.913  0.6670  0.0239 -0.8835
 3455TIP3    H231781   1.849   4.239  10.994 -0.0831  0.2960 -1.4394
 3456TIP3   OH231782   6.717   6.721   3.733  0.8213 -0.6349  0.3797
 3456TIP3    H131783   6.779   6.794   3.723 -0.0090 -0.0546 -0.6779
 3456TIP3    H231784   6.748   6.674   3.811  2.4404 -0.2151  0.0256
 3457TIP3   OH231785   4.521   5.103  16.898  0.4038  0.0139  0.6552
 3457TIP3    H131786   4.481   5.130  16.981 -0.8307 -0.5997  0.2798
 3457TIP3    H231787   4.609   5.076  16.922  0.3587  0.6723  1.6337
 3458TIP3   OH231788   5.978   3.385   3.398 -0.0455 -0.3107  0.3482
 3458TIP3    H131789   5.947   3.367   3.488 -0.7864  0.7104  0.3192
 3458TIP3    H231790   5.937   3.317   3.345  1.8424 -2.0411  1.0007
 3459TIP3   OH231791   2.944   4.179  12.223  0.2543 -0.0417  0.0472
 3459TIP3    H131792   2.904   4.168  12.137 -2.5357  1.5692  0.9749
 3459TIP3    H231793   3.015   4.241  12.209  1.2855 -1.4627 -1.3780
 3460TIP3   OH231794   4.999   6.387   6.787  0.1614  0.7230 -0.1970
 3460TIP3    H131795   5.067   6.443   6.751 -0.3282  2.3222  1.2155
 3460TIP3    H231796   4.983   6.423   6.874 -0.8313 -1.0826  0.3997
 3461TIP3   OH231797   4.564   1.485   1.236  0.1202  0.0189  0.0643
 3461TIP3    H131798   4.624   1.436   1.291  1.3637  0.6400 -0.6918
 3461TIP3    H231799   4.562   1.437   1.153 -0.1768  0.1777 -0.0238
 3462TIP3   OH231800   5.105   1.882  17.022 -0.2059 -0.0255  0.0038
 3462TIP3    H131801   5.140   1.971  17.017 -0.1337  0.0273  1.2770
 3462TIP3    H231802   5.148   1.843  17.098 -0.0223 -1.2555 -0.7002
 3463TIP3   OH231803   3.788   6.361   0.447 -0.2807 -0.2870 -0.1098
 3463TIP3    H131804   3.727   6.302   0.490  0.8870 -0.1176  1.9522
 3463TIP3    H231805   3.748   6.448   0.456  0.4068 -0.1010  1.7162
 3464TIP3   OH231806   2.610   5.255  11.410  0.4045 -0.6831 -0.1278
 3464TIP3    H131807   2.563   5.209  11.479  0.5129 -2.1228 -0.9817
 3464TIP3    H231808   2.679   5.303  11.456 -0.3903 -0.4822  0.8876
 3465TIP3   OH231809   0.473   2.797  16.439 -0.1037  0.4126  0.0267
 3465TIP3    H131810   0.504   2.716  16.479 -1.8657 -0.0261  0.6371
 3465TIP3    H231811   0.488   2.864  16.505 -1.3507  0.0122  0.7581
 3466TIP3   OH231812   6.620   5.883   4.366  0.0643 -0.0992  0.0700
 3466TIP3    H131813   6.706   5.920   4.343  1.0680 -2.0322  0.5100
 3466TIP3    H231814   6.630   5.854   4.456 -0.9788 -0.5620  0.0471
 3467TIP3   OH231815   1.663   0.081  14.174  0.1017  0.0148  0.8464
 3467TIP3    H131816   1.721   0.156  14.190  0.1448 -0.1640  1.5451
 3467TIP3    H231817   1.620   0.066  14.257 -1.0377  0.2058  0.3063
 3468TIP3   OH231818   5.066   0.242  12.826 -0.4011 -0.3662 -0.5691
 3468TIP3    H131819   5.108   0.323  12.856 -1.1088  0.1742 -0.9892
 3468TIP3    H231820   5.018   0.268  12.747 -0.7065 -1.1846 -0.6641
 3469TIP3   OH231821   5.507   3.379  17.070  0.3521 -0.1217 -0.1181
 3469TIP3    H131822   5.545   3.321  17.004  0.5767 -0.0475 -0.0543
 3469TIP3    H231823   5.464   3.320  17.132  2.0739 -0.3468  0.9128
 3470TIP3   OH231824   0.218   0.648  13.863 -0.3959  0.0257  0.2181
 3470TIP3    H131825   0.313   0.643  13.874 -0.4100  0.1900  0.4435
 3470TIP3    H231826   0.187   0.691  13.943 -0.7834 -1.0767  0.6825
 3471TIP3   OH231827   2.292   1.819   5.080  0.1223  0.0684 -0.9173
 3471TIP3    H131828   2.337   1.824   4.995 -1.0453  0.8592 -1.5063
 3471TIP3    H231829   2.248   1.903   5.089  0.3213  0.0416  0.5505
 3472TIP3   OH231830   1.056   4.520   3.773  0.1927  0.3138  0.7941
 3472TIP3    H131831   1.064   4.564   3.857  2.0712  0.7330  0.4460
 3472TIP3    H231832   1.084   4.585   3.709 -1.5466  0.1142 -0.2259
 3473TIP3   OH231833   1.299   1.533   1.781 -0.1505 -0.0265 -0.3150
 3473TIP3    H131834   1.354   1.600   1.742 -1.4469 -0.0358 -2.3038
 3473TIP3    H231835   1.213   1.574   1.789 -0.0094 -0.1219  2.4133
 3474TIP3   OH231836   1.051   0.376  10.755  0.2007 -0.2716 -0.4956
 3474TIP3    H131837   1.048   0.281  10.740  0.4961 -0.2546 -0.6941
 3474TIP3    H231838   1.109   0.409  10.685  0.8769 -0.0680  0.1457
 3475TIP3   OH231839   5.825   1.851  16.590  0.0774  0.2974 -0.1766
 3475TIP3    H131840   5.804   1.776  16.646  0.0587  0.3337 -0.1344
 3475TIP3    H231841   5.739   1.886  16.563  0.0830  0.5290  0.1060
 3476TIP3   OH231842   6.195   1.923   3.368  0.3835  0.9618 -0.0957
 3476TIP3    H131843   6.251   1.862   3.320 -1.7107 -1.0694 -0.1222
 3476TIP3    H231844   6.240   2.008   3.361  3.2390 -0.4497 -0.3638
 3477TIP3   OH231845   6.485   3.499   2.915  0.1851  0.0033  0.4589
 3477TIP3    H131846   6.488   3.501   2.819  1.7065  0.1000  0.4935
 3477TIP3    H231847   6.394   3.478   2.935  0.4606 -3.4662 -1.0919
 3478TIP3   OH231848   0.531   4.751   0.206 -0.7278 -0.5152 -0.1108
 3478TIP3    H131849   0.625   4.752   0.185 -0.9953 -0.6071 -1.3921
 3478TIP3    H231850   0.487   4.750   0.120 -1.9331  2.2791  0.3602
 3479TIP3   OH231851   5.567   1.493  13.523  0.1654  0.0944 -0.1270
 3479TIP3    H131852   5.616   1.574  13.509  0.8757 -0.5797 -1.8087
 3479TIP3    H231853   5.633   1.430  13.551  0.1946 -0.6668 -1.8198
 3480TIP3   OH231854   6.387   4.723   4.013  0.5756  0.1228  0.4477
 3480TIP3    H131855   6.350   4.807   4.038  2.2307  1.2482 -0.6928
 3480TIP3    H231856   6.396   4.675   4.095  0.1545  1.2739  1.1826
 3481TIP3   OH231857   3.349   3.044  15.233 -0.7136 -0.3727 -0.0176
 3481TIP3    H131858   3.301   3.127  15.235  0.9566  0.6390  0.8450
 3481TIP3    H231859   3.414   3.056  15.163 -0.0044 -0.6622  0.5775
 3482TIP3   OH231860   2.196   4.415  11.053 -0.5609  0.2285 -0.1382
 3482TIP3    H131861   2.288   4.389  11.050 -0.1475  1.6777 -0.3876
 3482TIP3    H231862   2.184   4.473  10.979 -1.1414  1.7128  1.0653
 3483TIP3   OH231863   5.803   1.271   5.385  0.2007  0.0789 -0.5977
 3483TIP3    H131864   5.732   1.210   5.365 -0.1671  0.4560 -0.4696
 3483TIP3    H231865   5.843   1.236   5.465 -0.7636  0.6261  0.1556
 3484TIP3   OH231866   3.879   0.136  13.315  0.1849  0.4163  0.4459
 3484TIP3    H131867   3.938   0.144  13.389 -1.1385  0.0718  1.5935
 3484TIP3    H231868   3.931   0.161  13.239  2.1226 -1.0129  1.2247
 3485TIP3   OH231869   2.528   3.446  13.749  0.2903  0.5344 -0.1219
 3485TIP3    H131870   2.477   3.447  13.668 -0.8511 -0.6176  0.5556
 3485TIP3    H231871   2.474   3.492  13.813 -0.7984 -2.2265  1.0717
 3486TIP3   OH231872   1.178   1.004   1.088  0.3046 -0.5766 -0.6068
 3486TIP3    H131873   1.242   0.993   1.017  0.1332 -0.7879 -0.7295
 3486TIP3    H231874   1.228   0.983   1.168  0.5716 -0.0642 -0.6350
 3487TIP3   OH231875   6.150   1.028   4.999  0.1492 -0.6764 -0.0360
 3487TIP3    H131876   6.146   1.011   5.093  3.7487 -0.7998  0.2187
 3487TIP3    H231877   6.129   1.121   4.990  3.5223  0.3997  1.5015
 3488TIP3   OH231878   6.557   3.886   5.917 -0.2106  0.1610 -0.1468
 3488TIP3    H131879   6.543   3.792   5.913 -0.2719  0.0610  1.7288
 3488TIP3    H231880   6.589   3.903   6.005 -0.5850  1.9515 -0.3013
 3489TIP3   OH231881   0.378   3.416   3.387 -0.0069 -0.4501  0.0330
 3489TIP3    H131882   0.346   3.329   3.366  0.1641 -0.4465 -0.2437
 3489TIP3    H231883   0.465   3.401   3.425  1.0161 -0.2614 -2.1207
 3490TIP3   OH231884   3.117   2.407  13.546  0.0896 -0.7747 -0.2797
 3490TIP3    H131885   3.153   2.365  13.623  0.9777 -0.1770 -0.3458
 3490TIP3    H231886   3.093   2.495  13.575  0.9516 -0.3539 -0.8030
 3491TIP3   OH231887   3.321   3.665  12.629 -0.0692 -0.0622  0.0432
 3491TIP3    H131888   3.351   3.691  12.542 -0.4440  0.5344  0.0863
 3491TIP3    H231889   3.388   3.605  12.660 -0.9808 -1.9924 -1.5206
 3492TIP3   OH231890   5.283   2.134   2.405 -0.3083 -0.4965 -0.1937
 3492TIP3    H131891   5.259   2.044   2.385  0.6486 -1.1228  1.3504
 3492TIP3    H231892   5.327   2.130   2.490  0.7019  1.2871 -0.5749
 3493TIP3   OH231893   2.769   0.857   6.950 -0.6111 -0.1525  0.0923
 3493TIP3    H131894   2.698   0.893   6.897 -0.4894 -0.9774 -0.6450
 3493TIP3    H231895   2.726   0.795   7.009 -0.5326 -0.5026 -0.2158
 3494TIP3   OH231896   1.551   2.472  16.002 -0.3651 -0.2313  0.7104
 3494TIP3    H131897   1.490   2.471  15.929  1.6611 -0.2195 -1.0974
 3494TIP3    H231898   1.627   2.521  15.970 -0.2156  1.6809  3.5829
 3495TIP3   OH231899   6.233   2.702   3.798  0.2193 -0.3294 -0.0611
 3495TIP3    H131900   6.312   2.724   3.748  1.1465 -0.6732  1.2040
 3495TIP3    H231901   6.190   2.786   3.812 -0.7485 -0.3506 -2.4855
 3496TIP3   OH231902   1.677   1.302   2.208 -0.0190 -0.0857 -0.1831
 3496TIP3    H131903   1.694   1.395   2.218 -1.4551  0.2206 -0.3839
 3496TIP3    H231904   1.681   1.286   2.114 -0.6146 -0.0374 -0.2226
 3497TIP3   OH231905   0.888   0.740   2.747  0.5871  0.7379 -0.7776
 3497TIP3    H131906   0.893   0.831   2.717  2.0845  1.3752  1.2489
 3497TIP3    H231907   0.963   0.729   2.805 -1.0438 -1.0023  1.1549
 3498TIP3   OH231908   2.931   1.842  14.832  0.2928 -0.0165  0.2856
 3498TIP3    H131909   3.004   1.785  14.857 -0.0059 -0.4007  0.2866
 3498TIP3    H231910   2.853   1.797  14.863  0.0596  0.4712  0.4247
 3499TIP3   OH231911   0.163   0.951  12.219 -0.3369 -0.1226  0.0434
 3499TIP3    H131912   0.076   0.989  12.213  0.3994  1.3899 -2.0119
 3499TIP3    H231913   0.158   0.869  12.171 -0.7535 -0.3476  0.4607
 3500TIP3   OH231914   4.088   0.600   4.216  0.1057  0.0984 -0.0121
 3500TIP3    H131915   4.168   0.644   4.245 -0.8350  1.2584  0.9328
 3500TIP3    H231916   4.115   0.509   4.202  1.4688  0.3375  0.8311
 3501TIP3   OH231917   4.131   1.956  14.347 -0.5919  1.0767 -0.0393
 3501TIP3    H131918   4.139   2.017  14.273 -0.5851 -0.9275 -1.7814
 3501TIP3    H231919   4.036   1.946  14.360 -0.5930  1.6523  0.4529
 3502TIP3   OH231920   6.180   3.165  12.474  0.6781 -0.0338  0.4951
 3502TIP3    H131921   6.176   3.260  12.460 -1.0465  0.1429  1.8059
 3502TIP3    H231922   6.173   3.128  12.386 -0.9299  1.0559  0.1052
 3503TIP3   OH231923   1.468   4.806   1.894 -0.4535 -0.3366  0.0209
 3503TIP3    H131924   1.444   4.803   1.802  1.1336  0.5610 -0.4631
 3503TIP3    H231925   1.475   4.899   1.915  1.1014 -0.5104  0.4651
 3504TIP3   OH231926   4.037   4.633   0.919  0.6199 -0.5562  0.1101
 3504TIP3    H131927   4.097   4.569   0.959 -0.2633 -0.5653  1.4696
 3504TIP3    H231928   3.950   4.597   0.934 -0.0859  1.9989  2.9744
 3505TIP3   OH231929   0.885   0.735  16.217  0.1937 -0.4853  0.0013
 3505TIP3    H131930   0.897   0.643  16.240  1.8518 -0.0134  1.2243
 3505TIP3    H231931   0.967   0.777  16.244  0.5636  0.9160 -2.9136
 3506TIP3   OH231932   2.076   4.493  15.479 -0.2178  0.9304  0.0926
 3506TIP3    H131933   2.096   4.512  15.387 -2.4066  0.6272 -0.5091
 3506TIP3    H231934   2.132   4.552  15.529  2.8502 -0.5659 -1.3000
 3507TIP3   OH231935   3.418   4.354  11.457 -0.7055 -0.0850 -0.2290
 3507TIP3    H131936   3.420   4.326  11.548 -0.3652 -2.2379 -0.8219
 3507TIP3    H231937   3.335   4.399  11.447 -0.0809  1.5566  1.4711
 3508TIP3   OH231938   0.606   3.582  11.561 -0.0747 -0.6774 -0.0018
 3508TIP3    H131939   0.543   3.625  11.503  0.7406  1.1569  0.4117
 3508TIP3    H231940   0.681   3.562  11.504  0.3654  0.3255  0.1993
 3509TIP3   OH231941   0.122   5.267   5.056 -0.2993 -0.4886  0.3527
 3509TIP3    H131942   0.035   5.229   5.045 -0.4810  0.2058 -0.8860
 3509TIP3    H231943   0.109   5.341   5.116 -0.2441 -1.3632  1.4622
 3510TIP3   OH231944   1.556   5.833   2.825  0.1092  0.6192  0.2853
 3510TIP3    H131945   1.499   5.757   2.815  0.1439  0.7819 -1.5533
 3510TIP3    H231946   1.603   5.817   2.906 -2.0444  0.1519  1.5300
 3511TIP3   OH231947   6.199   1.405  14.782  0.5772  0.2292  0.5401
 3511TIP3    H131948   6.232   1.488  14.747  2.4489 -0.3762  0.7529
 3511TIP3    H231949   6.180   1.352  14.705 -0.2801  0.7180  0.4079
 3512TIP3   OH231950   0.039   2.771   1.872 -0.0287  0.3142 -0.1078
 3512TIP3    H131951   0.085   2.838   1.921 -1.8294  0.9462  0.8130
 3512TIP3    H231952  -0.054   2.784   1.893 -0.7051 -0.6737 -2.1165
 3513TIP3   OH231953   6.630   6.315  14.806 -0.3869 -0.1587  0.5513
 3513TIP3    H131954   6.703   6.253  14.799 -1.3138 -1.2984  0.7339
 3513TIP3    H231955   6.573   6.293  14.733 -1.1931 -0.1491  1.1636
 3514TIP3   OH231956   1.825   1.712  15.290 -0.0368  0.1158 -0.5666
 3514TIP3    H131957   1.774   1.631  15.300  0.6741 -0.2493  0.2072
 3514TIP3    H231958   1.858   1.709  15.200  0.4362 -0.7365 -0.3781
 3515TIP3   OH231959   2.062   1.962   5.517  0.2863  0.0927  0.1594
 3515TIP3    H131960   2.050   1.912   5.598  1.5104 -0.6949 -0.1203
 3515TIP3    H231961   2.070   2.053   5.546 -0.6931 -0.0126  0.7870
 3516TIP3   OH231962   0.211   3.287  16.666  0.9997  0.3772  0.0058
 3516TIP3    H131963   0.165   3.305  16.748  1.9969  1.1805  0.4121
 3516TIP3    H231964   0.261   3.207  16.684 -0.2703 -0.5560 -0.4697
 3517TIP3   OH231965   5.514   6.223   2.070  0.4029 -0.0277 -0.4399
 3517TIP3    H131966   5.449   6.292   2.064  0.7994  0.4179  0.2934
 3517TIP3    H231967   5.498   6.168   1.994 -2.0407 -0.9989  0.6923
 3518TIP3   OH231968   1.923   3.696   3.768 -0.0132  0.2447 -0.1834
 3518TIP3    H131969   1.894   3.631   3.704  1.1062 -0.1388 -0.3265
 3518TIP3    H231970   1.872   3.676   3.847  0.2252 -0.7357 -0.2590
 3519TIP3   OH231971   6.538   4.031  11.033  0.8836  0.4421 -0.5051
 3519TIP3    H131972   6.507   3.946  11.064  0.8500  0.1762 -1.2500
 3519TIP3    H231973   6.560   4.079  11.113 -1.8631  0.8292  0.1310
 3520TIP3   OH231974   3.989   4.695   3.135  0.1736  0.0192 -0.2294
 3520TIP3    H131975   4.078   4.666   3.113  0.8294  2.6494 -1.4706
 3520TIP3    H231976   3.943   4.695   3.051 -1.5849 -2.7838  0.6056
 3521TIP3   OH231977   1.783   6.432  12.185 -0.0463 -0.4002  0.0713
 3521TIP3    H131978   1.706   6.463  12.136 -0.7815 -0.0852  1.3793
 3521TIP3    H231979   1.811   6.508  12.235  0.0779 -0.9810  0.8984
 3522TIP3   OH231980   3.844   3.612   0.447 -0.5013  0.1458 -0.0237
 3522TIP3    H131981   3.912   3.678   0.461 -1.7890  1.1937  1.7076
 3522TIP3    H231982   3.808   3.633   0.361  0.7021  0.1416 -0.5609
 3523TIP3   OH231983   1.149   4.333   6.596  0.3153 -0.5230 -0.3580
 3523TIP3    H131984   1.198   4.357   6.675 -0.3183 -0.7684  0.1170
 3523TIP3    H231985   1.060   4.361   6.614  0.3015  0.0831 -1.2919
 3524TIP3   OH231986   4.635   4.718   0.511  0.4407 -0.4771 -0.4084
 3524TIP3    H131987   4.666   4.759   0.592  1.5072  1.7112 -1.8224
 3524TIP3    H231988   4.552   4.676   0.535  2.5147 -3.3544  2.6929
 3525TIP3   OH231989   5.631   4.589  17.006 -0.1938 -0.3777  0.3762
 3525TIP3    H131990   5.709   4.636  16.977 -0.2585  1.0780  2.3849
 3525TIP3    H231991   5.564   4.657  17.014 -1.7818 -1.6161 -1.4384
 3526TIP3   OH231992   6.031   2.791  11.725 -0.3899  0.6082 -0.2337
 3526TIP3    H131993   6.124   2.784  11.702  0.3023 -1.8925  2.7061
 3526TIP3    H231994   6.030   2.829  11.812 -1.9930 -0.7540  0.3882
 3527TIP3   OH231995   4.556   5.953   0.786  0.0575  0.4178  0.3814
 3527TIP3    H131996   4.539   6.043   0.757  1.1129  0.5514  0.1249
 3527TIP3    H231997   4.498   5.941   0.860  0.3329  1.5421  0.8118
 3528TIP3   OH231998   4.229   5.931   3.718  0.3557  0.0395  0.1688
 3528TIP3    H131999   4.168   5.858   3.729 -1.1686  1.0442 -1.1073
 3528TIP3    H232000   4.308   5.893   3.681 -0.8204 -0.8240 -1.5321
 3529TIP3   OH232001   1.438   1.633   5.878 -0.0616 -0.3536  1.0492
 3529TIP3    H132002   1.386   1.681   5.943  0.0066  0.1562  0.7273
 3529TIP3    H232003   1.413   1.541   5.891 -0.8653 -0.1402  1.0647
 3530TIP3   OH232004   3.337   1.022  11.733  0.1860 -0.5892  0.3398
 3530TIP3    H132005   3.367   0.941  11.693  0.4172 -0.3898  0.1024
 3530TIP3    H232006   3.309   1.076  11.659  1.4057  0.1061  0.3650
 3531TIP3   OH232007   6.687   1.116  17.199  0.1290  0.2039  0.1365
 3531TIP3    H132008   6.707   1.023  17.196  0.8074  0.3482 -0.0350
 3531TIP3    H232009   6.605   1.122  17.247  0.7651 -0.3729  1.3161
 3532TIP3   OH232010   6.455   3.700   4.516  0.4685  0.3327  0.0280
 3532TIP3    H132011   6.383   3.673   4.573  1.1372  1.6739  1.5974
 3532TIP3    H232012   6.522   3.634   4.530  1.0490  1.2270  1.7147
 3533TIP3   OH232013   4.670   1.380   1.718  0.0863  0.0593  0.2535
 3533TIP3    H132014   4.627   1.460   1.688 -0.4571 -0.4717 -0.4392
 3533TIP3    H232015   4.712   1.404   1.800  0.6218  1.2643 -0.3460
 3534TIP3   OH232016   3.582   2.230  12.866 -0.1383  0.0614 -0.3325
 3534TIP3    H132017   3.555   2.260  12.952 -0.7975 -0.6921 -0.2564
 3534TIP3    H232018   3.578   2.134  12.872  2.1553 -0.1048 -0.4644
 3535TIP3   OH232019   3.262   0.906   1.106 -0.5640 -0.2331 -0.4813
 3535TIP3    H132020   3.246   0.831   1.163  0.4844  0.0849  0.2663
 3535TIP3    H232021   3.336   0.951   1.147 -0.0027  0.1972 -1.9054
 3536TIP3   OH232022   1.368   6.370   4.481  0.5337  0.8719 -0.2116
 3536TIP3    H132023   1.308   6.436   4.516 -1.2530 -0.8214  0.1212
 3536TIP3    H232024   1.400   6.323   4.558 -2.4019 -2.0145 -0.5050
 3537TIP3   OH232025   5.643   5.789   1.262 -0.5367 -0.8880  0.0683
 3537TIP3    H132026   5.549   5.781   1.277 -0.8688  0.7732 -0.9638
 3537TIP3    H232027   5.665   5.878   1.290  0.0087  0.0475 -2.9549
 3538TIP3   OH232028   6.531   0.392  17.345 -0.3954 -0.0124 -0.0390
 3538TIP3    H132029   6.500   0.477  17.375 -0.2732 -0.2744  0.8482
 3538TIP3    H232030   6.606   0.414  17.289 -1.4146  0.5458 -1.2294
 3539TIP3   OH232031   4.114   5.254  14.162 -0.2889 -0.3324  0.5272
 3539TIP3    H132032   4.170   5.293  14.229  0.2269 -1.1959  0.6149
 3539TIP3    H232033   4.072   5.180  14.206  0.0062 -0.8710 -0.0833
 3540TIP3   OH232034   1.503   3.974   6.027  0.8045  0.1925 -0.2874
 3540TIP3    H132035   1.463   4.017   6.103  0.0473 -2.5990  1.0447
 3540TIP3    H232036   1.597   3.989   6.037  0.5795  1.4317  0.1427
 3541TIP3   OH232037   5.609   2.039  15.430  0.2341  0.0540 -0.0367
 3541TIP3    H132038   5.619   2.129  15.462  0.3587  0.8608 -2.1524
 3541TIP3    H232039   5.517   2.032  15.406  0.6685  0.5033 -2.1074
 3542TIP3   OH232040   2.353   0.684   2.747 -0.1627 -0.4277 -0.1269
 3542TIP3    H132041   2.358   0.697   2.842 -0.2138 -1.3434  0.0165
 3542TIP3    H232042   2.266   0.647   2.733 -0.6319  0.8335 -0.6942
 3543TIP3   OH232043   4.890   0.288   0.348 -0.0110  0.4437 -0.3994
 3543TIP3    H132044   4.941   0.232   0.407  1.6355  0.9952 -1.2315
 3543TIP3    H232045   4.941   0.290   0.267 -0.7895  1.9376 -0.8950
 3544TIP3   OH232046   6.404   0.450   4.164 -0.1272 -0.1037 -0.0886
 3544TIP3    H132047   6.366   0.517   4.221  0.5172  0.2950 -0.1137
 3544TIP3    H232048   6.368   0.367   4.197 -0.7499  0.2311  0.0865
 3545TIP3   OH232049   3.913   2.424  14.898  0.1064  0.2715  1.1122
 3545TIP3    H132050   3.997   2.458  14.864 -0.5977  0.5235 -0.4585
 3545TIP3    H232051   3.897   2.346  14.846 -0.4478  0.0065  1.6831
 3546TIP3   OH232052   1.574   5.503   5.719 -0.4027 -0.0534 -0.0029
 3546TIP3    H132053   1.613   5.528   5.803  1.4947 -1.8995 -0.2471
 3546TIP3    H232054   1.644   5.517   5.655 -2.0375  2.0537 -1.5074
 3547TIP3   OH232055   2.606   1.005  14.344  0.1138 -0.0242 -0.0313
 3547TIP3    H132056   2.535   1.013  14.280 -0.1626 -2.6199 -0.1409
 3547TIP3    H232057   2.585   1.070  14.411 -3.3641 -1.7253  0.7718
 3548TIP3   OH232058   4.387   0.731   5.436 -0.1173  0.2011 -0.0210
 3548TIP3    H132059   4.424   0.792   5.372 -1.4713 -0.9195 -1.9751
 3548TIP3    H232060   4.456   0.666   5.450  0.3521  0.7027  0.0284
 3549TIP3   OH232061   5.980   0.643  16.482  0.1200 -0.0159  0.1431
 3549TIP3    H132062   5.910   0.708  16.482 -1.0142 -1.1727 -1.2564
 3549TIP3    H232063   6.057   0.690  16.449 -0.2173  1.0408  0.8217
 3550TIP3   OH232064   4.651   5.300   3.719 -0.3709 -1.0556 -0.5565
 3550TIP3    H132065   4.648   5.385   3.762  1.0879 -1.3436  0.1740
 3550TIP3    H232066   4.596   5.311   3.641 -0.2179  0.5456 -0.4755
 3551TIP3   OH232067   3.730   5.638   5.057 -0.4311 -0.4763  0.0636
 3551TIP3    H132068   3.770   5.725   5.056  1.2605 -1.2066 -1.1450
 3551TIP3    H232069   3.703   5.625   5.148 -1.9554  1.8027  0.0219
 3552TIP3   OH232070   3.195   4.962   3.844  0.5109  0.4372 -0.4603
 3552TIP3    H132071   3.152   4.920   3.918  1.0503  1.5536  0.5036
 3552TIP3    H232072   3.124   5.005   3.796 -0.0904 -1.6046 -1.5705
 3553TIP3   OH232073   1.062   1.000  15.915  0.0904 -0.1113 -0.5824
 3553TIP3    H132074   1.029   1.046  15.992  1.9204 -0.1752  0.2872
 3553TIP3    H232075   0.983   0.963  15.874 -0.7837 -2.3481  2.7278
 3554TIP3   OH232076   1.208   6.203   3.737 -0.4251 -0.1718 -0.0444
 3554TIP3    H132077   1.179   6.285   3.777  1.3364  0.6197 -0.3099
 3554TIP3    H232078   1.269   6.229   3.669 -0.6318 -1.6783 -0.8526
 3555TIP3   OH232079   0.595   1.430   5.341 -0.1361  0.0186 -0.0788
 3555TIP3    H132080   0.641   1.448   5.259 -0.1745  0.5941  0.0186
 3555TIP3    H232081   0.636   1.351   5.375 -0.4428 -0.5006 -0.8894
 3556TIP3   OH232082   4.269   4.870  14.287 -0.4585  0.2055  0.6323
 3556TIP3    H132083   4.288   4.840  14.376  1.6847 -1.1001 -0.1943
 3556TIP3    H232084   4.212   4.803  14.251 -0.8814  0.4534  0.8329
 3557TIP3   OH232085   6.291   3.998   6.017 -0.4152  0.2567 -0.7838
 3557TIP3    H132086   6.251   4.044   5.943 -0.4580 -0.5976 -1.2978
 3557TIP3    H232087   6.380   3.979   5.988 -0.6463 -0.6871 -0.8878
 3558TIP3   OH232088   5.094   1.398  16.365  1.0711  0.4654  0.2072
 3558TIP3    H132089   5.022   1.356  16.318 -0.3638  1.2017  1.6531
 3558TIP3    H232090   5.171   1.379  16.312 -0.4637  1.4957 -2.5958
 3559TIP3   OH232091   5.261   0.707   5.857  0.1927  0.5487  0.1030
 3559TIP3    H132092   5.278   0.800   5.845  0.4025  0.6870  1.3072
 3559TIP3    H232093   5.237   0.698   5.950  0.4910 -0.6282  0.0934
 3560TIP3   OH232094   2.012   3.436  17.180  0.2241 -0.2517 -0.0929
 3560TIP3    H132095   2.096   3.405  17.214  0.3882 -1.8733 -1.8552
 3560TIP3    H232096   2.031   3.525  17.151  0.7527  0.1903  1.4528
 3561TIP3   OH232097   3.318   2.478   0.481 -0.0788 -0.1422 -0.3882
 3561TIP3    H132098   3.354   2.518   0.560  1.2891 -0.5482 -0.7787
 3561TIP3    H232099   3.258   2.411   0.513 -0.6354  0.6596  0.2829
 3562TIP3   OH232100   1.577   2.572   0.864 -0.0230  0.2433 -0.0902
 3562TIP3    H132101   1.539   2.656   0.889 -1.6885 -0.6268  0.5044
 3562TIP3    H232102   1.504   2.510   0.870  1.2624 -1.3432 -0.0307
 3563TIP3   OH232103   1.477   0.135   5.899  0.2549  0.1191  0.0275
 3563TIP3    H132104   1.512   0.222   5.918  0.5356 -0.1565  0.8008
 3563TIP3    H232105   1.386   0.139   5.929 -0.5216  0.9125 -2.2035
 3564TIP3   OH232106   0.853   2.403  10.723 -0.3970  0.0287 -0.3869
 3564TIP3    H132107   0.770   2.414  10.677 -0.6288 -1.0533 -0.2462
 3564TIP3    H232108   0.828   2.381  10.813  0.0454  0.3229 -0.1887
 3565TIP3   OH232109   2.247   5.321  15.309 -0.2756 -0.2450 -0.5027
 3565TIP3    H132110   2.191   5.368  15.247 -0.3337 -0.3390 -0.5205
 3565TIP3    H232111   2.322   5.379  15.321  1.2085 -1.5249 -2.9374
 3566TIP3   OH232112   1.032   0.829  15.488  0.1968 -0.0816  0.7905
 3566TIP3    H132113   1.074   0.787  15.413  0.6011  0.8406  0.4916
 3566TIP3    H232114   1.049   0.770  15.561  0.7223 -0.4566  0.3723
 3567TIP3   OH232115   2.237   0.914  14.487  0.0928 -0.7172 -0.2235
 3567TIP3    H132116   2.149   0.922  14.525  0.0738 -0.3077 -0.3518
 3567TIP3    H232117   2.295   0.902  14.562 -0.2126 -2.3256 -0.1936
 3568TIP3   OH232118   2.741   0.053   0.909  0.8376 -0.5752 -0.3186
 3568TIP3    H132119   2.805   0.017   0.970  0.3152  0.4448  0.8890
 3568TIP3    H232120   2.771   0.143   0.894 -0.5692  0.1080  0.7181
 3569TIP3   OH232121   1.594   4.785  15.732 -0.1960  0.6706 -0.2762
 3569TIP3    H132122   1.575   4.800  15.639  1.2921 -2.2540 -1.1831
 3569TIP3    H232123   1.647   4.861  15.757  0.1430  1.0948 -2.0853
 3570TIP3   OH232124   3.087   6.745   2.229  0.1620  0.5332  0.1964
 3570TIP3    H132125   3.099   6.657   2.193 -0.2066 -0.7601  2.9457
 3570TIP3    H232126   3.028   6.789   2.168  0.3791 -1.1093 -1.2607
 3571TIP3   OH232127   6.226   4.319   0.812  0.2002 -0.2561  0.5835
 3571TIP3    H132128   6.196   4.373   0.885 -0.3719 -1.1276  1.0058
 3571TIP3    H232129   6.292   4.373   0.768  2.1296 -0.5310  2.9780
 3572TIP3   OH232130   0.876   2.830   0.069  0.1075 -0.2531 -0.0678
 3572TIP3    H132131   0.816   2.876   0.127 -2.1912 -0.8274 -1.8591
 3572TIP3    H232132   0.963   2.847   0.107 -0.9138  2.5245  1.3667
 3573TIP3   OH232133   4.611   0.659  15.675 -0.4091  0.0625 -0.3929
 3573TIP3    H132134   4.632   0.580  15.725  0.5493  0.7476  0.3369
 3573TIP3    H232135   4.571   0.717  15.739  0.5079  0.8178 -0.4852
 3574TIP3   OH232136   2.427   4.291  15.927  0.5869 -0.0605 -0.0172
 3574TIP3    H132137   2.441   4.368  15.982 -1.0271  2.1765 -2.5116
 3574TIP3    H232138   2.358   4.243  15.972  0.6597  0.6515  0.8996
 3575TIP3   OH232139   4.354   2.704  13.025  0.3772  0.2302 -0.1081
 3575TIP3    H132140   4.285   2.639  13.042  0.4130  0.1389 -0.3102
 3575TIP3    H232141   4.413   2.695  13.100  1.0516 -0.8566 -0.7276
 3576TIP3   OH232142   6.498   5.138   6.064 -0.6307 -0.7053  0.5565
 3576TIP3    H132143   6.414   5.146   6.109  0.5981 -1.6825  3.2589
 3576TIP3    H232144   6.560   5.117   6.134  2.0680  1.0050 -1.1467
 3577TIP3   OH232145   6.291   6.488   5.382 -0.2769 -0.0846  0.8134
 3577TIP3    H132146   6.312   6.396   5.363  0.4164  0.0582  0.8452
 3577TIP3    H232147   6.207   6.503   5.338 -0.8942 -1.0092  1.6495
 3578TIP3   OH232148   4.906   3.852  15.783 -0.0075  0.6325 -0.2013
 3578TIP3    H132149   4.912   3.811  15.696  1.4373  0.2841  0.0294
 3578TIP3    H232150   4.858   3.933  15.768 -0.5739  0.1478 -1.1554
 3579TIP3   OH232151   6.099   3.812   1.315 -0.0890 -0.0619  0.2278
 3579TIP3    H132152   6.080   3.893   1.361  0.4365  0.3879 -0.3396
 3579TIP3    H232153   6.016   3.786   1.276 -0.3602 -0.0383  0.7766
 3580TIP3   OH232154   5.915   2.508   6.349  0.0146  0.0947  0.1980
 3580TIP3    H132155   5.869   2.530   6.430 -1.7390 -1.9668 -0.1617
 3580TIP3    H232156   5.959   2.426   6.368 -2.3210 -1.6749 -1.5252
 3581TIP3   OH232157   1.288   3.656   5.188 -0.1841  0.4999 -0.3828
 3581TIP3    H132158   1.314   3.727   5.129  1.1731 -0.9639 -1.6330
 3581TIP3    H232159   1.333   3.578   5.154 -1.0140 -0.8282  1.3797
 3582TIP3   OH232160   1.612   5.858   2.174  0.0113 -0.5902 -0.0134
 3582TIP3    H132161   1.576   5.826   2.257  0.8924  1.6427  1.3364
 3582TIP3    H232162   1.537   5.860   2.115 -1.1521 -0.2038  1.4074
 3583TIP3   OH232163   5.508   1.378   3.903  0.4100  0.4727  0.6063
 3583TIP3    H132164   5.584   1.380   3.845  0.5304 -0.8425  0.6762
 3583TIP3    H232165   5.436   1.351   3.846  0.2578  0.4684  0.8021
 3584TIP3   OH232166   2.572   3.345   0.328  0.7830  0.2190 -0.1686
 3584TIP3    H132167   2.645   3.401   0.303 -0.9788  2.4233 -0.6795
 3584TIP3    H232168   2.566   3.354   0.423 -0.9379  2.9676 -0.4379
 3585TIP3   OH232169   1.903   3.625  12.494  0.3129  0.6943 -0.1819
 3585TIP3    H132170   1.984   3.630  12.546 -0.5836 -0.0764  1.3749
 3585TIP3    H232171   1.837   3.595  12.556 -1.1470  1.1265 -1.4661
 3586TIP3   OH232172   4.502   0.608  14.862 -0.2904 -0.4395 -0.6968
 3586TIP3    H132173   4.574   0.553  14.891  0.1202  0.4103 -0.0455
 3586TIP3    H232174   4.425   0.577  14.910  0.6900  2.0655  2.8888
 3587TIP3   OH232175   0.726   0.398  11.799  0.3976  0.0747 -0.4990
 3587TIP3    H132176   0.674   0.408  11.879 -0.0030  1.2222 -0.8774
 3587TIP3    H232177   0.690   0.321  11.755  1.6081 -1.5016  1.1248
 3588TIP3   OH232178   1.753   2.744   5.254 -0.8995  0.1242  0.1726
 3588TIP3    H132179   1.775   2.773   5.166  2.3198 -1.2395  0.4012
 3588TIP3    H232180   1.747   2.824   5.306 -1.4781  0.8458 -0.9591
 3589TIP3   OH232181   1.260   4.967  11.230  0.3806 -0.2338 -0.4428
 3589TIP3    H132182   1.315   4.888  11.234  0.4600 -0.1560 -0.0069
 3589TIP3    H232183   1.172   4.936  11.251  0.5637 -0.0603  0.6400
 3590TIP3   OH232184   3.392   2.602  12.463 -0.6761  0.4725 -0.0176
 3590TIP3    H132185   3.314   2.647  12.494  0.5321  1.7921  1.3043
 3590TIP3    H232186   3.428   2.560  12.542 -1.1580 -1.9439 -0.9980
 3591TIP3   OH232187   1.398   0.162   3.353  0.1857  0.1208 -0.1963
 3591TIP3    H132188   1.310   0.191   3.329 -0.6684 -1.8849  0.2408
 3591TIP3    H232189   1.415   0.204   3.437 -0.6400  0.0474  0.0169
 3592TIP3   OH232190   6.706   2.966  11.533  0.2831  0.2231 -0.2701
 3592TIP3    H132191   6.798   2.959  11.558  0.3474 -0.1468 -0.5975
 3592TIP3    H232192   6.704   2.945  11.440 -0.1790 -0.1315 -0.1884
 3593TIP3   OH232193   1.838   5.459  13.266  0.1448  0.2432 -0.2752
 3593TIP3    H132194   1.882   5.518  13.205  1.4597  1.0835  1.3599
 3593TIP3    H232195   1.907   5.398  13.293 -0.8450 -1.1737 -0.8788
 3594TIP3   OH232196   4.551   1.956  12.222  0.4733 -0.5985 -0.1096
 3594TIP3    H132197   4.517   1.870  12.198 -0.4005 -0.2867 -0.0164
 3594TIP3    H232198   4.494   1.987  12.292 -0.3518  0.8001 -1.3147
 3595TIP3   OH232199   2.480   1.597  17.112 -0.2549  0.3033  0.5810
 3595TIP3    H132200   2.551   1.654  17.081 -0.2465  0.3503  0.6879
 3595TIP3    H232201   2.520   1.543  17.180 -0.0724 -0.3408 -0.0257
 3596TIP3   OH232202   0.758   3.573   2.349  0.2151  0.0040 -0.3002
 3596TIP3    H132203   0.684   3.530   2.304 -1.1257  1.4923  0.4058
 3596TIP3    H232204   0.781   3.512   2.419  0.0500 -0.7424 -0.8741
 3597TIP3   OH232205   2.814   3.419   6.457 -0.1800  0.4896 -0.2799
 3597TIP3    H132206   2.843   3.333   6.428  1.0806  0.0101  2.1261
 3597TIP3    H232207   2.887   3.477   6.438  0.4525  0.2681  1.3242
 3598TIP3   OH232208   5.344   1.798   1.677 -0.1108  0.2593  0.1316
 3598TIP3    H132209   5.314   1.764   1.762  0.4626  2.3048  1.2197
 3598TIP3    H232210   5.270   1.782   1.618 -1.9193  1.7560  1.8225
 3599TIP3   OH232211   5.202   0.946  11.356 -0.0494 -0.7193 -0.1247
 3599TIP3    H132212   5.208   0.971  11.263  0.6586  0.2650  0.1665
 3599TIP3    H232213   5.189   1.030  11.401 -0.5219 -1.2100  0.6531
 3600TIP3   OH232214   4.811   5.311   0.995 -0.1385 -0.6383 -0.2636
 3600TIP3    H132215   4.774   5.274   0.915 -0.7373 -0.4200 -0.0971
 3600TIP3    H232216   4.737   5.315   1.055  0.3709 -1.0910  0.4100
 3601TIP3   OH232217   3.335   6.376   4.629 -0.0928 -0.2024  0.0693
 3601TIP3    H132218   3.377   6.352   4.546  0.7602 -0.8341  0.6671
 3601TIP3    H232219   3.377   6.458   4.655  0.1341 -0.3599  0.2094
 3602TIP3   OH232220   4.090   0.228   1.372  0.2354 -0.4726 -0.1069
 3602TIP3    H132221   4.129   0.224   1.459  1.1025 -3.7435 -0.5031
 3602TIP3    H232222   4.152   0.279   1.320  0.4662  0.2122  0.8141
 3603TIP3   OH232223   5.217   1.714  13.703 -0.6393  0.1602 -0.8760
 3603TIP3    H132224   5.187   1.750  13.787 -0.0008 -1.7540  0.2303
 3603TIP3    H232225   5.137   1.681  13.662 -0.8011  0.0456 -0.4766
 3604TIP3   OH232226   5.602   6.441  16.595 -0.1912  0.2940  0.0762
 3604TIP3    H132227   5.671   6.502  16.624  1.1755 -1.3964  0.5459
 3604TIP3    H232228   5.599   6.453  16.500  1.0949  0.1017 -0.0100
 3605TIP3   OH232229   4.787   5.100   4.273 -0.4162 -0.3719 -0.0305
 3605TIP3    H132230   4.797   5.188   4.308  1.2083 -0.8338  0.7323
 3605TIP3    H232231   4.760   5.113   4.182 -0.4361  0.8979  0.1435
 3606TIP3   OH232232   3.251   6.227  11.621 -0.2321 -0.3072 -0.0822
 3606TIP3    H132233   3.221   6.141  11.591  0.3437 -0.4253 -0.3290
 3606TIP3    H232234   3.320   6.251  11.559 -1.0831  0.7915 -0.6495
 3607TIP3   OH232235   5.470   2.411   3.505 -0.3659  0.3829 -0.3405
 3607TIP3    H132236   5.520   2.462   3.442  1.6782 -0.1192  0.8050
 3607TIP3    H232237   5.487   2.320   3.481 -0.4416  0.1996  0.2876
 3608TIP3   OH232238   3.117   1.142  14.580  0.5809 -0.0213  0.0338
 3608TIP3    H132239   3.109   1.085  14.657 -0.2574  1.5596  1.1717
 3608TIP3    H232240   3.051   1.109  14.519  0.6435 -0.7502  0.3522
 3609TIP3   OH232241   6.372   5.702   3.559  0.8380  0.3283  0.4578
 3609TIP3    H132242   6.436   5.684   3.490  1.1790  1.5076  0.4383
 3609TIP3    H232243   6.292   5.723   3.512  0.3909 -1.2281  0.4837
 3610TIP3   OH232244   6.298   0.040   2.055  0.3483 -0.6351 -0.1561
 3610TIP3    H132245   6.347   0.013   2.133 -0.8163 -0.3285  0.7103
 3610TIP3    H232246   6.284   0.134   2.067 -0.7863 -0.7887 -0.1791
 3611TIP3   OH232247   0.644   3.192  14.133  0.3701  0.0076 -0.5667
 3611TIP3    H132248   0.573   3.180  14.196  0.1012 -1.6169 -1.1247
 3611TIP3    H232249   0.677   3.104  14.116  1.9729  0.6369 -0.9666
 3612TIP3   OH232250   6.681   0.931   2.642  0.0410 -0.1583 -0.4522
 3612TIP3    H132251   6.666   0.941   2.736 -1.3709  0.0320 -0.6873
 3612TIP3    H232252   6.642   0.846   2.620  1.4010 -0.7601 -0.6802
 3613TIP3   OH232253   3.859   2.535  10.963  0.1520  0.7373 -0.3481
 3613TIP3    H132254   3.861   2.440  10.951  1.3421  0.8167 -0.9824
 3613TIP3    H232255   3.951   2.561  10.958  0.0520  1.7171  1.6837
 3614TIP3   OH232256   3.514   2.416   3.147  0.5704  0.1122 -0.2538
 3614TIP3    H132257   3.610   2.410   3.150  0.7604  1.0176 -2.3988
 3614TIP3    H232258   3.491   2.379   3.062 -1.1914 -1.6350  0.8949
 3615TIP3   OH232259   5.913   0.523   3.215  0.7522 -0.3116  0.3192
 3615TIP3    H132260   5.905   0.617   3.201  0.7043 -0.6221 -2.2345
 3615TIP3    H232261   6.007   0.508   3.221  1.0775 -0.3941 -2.8592
 3616TIP3   OH232262   3.311   5.394  15.899 -0.1454  0.1223  0.3955
 3616TIP3    H132263   3.355   5.365  15.979 -0.7586  0.7345  0.9718
 3616TIP3    H232264   3.278   5.481  15.920 -1.4635 -0.2313 -0.0756
 3617TIP3   OH232265   0.934   5.798  13.231  0.0388 -0.7230 -0.3999
 3617TIP3    H132266   0.974   5.774  13.148  0.0090  1.7050 -1.1993
 3617TIP3    H232267   0.848   5.834  13.207 -0.8647 -1.9160  0.9002
 3618TIP3   OH232268   2.129   3.080  16.965  0.1609 -0.8659 -0.4619
 3618TIP3    H132269   2.188   3.075  16.889  0.0949 -2.4944 -0.4366
 3618TIP3    H232270   2.173   3.030  17.033  0.6690  1.3714  0.9403
 3619TIP3   OH232271   2.682   5.387   1.404 -0.7754 -0.1956  0.1949
 3619TIP3    H132272   2.610   5.442   1.436 -0.8023 -0.2141  0.1657
 3619TIP3    H232273   2.758   5.445   1.402 -0.6611 -0.3158  0.7589
 3620TIP3   OH232274   2.663   6.343  15.481  0.4277  0.4133  0.5217
 3620TIP3    H132275   2.743   6.391  15.460  0.4907 -0.3942 -1.2823
 3620TIP3    H232276   2.660   6.272  15.417 -0.0301 -1.5772  2.5826
 3621TIP3   OH232277   5.791   3.701  13.084 -0.1136 -0.2502 -0.1029
 3621TIP3    H132278   5.825   3.654  13.008 -0.0422  0.1739 -0.3364
 3621TIP3    H232279   5.748   3.633  13.137 -0.1454 -0.5509 -0.5082
 3622TIP3   OH232280   0.153   2.122  13.514 -0.0175 -0.0771 -0.4576
 3622TIP3    H132281   0.066   2.128  13.554  0.4969 -0.7407  0.8293
 3622TIP3    H232282   0.203   2.192  13.557  0.3347 -0.2945 -0.5135
 3623TIP3   OH232283   4.622   0.399   1.222  0.0160 -0.2231 -0.6534
 3623TIP3    H132284   4.658   0.474   1.269 -2.0342 -0.5768  1.6266
 3623TIP3    H232285   4.559   0.437   1.161  1.0540  0.0522 -1.6107
 3624TIP3   OH232286   1.706   4.106  16.908 -0.0025  0.1930 -0.3523
 3624TIP3    H132287   1.745   4.019  16.901 -0.3710  0.1515 -3.2131
 3624TIP3    H232288   1.612   4.090  16.899 -0.4137  0.6911  2.1771
 3625TIP3   OH232289   2.761   5.329  13.259 -0.1719 -0.0991 -0.3932
 3625TIP3    H132290   2.699   5.381  13.207 -1.5593 -2.1580 -0.9185
 3625TIP3    H232291   2.751   5.362  13.348  0.2816  1.6708 -0.9512
 3626TIP3   OH232292   4.853   4.459   1.249  0.6069 -0.1685  0.0193
 3626TIP3    H132293   4.825   4.543   1.283  0.1027  0.3114 -1.4774
 3626TIP3    H232294   4.890   4.413   1.324 -0.4052  0.8244  1.1543
 3627TIP3   OH232295   5.936   6.316   2.627 -0.5568 -0.0429  0.8580
 3627TIP3    H132296   6.022   6.303   2.588 -1.5492  3.4109 -3.2665
 3627TIP3    H232297   5.883   6.243   2.595 -0.5141  1.0265 -1.9588
 3628TIP3   OH232298   4.713   3.370  10.481  0.0376  0.3868  0.6536
 3628TIP3    H132299   4.706   3.372  10.385  1.1244 -2.0511  0.4552
 3628TIP3    H232300   4.806   3.384  10.498  0.6532 -3.2133  1.0182
 3629TIP3   OH232301   3.444   1.010  16.740 -0.0693  0.7157 -0.0291
 3629TIP3    H132302   3.374   1.040  16.681  1.1181  2.1722 -0.7887
 3629TIP3    H232303   3.511   1.078  16.732  0.7731  0.1530  1.8723
 3630TIP3   OH232304   6.737   3.914  11.274 -0.4330  0.0715  0.4019
 3630TIP3    H132305   6.754   3.881  11.186  2.0632  0.0298  0.8349
 3630TIP3    H232306   6.683   3.846  11.315  0.7890 -1.2992 -0.1902
 3631TIP3   OH232307   5.845   0.990  12.406 -0.0273 -0.2885 -0.1424
 3631TIP3    H132308   5.869   0.903  12.373  0.2904 -0.1372 -0.3156
 3631TIP3    H232309   5.833   0.977  12.500 -1.3067 -0.8027 -0.3485
 3632TIP3   OH232310   1.971   5.089   6.478 -0.0669 -0.1155  0.3687
 3632TIP3    H132311   2.011   5.155   6.535  1.4753  0.1397 -0.9224
 3632TIP3    H232312   2.034   5.018   6.476 -1.5433 -1.5133  1.4382
 3633TIP3   OH232313   0.766   6.000   2.436  0.5403 -0.1119  0.6448
 3633TIP3    H132314   0.830   6.061   2.401  1.9974 -1.4643  0.8514
 3633TIP3    H232315   0.800   5.913   2.413 -0.7218 -0.8991  1.5976
 3634TIP3   OH232316   2.152   2.495  12.989 -0.0006 -0.2019 -0.3611
 3634TIP3    H132317   2.223   2.534  13.040 -2.7742  1.0600  2.8509
 3634TIP3    H232318   2.099   2.448  13.052 -1.3311 -2.3964 -2.8862
 3635TIP3   OH232319   1.537   1.556  13.858 -0.1530 -0.0315  0.1712
 3635TIP3    H132320   1.506   1.609  13.784  1.7643  1.4911  0.3985
 3635TIP3    H232321   1.457   1.531  13.904 -1.2069  1.6146 -0.6548
 3636TIP3   OH232322   3.489   3.334  13.451 -0.2383 -0.3575  0.4824
 3636TIP3    H132323   3.418   3.277  13.421 -0.0533 -1.0197  1.2579
 3636TIP3    H232324   3.567   3.299  13.408 -0.1192 -0.7366  0.9861
 3637TIP3   OH232325   2.174   0.485   4.826  0.6593  0.0858 -0.6679
 3637TIP3    H132326   2.231   0.446   4.891 -0.8091  1.5761  1.6649
 3637TIP3    H232327   2.233   0.523   4.761  2.1947 -0.7773  0.1819
 3638TIP3   OH232328   4.106   4.266  15.744  0.0683 -0.5706 -0.3899
 3638TIP3    H132329   4.112   4.357  15.716  2.0207 -0.2403  0.9135
 3638TIP3    H232330   4.034   4.265  15.807  0.0866  0.0910 -0.3533
 3639TIP3   OH232331   3.213   6.218   4.182 -0.7468  0.5387 -0.3133
 3639TIP3    H132332   3.128   6.254   4.157 -0.4429  0.0970 -2.1068
 3639TIP3    H232333   3.194   6.127   4.205 -0.7396  0.3509 -1.0139
 3640TIP3   OH232334   4.934   0.338  13.391 -0.1869  0.2162 -0.3272
 3640TIP3    H132335   4.933   0.263  13.332  0.1653 -0.0203 -0.0300
 3640TIP3    H232336   5.023   0.340  13.427 -0.4726  0.2153  0.3909
 3641TIP3   OH232337   6.071   2.286   6.428 -0.8722  0.6205 -0.3756
 3641TIP3    H132338   6.142   2.299   6.364 -0.3106 -1.4148 -0.2525
 3641TIP3    H232339   6.012   2.223   6.385 -2.4904  2.0449 -0.3414
 3642TIP3   OH232340   0.935   6.426  12.665  0.1949  0.1676  0.3930
 3642TIP3    H132341   0.986   6.385  12.735  0.3751 -1.2055 -0.5173
 3642TIP3    H232342   1.000   6.474  12.613 -0.0209  1.6860  1.4786
 3643TIP3   OH232343   1.017   4.607   5.725 -0.4062  0.4742  0.3160
 3643TIP3    H132344   0.989   4.597   5.816 -1.0626  2.2752  0.3489
 3643TIP3    H232345   1.094   4.550   5.717 -0.9793 -0.5421  1.6738
 3644TIP3   OH232346   6.345   4.294  15.046 -0.2352 -0.0101 -0.0092
 3644TIP3    H132347   6.383   4.220  15.094 -2.5320 -1.0391  0.3902
 3644TIP3    H232348   6.372   4.371  15.096  2.0765 -0.5331 -0.3352
 3645TIP3   OH232349   5.445   2.723   1.762 -0.1509  0.0483 -0.5398
 3645TIP3    H132350   5.395   2.706   1.682 -0.9019  0.2388 -0.1230
 3645TIP3    H232351   5.411   2.660   1.826  1.2502 -0.8985 -0.6710
 3646TIP3   OH232352   0.803   6.521   5.794 -0.5188 -0.6717 -0.7612
 3646TIP3    H132353   0.861   6.493   5.723  0.5747 -1.7754  0.5007
 3646TIP3    H232354   0.862   6.538   5.868 -1.5552  1.0792 -0.2603
 3647TIP3   OH232355   2.618   0.827  16.282 -0.3834 -0.2268 -0.0714
 3647TIP3    H132356   2.695   0.838  16.226 -1.1268 -1.7120 -1.4774
 3647TIP3    H232357   2.546   0.810  16.220 -1.5006 -0.6128  1.2902
 3648TIP3   OH232358   6.170   2.535  11.635 -0.5114 -0.3489  0.9114
 3648TIP3    H132359   6.240   2.586  11.678  0.5747 -1.5458  0.6255
 3648TIP3    H232360   6.115   2.506  11.707 -0.7203  0.5819  1.1492
 3649TIP3   OH232361   2.369   1.879  13.762 -0.0549  0.1320 -0.0384
 3649TIP3    H132362   2.388   1.915  13.848 -0.0892  3.2939 -1.2111
 3649TIP3    H232363   2.444   1.822  13.743  0.4247  0.1393  1.6805
 3650TIP3   OH232364   1.072   1.539  10.797  0.2095 -0.4534 -0.2713
 3650TIP3    H132365   1.141   1.604  10.807  0.0984 -0.7234  3.5863
 3650TIP3    H232366   1.067   1.524  10.702  2.1499  2.9942 -1.1043
 3651TIP3   OH232367   1.497   3.618  14.350 -0.1087  0.0144 -0.0288
 3651TIP3    H132368   1.556   3.566  14.295 -0.7144  0.6195 -1.2811
 3651TIP3    H232369   1.523   3.708  14.335 -1.0336  0.2582 -0.2358
 3652TIP3   OH232370   6.497   2.662  11.328  0.1859 -0.4616 -0.3051
 3652TIP3    H132371   6.579   2.687  11.371 -0.3681 -0.0082  0.4954
 3652TIP3    H232372   6.429   2.709  11.375 -0.4864 -0.2791 -1.4150
 3653TIP3   OH232373   6.443   1.334  14.426  0.1794 -0.0235  0.0451
 3653TIP3    H132374   6.471   1.340  14.335 -1.1279 -1.9908 -0.5726
 3653TIP3    H232375   6.482   1.252  14.458  0.4554  0.5339  1.2219
 3654TIP3   OH232376   2.562   3.911   2.826 -0.1690 -0.0859 -0.2137
 3654TIP3    H132377   2.598   3.935   2.912 -1.3430 -1.5865  0.7609
 3654TIP3    H232378   2.489   3.971   2.813  0.9148  1.1176 -0.8814
 3655TIP3   OH232379   6.069   4.438   4.666  0.0808  0.1900 -0.0194
 3655TIP3    H132380   6.116   4.511   4.705  0.1388  1.1577 -1.7884
 3655TIP3    H232381   5.989   4.430   4.718 -0.0265  1.6794  0.0820
 3656TIP3   OH232382   1.126   2.247  12.040  0.1691 -0.2489 -0.3807
 3656TIP3    H132383   1.044   2.278  12.078  0.5108  0.6122 -0.3302
 3656TIP3    H232384   1.155   2.178  12.100  0.6319  1.0041  0.8938
 3657TIP3   OH232385   0.943   1.159  16.916 -0.4735  0.2205 -0.2738
 3657TIP3    H132386   0.893   1.191  16.841 -2.1799 -0.1029  0.6869
 3657TIP3    H232387   0.960   1.067  16.896 -1.0801  0.0880 -0.2135
 3658TIP3   OH232388   3.988   4.903  14.581 -0.4064 -0.4063  0.5361
 3658TIP3    H132389   3.972   4.919  14.674 -0.7769 -0.5696  0.5062
 3658TIP3    H232390   4.069   4.852  14.579  0.7485  1.3413  0.6349
 3659TIP3   OH232391   2.123   3.856   1.636 -0.2175 -0.1671  0.2344
 3659TIP3    H132392   2.203   3.805   1.648 -1.0183 -1.1778  1.5818
 3659TIP3    H232393   2.063   3.797   1.591 -0.5456  0.2440  0.1216
 3660TIP3   OH232394   3.427   5.930  16.840 -0.7934 -0.1998 -0.1690
 3660TIP3    H132395   3.341   5.890  16.847 -1.5859  1.3705 -0.3612
 3660TIP3    H232396   3.484   5.875  16.893 -1.9113 -1.2635 -0.0318
 3661TIP3   OH232397   4.223   0.315   4.457  0.3709 -0.2337 -0.0956
 3661TIP3    H132398   4.309   0.351   4.477  1.0824 -0.3391 -2.6878
 3661TIP3    H232399   4.162   0.370   4.508  1.7790  1.3348 -0.0021
 3662TIP3   OH232400   0.540   4.040   0.340  0.5962 -0.5204 -0.7605
 3662TIP3    H132401   0.449   4.013   0.332  1.1146 -2.3825 -0.8067
 3662TIP3    H232402   0.556   4.045   0.434  0.8612 -1.8164 -0.7166
 3663TIP3   OH232403   3.141   6.176  13.763 -0.1788 -0.4619  0.2900
 3663TIP3    H132404   3.054   6.150  13.732  0.4434 -1.8782 -0.3765
 3663TIP3    H232405   3.139   6.161  13.857 -0.5952 -0.6934  0.2470
 3664TIP3   OH232406   2.425   5.218   5.813  0.0507  0.7198  0.0062
 3664TIP3    H132407   2.426   5.314   5.820  1.1322  0.8116 -1.1211
 3664TIP3    H232408   2.467   5.200   5.729  1.0056 -0.8038  0.7768
 3665TIP3   OH232409   5.060   3.543   5.816  0.7667  0.1325 -0.2585
 3665TIP3    H132410   5.126   3.611   5.828  0.0067  0.9762 -0.7716
 3665TIP3    H232411   5.026   3.527   5.904  0.9239  0.4350 -0.1405
 3666TIP3   OH232412   0.761   5.742  13.741 -0.4906  0.6271 -0.0817
 3666TIP3    H132413   0.764   5.803  13.667  0.8352  0.7879  0.0824
 3666TIP3    H232414   0.831   5.772  13.799  0.4739 -1.3101 -0.1869
 3667TIP3   OH232415   2.534   5.900   1.548 -0.2830 -0.6746  0.2646
 3667TIP3    H132416   2.496   5.976   1.592  2.8216 -0.1960  2.4782
 3667TIP3    H232417   2.538   5.833   1.616  2.1970 -0.8364  0.0409
 3668TIP3   OH232418   0.268   3.074  12.276 -0.0729 -0.2460 -0.5486
 3668TIP3    H132419   0.266   3.053  12.183  1.8858  2.0437 -1.2097
 3668TIP3    H232420   0.344   3.027  12.310  0.6436  0.7603 -0.6904
 3669TIP3   OH232421   4.932   6.333   3.415  0.4583  0.1517  0.0280
 3669TIP3    H132422   5.023   6.352   3.390  1.7423  1.0665  4.4961
 3669TIP3    H232423   4.934   6.243   3.447 -0.9073 -0.7063 -2.0756
 3670TIP3   OH232424   2.190   1.586  15.326  0.2627  0.0276 -0.2371
 3670TIP3    H132425   2.217   1.665  15.279  1.0965  0.3485  0.7513
 3670TIP3    H232426   2.128   1.618  15.391 -0.5814 -0.3605 -0.8350
 3671TIP3   OH232427   1.585   3.645  11.779 -0.0781 -0.8493 -0.4786
 3671TIP3    H132428   1.501   3.630  11.824 -1.4402  1.4508 -2.0161
 3671TIP3    H232429   1.575   3.598  11.696  0.0465 -0.3675 -0.7659
 3672TIP3   OH232430   1.613   0.202  15.638  0.4898 -0.0719 -0.6589
 3672TIP3    H132431   1.674   0.253  15.691 -0.2574  1.8880 -1.5485
 3672TIP3    H232432   1.565   0.148  15.701 -1.1383  2.9695  0.9319
 3673TIP3   OH232433   4.889   1.735  16.743  0.1176  0.7373 -0.0476
 3673TIP3    H132434   4.855   1.779  16.821  1.0020  1.9543 -0.3196
 3673TIP3    H232435   4.965   1.686  16.774  0.4099  1.1404 -0.1277
 3674TIP3   OH232436   1.848   2.833  14.837  0.2706  0.0978  0.1396
 3674TIP3    H132437   1.782   2.782  14.789 -0.2220 -0.6125  1.5255
 3674TIP3    H232438   1.885   2.771  14.900  1.6691  0.7274 -0.0338
 3675TIP3   OH232439   1.586   5.415   6.068  0.1500 -0.4230 -0.4601
 3675TIP3    H132440   1.604   5.413   6.162  0.1195  0.0409 -0.4421
 3675TIP3    H232441   1.623   5.498   6.038  1.5022 -1.2320 -1.1369
 3676TIP3   OH232442   3.292   6.246  15.308 -0.2588  0.2798  0.0326
 3676TIP3    H132443   3.372   6.252  15.255 -1.3478 -1.3235 -1.9337
 3676TIP3    H232444   3.294   6.325  15.363  3.1021 -0.1586  0.7636
 3677TIP3   OH232445   4.906   5.279  17.031 -0.5309 -0.2063 -0.1984
 3677TIP3    H132446   4.852   5.200  17.031  1.4627 -1.6647  0.0768
 3677TIP3    H232447   4.972   5.262  16.963 -0.9359  1.9313 -1.2152
 3678TIP3   OH232448   1.687   3.253   5.261  0.1139 -0.1104  0.3384
 3678TIP3    H132449   1.656   3.343   5.256 -0.4261 -0.2723  0.6405
 3678TIP3    H232450   1.709   3.239   5.353 -1.1500 -0.7055  0.5737
 3679TIP3   OH232451   4.500   2.938   1.459 -0.4049 -0.3020  0.2951
 3679TIP3    H132452   4.547   2.920   1.378  0.8202 -0.2763  0.9735
 3679TIP3    H232453   4.520   2.863   1.515 -0.2985  0.2118  0.9598
 3680TIP3   OH232454   0.394   1.009   4.380  0.1485 -0.1893  0.4725
 3680TIP3    H132455   0.423   0.940   4.321 -0.1606  1.3000 -1.4992
 3680TIP3    H232456   0.312   0.976   4.416 -0.9649 -0.1352 -1.8678
 3681TIP3   OH232457   2.853   3.460  12.973 -0.0919  0.1873 -0.1034
 3681TIP3    H132458   2.785   3.441  13.038 -1.0540  2.7014 -0.2475
 3681TIP3    H232459   2.821   3.420  12.892  0.0168 -1.0361  0.4365
 3682TIP3   OH232460   4.174   3.785   5.066 -0.3430 -0.5009 -0.0044
 3682TIP3    H132461   4.162   3.723   5.137  3.5614  0.4353  1.7072
 3682TIP3    H232462   4.236   3.742   5.007  1.4597  1.1792  0.5801
 3683TIP3   OH232463   1.414   5.868   5.949  0.0890 -0.0197  0.5267
 3683TIP3    H132464   1.404   5.865   6.044  2.8491 -0.2508  0.9108
 3683TIP3    H232465   1.422   5.961   5.929  0.7831 -0.0278  0.7288
 3684TIP3   OH232466   2.400   0.762  16.461 -0.3215  0.0464 -0.7484
 3684TIP3    H132467   2.321   0.810  16.438 -0.3041  0.0336 -0.8345
 3684TIP3    H232468   2.469   0.805  16.411  0.0040  1.1137  0.5682
 3685TIP3   OH232469   5.340   5.272   4.668  0.1667 -0.1845  0.1114
 3685TIP3    H132470   5.384   5.288   4.751 -0.8400 -0.9049  0.8092
 3685TIP3    H232471   5.276   5.343   4.660 -0.8428 -1.0000  0.7548
 3686TIP3   OH232472   2.222   0.421  11.175 -0.1053 -0.1455  0.4964
 3686TIP3    H132473   2.199   0.332  11.148 -1.8100  0.0237  1.2534
 3686TIP3    H232474   2.218   0.419  11.271 -1.0355  0.9281  0.5061
 3687TIP3   OH232475   3.128   4.005   1.605 -0.2521 -0.1021  0.3588
 3687TIP3    H132476   3.190   4.002   1.677  0.5228 -0.0270 -0.2929
 3687TIP3    H232477   3.054   3.952   1.635 -0.0792  0.1760  1.3231
 3688TIP3   OH232478   1.970   3.142  10.641  0.1822  0.8434 -0.3314
 3688TIP3    H132479   2.045   3.137  10.581  0.1501 -1.6267 -0.2815
 3688TIP3    H232480   1.934   3.229  10.627  1.9871  1.4551 -1.6680
 3689TIP3   OH232481   2.029   2.708   5.297  0.1557  0.2124 -0.3045
 3689TIP3    H132482   1.938   2.734   5.287  0.3805  0.1132 -3.3438
 3689TIP3    H232483   2.025   2.624   5.342 -1.2067  0.3766 -0.0761
 3690TIP3   OH232484   3.857   6.366  14.406 -0.2900 -0.1256  0.4872
 3690TIP3    H132485   3.952   6.380  14.403 -0.1258 -1.2022  0.3567
 3690TIP3    H232486   3.830   6.364  14.314 -0.5034  0.5187  0.5293
 3691TIP3   OH232487   1.177   0.441  17.349  0.7561  0.0040  0.1391
 3691TIP3    H132488   1.127   0.482  17.279  1.9440  1.4725  0.0806
 3691TIP3    H232489   1.135   0.356  17.363 -1.9060  1.2387  0.3133
 3692TIP3   OH232490   2.525   0.178  16.814 -0.3059  0.0350 -0.0850
 3692TIP3    H132491   2.563   0.250  16.764  1.8134  0.1935  1.6084
 3692TIP3    H232492   2.435   0.205  16.832  1.0578  3.5264  2.6047
 3693TIP3   OH232493   0.520   0.435   0.479  0.3809  0.1456 -0.2441
 3693TIP3    H132494   0.483   0.438   0.567  1.8669 -0.5577  0.4483
 3693TIP3    H232495   0.446   0.410   0.423  0.0972 -3.1329  1.3284
 3694TIP3   OH232496   3.645   3.536  12.978  0.3097  0.2475 -0.3316
 3694TIP3    H132497   3.603   3.606  13.027 -0.2325  0.8991 -1.6722
 3694TIP3    H232498   3.628   3.457  13.030 -0.0689  0.9273  0.6147
 3695TIP3   OH232499   1.734   2.821  12.131  0.5659  0.3312  0.1479
 3695TIP3    H132500   1.665   2.838  12.195  0.1387 -1.8108  0.3294
 3695TIP3    H232501   1.810   2.867  12.165 -0.1006  0.6187  1.2965
 3696TIP3   OH232502   5.576   1.944  11.351  0.5466 -0.2158 -0.2722
 3696TIP3    H132503   5.575   1.923  11.258  2.1908 -1.1506 -0.0980
 3696TIP3    H232504   5.615   1.868  11.393 -1.4924 -0.4374  1.3776
 3697TIP3   OH232505   1.034   0.756  11.513 -0.7758  0.1700 -0.2335
 3697TIP3    H132506   1.073   0.686  11.461 -0.3252  1.0000 -1.0336
 3697TIP3    H232507   1.057   0.734  11.604 -0.5009 -0.6211 -0.4917
 3698TIP3   OH232508   2.955   2.489  14.666  0.1834  0.3896  0.1200
 3698TIP3    H132509   3.020   2.529  14.608  0.0185  0.1309 -0.2487
 3698TIP3    H232510   2.997   2.488  14.752  0.3268  1.0250  0.0656
 3699TIP3   OH232511   3.770   4.886  15.142  0.2009  0.1938 -0.0268
 3699TIP3    H132512   3.691   4.836  15.161  0.7584 -1.3796 -1.5782
 3699TIP3    H232513   3.739   4.972  15.115 -0.9028  0.0109  0.6327
 3700TIP3   OH232514   2.907   0.263   0.556 -0.2466  0.0890 -0.4025
 3700TIP3    H132515   2.994   0.286   0.525 -0.2973  1.3238  0.2699
 3700TIP3    H232516   2.913   0.171   0.580  0.7118  0.0124 -0.8898
 3701TIP3   OH232517   2.569   5.762  10.876  0.1810  0.3514 -0.2104
 3701TIP3    H132518   2.644   5.790  10.824  0.6110 -0.2241  0.0817
 3701TIP3    H232519   2.583   5.801  10.962 -1.6317  3.1287 -1.0254
 3702TIP3   OH232520   1.072   4.930   4.317  0.3678 -0.5768 -0.3490
 3702TIP3    H132521   1.129   4.947   4.392  0.7392 -0.9886 -0.5333
 3702TIP3    H232522   0.995   4.888   4.355  0.5231 -0.7193 -0.1879
 3703TIP3   OH232523   4.156   6.294  12.365  0.2672  0.1417  0.3257
 3703TIP3    H132524   4.200   6.217  12.401  1.0016  0.8551  0.9834
 3703TIP3    H232525   4.224   6.343  12.320  0.1559  1.1942  1.2471
 3704TIP3   OH232526   2.032   6.263  12.655 -0.1057  0.4179 -0.5128
 3704TIP3    H132527   1.949   6.251  12.609 -0.0031  0.7001 -0.7713
 3704TIP3    H232528   2.063   6.349  12.627 -0.9531  1.4312  1.5216
 3705TIP3   OH232529   1.026   2.452   1.308 -0.4526  0.3565  0.0652
 3705TIP3    H132530   0.946   2.401   1.318  1.3825 -2.6520  0.7927
 3705TIP3    H232531   1.020   2.522   1.373 -1.5139 -1.1776  1.6797
 3706TIP3   OH232532   0.486   6.297   2.120  0.1653 -0.1179 -0.2905
 3706TIP3    H132533   0.539   6.326   2.195 -0.3401 -0.4200  0.1996
 3706TIP3    H232534   0.422   6.366   2.108 -0.5405 -0.6352  0.3704
 3707TIP3   OH232535   3.721   0.576  13.298  0.6096  0.7066 -0.0026
 3707TIP3    H132536   3.739   0.490  13.260  0.9242  0.5293  0.5365
 3707TIP3    H232537   3.627   0.574  13.317  0.7622  0.1684  0.7562
 3708TIP3   OH232538   1.142   0.505   1.168  0.3444 -0.4917 -0.4429
 3708TIP3    H132539   1.227   0.548   1.177  1.2313 -1.5701 -2.8238
 3708TIP3    H232540   1.078   0.576   1.178  1.4922  0.3838  1.1120
 3709TIP3   OH232541   6.130   6.541  14.006  0.4980  0.4291 -0.2582
 3709TIP3    H132542   6.050   6.588  14.030 -0.1472 -0.4626 -0.6286
 3709TIP3    H232543   6.111   6.449  14.024  1.7920  0.2899  0.5874
 3710TIP3   OH232544   2.417   5.535  11.527 -0.3339  0.1748 -0.6837
 3710TIP3    H132545   2.408   5.443  11.553 -1.2061  0.8161  1.4361
 3710TIP3    H232546   2.354   5.582  11.581 -0.0328  2.0347 -1.8507
 3711TIP3   OH232547   1.465   3.291  14.443  0.1724  0.5819  0.0064
 3711TIP3    H132548   1.427   3.339  14.370  0.4886  0.2607 -0.3751
 3711TIP3    H232549   1.438   3.200  14.429 -0.4385  0.6444  0.7317
 3712TIP3   OH232550   5.763   2.300   5.867 -0.8399 -0.5586  0.4697
 3712TIP3    H132551   5.819   2.224   5.852  0.3273  0.4280 -0.4206
 3712TIP3    H232552   5.759   2.309   5.962  0.5362 -0.6539  0.5545
 3713TIP3   OH232553   5.403   1.054  11.776  0.5655  0.2106  0.2264
 3713TIP3    H132554   5.383   1.145  11.756 -1.9103  0.1721  2.0156
 3713TIP3    H232555   5.399   1.049  11.872  0.2045 -1.8539  0.1515
 3714TIP3   OH232556   2.128   3.939   2.608 -0.4316 -0.1892  0.0390
 3714TIP3    H132557   2.059   3.873   2.599 -0.3515 -0.0761 -1.6646
 3714TIP3    H232558   2.120   3.994   2.530 -0.2046  1.5700  1.1981
 3715TIP3   OH232559   4.354   1.435  15.039  0.2891  0.2837 -0.3226
 3715TIP3    H132560   4.444   1.450  15.010  0.4507  0.7823  0.4171
 3715TIP3    H232561   4.333   1.511  15.094 -0.2441 -0.3040  0.3028
 3716TIP3   OH232562   6.116   5.914  14.686 -0.0341 -0.3072  0.0818
 3716TIP3    H132563   6.129   5.979  14.754 -0.3309 -0.5667  0.3897
 3716TIP3    H232564   6.022   5.918  14.667  0.1633  0.3059 -0.8620
 3717TIP3   OH232565   3.957   6.027  12.485  0.1247 -0.0117  0.1521
 3717TIP3    H132566   4.001   6.078  12.418 -1.5561  0.8392 -0.3652
 3717TIP3    H232567   4.018   5.956  12.505  1.9772  1.4497 -0.0274
 3718TIP3   OH232568   5.878   6.015   2.853 -0.1225 -0.2920  0.5985
 3718TIP3    H132569   5.863   6.012   2.759 -0.3743 -1.2979  0.6660
 3718TIP3    H232570   5.794   5.993   2.892 -0.0069  0.0602  1.0644
 3719TIP3   OH232571   4.451   3.885   1.819 -0.1014 -0.0638 -0.1428
 3719TIP3    H132572   4.516   3.898   1.889 -1.8614 -2.3899  2.1491
 3719TIP3    H232573   4.404   3.806   1.846 -1.8497 -0.2444 -3.3141
 3720TIP3   OH232574   1.993   3.509  13.731 -0.5471 -0.4929  0.2861
 3720TIP3    H132575   2.063   3.474  13.675 -0.4462  0.5067 -0.2256
 3720TIP3    H232576   2.008   3.603  13.734 -1.1042 -0.4169  1.2543
 3721TIP3   OH232577   6.496   5.690   4.990 -0.0228  0.2505 -0.8072
 3721TIP3    H132578   6.572   5.743   5.015  0.7650 -0.3655 -1.7979
 3721TIP3    H232579   6.428   5.753   4.969  0.7573  0.8837 -1.5252
 3722TIP3   OH232580   5.936   1.760   3.933  0.0552  0.3683 -0.0708
 3722TIP3    H132581   5.856   1.804   3.960  0.2396 -0.3317  1.7502
 3722TIP3    H232582   5.917   1.727   3.845 -0.7226  2.4232 -0.7229
 3723TIP3   OH232583   2.502   4.380  13.230  0.2406  0.1631 -0.5200
 3723TIP3    H132584   2.450   4.433  13.291  0.9233 -0.1551  0.3411
 3723TIP3    H232585   2.467   4.292  13.238  2.0974 -0.4554  1.4614
 3724TIP3   OH232586   0.467   3.023  13.353  0.1359 -0.2903 -0.5206
 3724TIP3    H132587   0.423   3.101  13.319 -0.1580 -1.0120 -1.8553
 3724TIP3    H232588   0.560   3.041  13.340  0.4116  1.4105  2.6738
 3725TIP3   OH232589   2.306   4.979   5.965 -0.1790 -0.4991  0.0938
 3725TIP3    H132590   2.367   4.966   6.037  0.8495  1.7568 -0.2970
 3725TIP3    H232591   2.353   5.033   5.902 -1.3061 -1.7843 -1.9848
 3726TIP3   OH232592   3.687   1.950   5.365 -0.1671 -0.5340  0.3804
 3726TIP3    H132593   3.719   1.883   5.306 -0.3927 -0.5184  0.2406
 3726TIP3    H232594   3.737   1.936   5.446 -1.7832 -2.3163  1.1405
 3727TIP3   OH232595   2.302   3.157   0.970 -0.2567  0.1494  0.2446
 3727TIP3    H132596   2.213   3.156   1.005 -0.4571  0.1533 -0.2558
 3727TIP3    H232597   2.312   3.071   0.929 -1.3994  1.4199 -3.0343
 3728TIP3   OH232598   0.304   6.018  10.995  0.0690 -0.2134 -0.3960
 3728TIP3    H132599   0.314   6.101  10.947 -0.2342  0.1245  0.1149
 3728TIP3    H232600   0.351   5.954  10.942  1.2535  0.4934 -0.2306
 3729TIP3   OH232601   1.764   5.455  11.584  0.0964 -0.1526  0.5379
 3729TIP3    H132602   1.716   5.399  11.645  0.5486  0.6314  1.6642
 3729TIP3    H232603   1.801   5.524  11.640  2.8319 -0.9095 -0.2134
 3730TIP3   OH232604   0.882   6.482   0.114 -0.2790  0.8528 -0.3336
 3730TIP3    H132605   0.941   6.532   0.058  1.2091  0.3310  0.6938
 3730TIP3    H232606   0.827   6.432   0.053  2.6288 -1.2847 -1.4437
 3731TIP3   OH232607   4.307   6.563  15.324  0.2334 -0.2313 -0.0023
 3731TIP3    H132608   4.365   6.639  15.331 -1.5904  1.3911 -1.3285
 3731TIP3    H232609   4.301   6.529  15.413  1.6888  0.7167  0.4919
 3732TIP3   OH232610   0.774   5.463  14.401 -0.3732  0.6337  0.0942
 3732TIP3    H132611   0.702   5.526  14.404  0.2185  1.4383 -1.4552
 3732TIP3    H232612   0.833   5.491  14.472 -0.3965  1.5112 -0.2114
 3733TIP3   OH232613   4.132   0.350   4.107 -0.1805 -0.1007 -0.2043
 3733TIP3    H132614   4.209   0.329   4.055  0.4059  0.4449  0.4274
 3733TIP3    H232615   4.123   0.277   4.168  0.5058  0.3638  0.4657
 3734TIP3   OH232616   1.488   0.423  14.054  0.1736 -1.5675  0.2089
 3734TIP3    H132617   1.503   0.336  14.016  1.8712 -1.3230  0.2305
 3734TIP3    H232618   1.549   0.480  14.007  0.2134 -0.7007  1.2789
 3735TIP3   OH232619   2.809   6.438   5.701  0.6618  0.6656 -0.1291
 3735TIP3    H132620   2.840   6.474   5.617  1.8098 -1.0301 -0.4815
 3735TIP3    H232621   2.771   6.513   5.746  1.0817  1.8726 -1.6790
 3736TIP3   OH232622   2.484   2.268  14.389 -0.2189  0.1382  0.5241
 3736TIP3    H132623   2.410   2.220  14.352 -0.0114  1.1301 -1.2891
 3736TIP3    H232624   2.561   2.227  14.352  0.1402 -0.3736  1.7813
 3737TIP3   OH232625   5.468   1.395  15.120 -0.2214 -0.1771  0.3985
 3737TIP3    H132626   5.401   1.374  15.185  1.2356 -1.9933  1.3897
 3737TIP3    H232627   5.549   1.361  15.157  1.3708  2.3009 -0.5822
 3738TIP3   OH232628   5.400   4.327  16.728 -0.1838 -0.2549  0.4602
 3738TIP3    H132629   5.308   4.353  16.731  0.0879  0.8392  0.0533
 3738TIP3    H232630   5.423   4.313  16.820 -0.6713 -0.2211  0.5934
 3739TIP3   OH232631   1.000   2.418   0.839 -0.0161 -0.2070 -0.0180
 3739TIP3    H132632   1.025   2.502   0.876 -2.4551  0.7487 -0.3509
 3739TIP3    H232633   0.989   2.360   0.914  0.3275  0.1542  0.3135
 3740TIP3   OH232634   0.053   0.582  12.459 -0.0981  0.0161  0.1238
 3740TIP3    H132635   0.072   0.635  12.537 -0.8624 -1.0776  1.0917
 3740TIP3    H232636  -0.007   0.636  12.408 -0.7446  0.1668  1.0133
 3741TIP3   OH232637   6.045   4.170   2.371 -0.0880 -0.0217  0.1320
 3741TIP3    H132638   6.117   4.230   2.390 -0.5649  0.0751  1.7861
 3741TIP3    H232639   5.992   4.217   2.307  1.0943  0.0638 -0.8174
 3742TIP3   OH232640   5.862   3.393  16.981  0.1330  0.3412  0.6376
 3742TIP3    H132641   5.877   3.418  16.889  3.4717  1.0817  1.2517
 3742TIP3    H232642   5.806   3.462  17.016 -3.0462 -1.0471 -1.2213
 3743TIP3   OH232643   6.442   5.484   4.526  0.0227  0.0611  0.4251
 3743TIP3    H132644   6.442   5.547   4.598 -1.3632 -0.5680  1.0152
 3743TIP3    H232645   6.434   5.538   4.447  1.0140  0.7258  0.7492
 3744TIP3   OH232646   1.579   0.747   5.189  0.1801  0.1696  0.1121
 3744TIP3    H132647   1.618   0.832   5.207 -1.2863  0.3099  3.3605
 3744TIP3    H232648   1.650   0.684   5.203  0.7563  0.7395 -0.2151
 3745TIP3   OH232649   4.848   0.851   2.389 -0.3932 -0.2934  0.1493
 3745TIP3    H132650   4.903   0.774   2.373  0.5579  0.8960 -2.8730
 3745TIP3    H232651   4.799   0.864   2.308  1.0878  3.4587 -0.3637
 3746TIP3   OH232652   1.030   3.703   5.757 -0.0622 -0.0438 -0.0318
 3746TIP3    H132653   1.083   3.752   5.820 -2.4173  1.8457  0.6548
 3746TIP3    H232654   1.024   3.762   5.681 -1.5741  0.0543  0.1374
 3747TIP3   OH232655   3.156   5.739   4.876 -0.0012 -0.4253  0.1127
 3747TIP3    H132656   3.240   5.717   4.915  0.2485 -1.2775 -0.8625
 3747TIP3    H232657   3.136   5.665   4.819 -0.0439  1.0197 -1.8351
 3748TIP3   OH232658   0.898   0.347  15.899  0.6536 -0.4034 -0.2279
 3748TIP3    H132659   0.978   0.314  15.939  0.1599  0.5123  1.5754
 3748TIP3    H232660   0.890   0.437  15.928 -0.0837  0.1295 -1.9001
 3749TIP3   OH232661   4.976   1.739   4.071 -0.3192 -0.4854  0.1645
 3749TIP3    H132662   5.061   1.703   4.096 -0.0461 -0.5248 -0.7896
 3749TIP3    H232663   4.935   1.670   4.019 -0.1550  0.2151 -0.9374
 3750TIP3   OH232664   3.366   6.525  13.337 -0.3646 -0.2418 -0.7907
 3750TIP3    H132665   3.396   6.615  13.340  0.3505 -0.4838 -0.6286
 3750TIP3    H232666   3.404   6.489  13.257  0.5192 -0.8005 -0.1395
 3751TIP3   OH232667   6.353   4.444  15.914 -0.0867 -0.4797  0.9330
 3751TIP3    H132668   6.365   4.362  15.866 -0.7795 -0.6607  1.0643
 3751TIP3    H232669   6.441   4.484  15.915  0.3967 -1.5177  1.4238
 3752TIP3   OH232670   4.592   4.291   4.023 -0.8006  0.3662 -0.1490
 3752TIP3    H132671   4.670   4.246   3.990 -0.7718  0.1407  0.2309
 3752TIP3    H232672   4.578   4.362   3.960 -0.0394  0.6740  0.0147
 3753TIP3   OH232673   1.287   5.621   1.175 -0.6314  0.7587 -0.4883
 3753TIP3    H132674   1.286   5.630   1.270 -0.8782 -0.9826 -0.2824
 3753TIP3    H232675   1.259   5.706   1.142 -2.7652  0.7435  1.0600
 3754TIP3   OH232676   5.260   0.787   3.981  0.0277  0.2022  0.2611
 3754TIP3    H132677   5.352   0.796   4.005  0.2808  0.9791 -0.8809
 3754TIP3    H232678   5.240   0.695   3.997  0.4912  0.3926  2.1730
 3755TIP3   OH232679   5.748   0.221   5.889  0.1507 -0.1462  0.3862
 3755TIP3    H132680   5.828   0.268   5.864  0.0640 -0.4064 -0.4009
 3755TIP3    H232681   5.769   0.180   5.972  0.1109  1.5917  1.3013
 3756TIP3   OH232682   0.928   2.010   2.004 -0.0306  0.4842 -0.0695
 3756TIP3    H132683   0.904   2.100   1.983 -1.9674 -0.1089 -0.5624
 3756TIP3    H232684   0.922   2.006   2.100 -0.9581  0.6251 -0.1130
 3757TIP3   OH232685   5.565   5.390   4.517  0.0522  0.2661  0.1501
 3757TIP3    H132686   5.524   5.427   4.595  0.3460 -0.4517  0.6614
 3757TIP3    H232687   5.553   5.295   4.527  0.3628  0.1500 -0.5232
 3758TIP3   OH232688   6.587   3.286  12.001 -0.6105  0.2673  0.6394
 3758TIP3    H132689   6.614   3.346  11.931  0.1628 -0.0312  0.6736
 3758TIP3    H232690   6.497   3.262  11.978  0.3460 -1.6640 -1.6034
 3759TIP3   OH232691   5.021   1.748   2.697 -0.1633  0.7387  0.2357
 3759TIP3    H132692   5.088   1.788   2.751 -0.9671  0.3670  1.5485
 3759TIP3    H232693   5.069   1.687   2.641  0.4259 -1.5148  2.9713
 3760TIP3   OH232694   1.986   2.753  12.236 -0.1631 -0.4027  0.4224
 3760TIP3    H132695   1.969   2.844  12.213  0.3098 -0.2025  0.8301
 3760TIP3    H232696   1.954   2.744  12.326  4.0609  0.7467  2.2926
 3761TIP3   OH232697   6.334   0.701  13.028  0.3110  0.1554  0.0007
 3761TIP3    H132698   6.406   0.759  13.052 -0.2242  1.0895 -0.6210
 3761TIP3    H232699   6.296   0.674  13.111  1.6052 -0.6655  0.3605
 3762TIP3   OH232700   3.541   3.180  17.044  0.6189 -0.3106  0.3681
 3762TIP3    H132701   3.563   3.177  16.951 -1.5486 -0.3867 -0.1902
 3762TIP3    H232702   3.452   3.145  17.049 -0.3097  2.0408  2.1150
 3763TIP3   OH232703   3.012   3.674   6.498 -0.0302 -0.3055  0.0297
 3763TIP3    H132704   3.089   3.724   6.523  0.8462 -1.3691 -0.4647
 3763TIP3    H232705   2.941   3.710   6.551  0.5928  1.3578 -0.2277
 3764TIP3   OH232706   1.671   4.909   2.651  0.7964  0.1851  0.2564
 3764TIP3    H132707   1.592   4.866   2.620 -0.3726  1.5552  1.1771
 3764TIP3    H232708   1.662   5.000   2.622  2.4477  0.1929 -0.3286
 3765TIP3   OH232709   1.869   0.097   6.549  0.3890 -0.1603  0.0591
 3765TIP3    H132710   1.938   0.077   6.486  0.4666  0.1681  0.0377
 3765TIP3    H232711   1.828   0.012   6.568  0.1545 -0.2155 -0.6704
 3766TIP3   OH232712   3.849   6.480   1.533  0.1969  0.3512 -0.0674
 3766TIP3    H132713   3.772   6.529   1.504 -0.2744  0.6603  1.5932
 3766TIP3    H232714   3.814   6.417   1.596  1.2179  0.0279  0.1831
 3767TIP3   OH232715   1.182   4.706   1.514 -0.3418  0.2033 -0.1590
 3767TIP3    H132716   1.178   4.731   1.607  2.0206 -0.9945  0.3449
 3767TIP3    H232717   1.248   4.764   1.476  0.4543 -0.8926 -0.4935
 3768TIP3   OH232718   4.004   3.547   0.878  0.4896  0.5404  0.3151
 3768TIP3    H132719   4.082   3.587   0.839 -0.4143  0.3643 -1.8002
 3768TIP3    H232720   4.034   3.460   0.907  1.0712  0.4121 -0.6211
 3769TIP3   OH232721   2.409   4.040  12.653 -0.1111 -0.2535  0.0897
 3769TIP3    H132722   2.442   4.127  12.631 -0.1672  0.2918  1.9893
 3769TIP3    H232723   2.488   3.987  12.667 -0.0773 -0.5078 -0.9859
 3770TIP3   OH232724   3.148   4.751   0.840 -0.8782 -0.8983  0.6535
 3770TIP3    H132725   3.130   4.819   0.905 -0.3866  0.2037 -0.3156
 3770TIP3    H232726   3.195   4.684   0.888  2.0072  1.1438  0.9370
 3771TIP3   OH232727   5.598   5.334  16.357 -0.0047  0.1375 -0.2280
 3771TIP3    H132728   5.539   5.301  16.425  1.3827  1.7368  1.8925
 3771TIP3    H232729   5.568   5.423  16.339 -0.0473 -0.0896 -1.3659
 3772TIP3   OH232730   0.318   5.459   4.690 -0.7984  0.2918  0.0775
 3772TIP3    H132731   0.408   5.480   4.664 -0.9490  0.5776 -0.2242
 3772TIP3    H232732   0.324   5.373   4.731 -0.0709  1.1390  1.8574
 3773TIP3   OH232733   0.328   1.272  17.306 -0.3767  0.2840 -0.1263
 3773TIP3    H132734   0.260   1.322  17.262  0.7635  1.1535 -0.9796
 3773TIP3    H232735   0.352   1.203  17.243  0.1446  0.5461 -0.2255
 3774TIP3   OH232736   6.627   5.815   3.416 -0.5157  0.3868 -0.0857
 3774TIP3    H132737   6.658   5.736   3.371 -4.0700 -1.5934  0.5848
 3774TIP3    H232738   6.670   5.813   3.501  0.9352  0.3532 -0.7772
 3775TIP3   OH232739   3.850   0.578   4.344 -0.0506 -0.8226  0.2346
 3775TIP3    H132740   3.837   0.483   4.350  1.0911 -0.9033  3.4484
 3775TIP3    H232741   3.937   0.587   4.305  0.5795 -1.2449  1.4530
 3776TIP3   OH232742   5.940   4.615   1.194 -0.0310 -0.0587 -0.1420
 3776TIP3    H132743   6.001   4.682   1.225  1.0196 -0.5981 -0.9646
 3776TIP3    H232744   5.853   4.650   1.214  0.5190  1.1520  0.2165
 3777TIP3   OH232745   5.453   1.770  12.299 -0.1081  0.1371 -0.0125
 3777TIP3    H132746   5.504   1.816  12.366 -0.5483 -0.0562  0.4649
 3777TIP3    H232747   5.446   1.833  12.227  1.2887 -0.0459 -0.3384
 3778TIP3   OH232748   0.547   0.179  11.472 -0.2856 -0.0990  0.6829
 3778TIP3    H132749   0.624   0.131  11.500  0.3380 -2.3323 -3.9320
 3778TIP3    H232750   0.581   0.244  11.410 -1.9745 -0.4930 -0.7237
 3779TIP3   OH232751   3.463   2.893  12.552 -0.1120  0.2609  0.6805
 3779TIP3    H132752   3.506   2.835  12.489 -0.2510  1.2228 -0.3413
 3779TIP3    H232753   3.527   2.962  12.568  1.1225 -1.3928  3.8896
 3780TIP3   OH232754   1.415   5.423  12.980 -0.1061  0.0738  0.3194
 3780TIP3    H132755   1.504   5.395  13.000 -0.2763 -0.3323  0.5151
 3780TIP3    H232756   1.421   5.519  12.971  0.1136  0.1874  1.5524
 3781TIP3   OH232757   4.931   3.237  13.865 -0.1942 -0.4016  0.4024
 3781TIP3    H132758   4.995   3.307  13.852 -0.6032  0.1482  1.3164
 3781TIP3    H232759   4.982   3.163  13.898 -0.1963  0.4798  2.5225
 3782TIP3   OH232760   1.205   4.530  13.098  0.3219  0.2949  0.1865
 3782TIP3    H132761   1.127   4.553  13.048 -0.0829  0.0413  0.6870
 3782TIP3    H232762   1.276   4.531  13.034 -0.3069 -0.7739 -0.5547
 3783TIP3   OH232763   4.994   6.124  11.983 -0.1059 -0.2653  0.3218
 3783TIP3    H132764   4.938   6.047  11.988  0.6011 -0.7375  1.5103
 3783TIP3    H232765   4.945   6.187  11.931 -1.5062 -0.8436  0.9096
 3784TIP3   OH232766   6.703   1.493   6.652  1.2760  0.5966 -0.1483
 3784TIP3    H132767   6.722   1.567   6.594  0.1703  1.1373  0.1555
 3784TIP3    H232768   6.613   1.468   6.631  1.4322 -0.2768  0.1867
 3785TIP3   OH232769   4.477   6.341   1.624 -0.0647 -0.1538  0.4952
 3785TIP3    H132770   4.387   6.363   1.647 -0.3852 -0.3458 -0.5247
 3785TIP3    H232771   4.470   6.288   1.545  0.9588  0.0304  0.2580
 3786TIP3   OH232772   6.240   5.759  16.697 -0.2052 -0.5280  0.1452
 3786TIP3    H132773   6.149   5.743  16.670  0.4139 -2.1427 -1.1192
 3786TIP3    H232774   6.258   5.691  16.761  0.0792 -0.1271  0.4946
 3787TIP3   OH232775   6.289   6.222   3.179 -0.0227 -0.2226 -0.0280
 3787TIP3    H132776   6.211   6.168   3.190 -0.0525  0.0668  1.3657
 3787TIP3    H232777   6.362   6.160   3.182 -0.0823 -0.2632  1.1285
 3788TIP3   OH232778   4.529   4.306   5.991  0.0126 -0.4359 -0.3916
 3788TIP3    H132779   4.535   4.277   6.082 -0.3687  0.4991 -0.0502
 3788TIP3    H232780   4.478   4.387   5.996 -1.2469 -1.1098 -1.6073
 3789TIP3   OH232781   5.069   4.226   0.968  0.3373 -0.1226  0.7313
 3789TIP3    H132782   5.127   4.293   0.931  2.0517 -1.6040  0.5906
 3789TIP3    H232783   5.105   4.207   1.054  0.3818 -1.4030  0.4613
 3790TIP3   OH232784   2.123   1.035  17.061 -0.2346  0.2353 -0.2876
 3790TIP3    H132785   2.103   1.129  17.051 -0.2918  0.2769  0.1868
 3790TIP3    H232786   2.177   1.014  16.986 -0.2956  0.6338 -0.4468
 3791TIP3   OH232787   6.145   3.798   2.833  0.1200 -0.3743  0.3474
 3791TIP3    H132788   6.079   3.801   2.902 -0.5172 -0.9307 -0.2166
 3791TIP3    H232789   6.109   3.853   2.763 -0.4574 -1.8106 -0.5400
 3792TIP3   OH232790   0.106   6.632  15.427 -0.5608  0.0296 -0.3778
 3792TIP3    H132791   0.107   6.593  15.339  0.3911  0.2641 -0.4830
 3792TIP3    H232792   0.042   6.703  15.420  0.6895  1.1155 -1.3822
 3793TIP3   OH232793   4.752   3.677   3.421  0.0950  0.3472  0.2213
 3793TIP3    H132794   4.673   3.661   3.473  1.0774  0.8018  1.9559
 3793TIP3    H232795   4.817   3.706   3.485  2.1600 -1.5224 -0.9042
 3794TIP3   OH232796   1.335   1.477  13.626  0.0688  0.2434  0.7637
 3794TIP3    H132797   1.354   1.534  13.552  0.6477 -0.3086  0.4747
 3794TIP3    H232798   1.339   1.389  13.590  1.9788 -0.1439  1.7594
 3795TIP3   OH232799   6.311   4.857  14.549 -0.5458 -0.1854 -0.0876
 3795TIP3    H132800   6.406   4.847  14.542 -0.6435 -0.9480 -0.4133
 3795TIP3    H232801   6.293   4.844  14.642 -0.0586  2.6493  0.4932
 3796TIP3   OH232802   6.422   1.756   0.108 -0.3805 -0.6626 -0.2862
 3796TIP3    H132803   6.354   1.744   0.174 -0.8101 -2.9603 -1.0347
 3796TIP3    H232804   6.388   1.824   0.050 -1.0680 -0.2864  0.5398
 3797TIP3   OH232805   5.681   3.300   2.050 -0.1541  0.1262  0.3278
 3797TIP3    H132806   5.709   3.270   2.136  0.8639  0.6214  0.1853
 3797TIP3    H232807   5.752   3.275   1.991 -1.4411 -1.4699 -0.6454
 3798TIP3   OH232808   5.938   6.434   3.959 -0.5657  0.3881  0.4811
 3798TIP3    H132809   5.931   6.340   3.970  0.7526  0.2178 -0.0244
 3798TIP3    H232810   5.971   6.466   4.043  2.3806 -0.0497 -0.4082
 3799TIP3   OH232811   4.562   3.813   4.851 -0.4579 -0.1875  0.1547
 3799TIP3    H132812   4.579   3.766   4.769 -0.2758 -0.6465  0.4484
 3799TIP3    H232813   4.495   3.761   4.895  0.2287 -0.5701  0.7919
 3800TIP3   OH232814   0.051   3.381   4.342  0.1309 -0.6577  0.2790
 3800TIP3    H132815   0.043   3.472   4.313 -2.7791 -0.4445  1.3535
 3800TIP3    H232816   0.077   3.387   4.434 -1.0232 -0.8058  0.6389
 3801TIP3   OH232817   0.311   6.626  12.575 -0.1421 -0.6060  0.5284
 3801TIP3    H132818   0.262   6.584  12.505  1.2714 -1.0196 -0.2612
 3801TIP3    H232819   0.251   6.691  12.611 -0.4399  0.6916 -2.0814
 3802TIP3   OH232820   0.693   2.465   5.248 -0.1510  0.1767  0.4001
 3802TIP3    H132821   0.683   2.427   5.161  1.9297  0.3694  0.0272
 3802TIP3    H232822   0.652   2.551   5.242 -0.2009  0.1062 -0.3451
 3803TIP3   OH232823   0.807   0.109  14.664  1.0651  0.3134 -0.2914
 3803TIP3    H132824   0.749   0.172  14.708 -0.6626 -1.1190 -0.4364
 3803TIP3    H232825   0.816   0.142  14.575 -0.8615 -0.2652 -0.7315
 3804TIP3   OH232826   0.211   1.352  16.944 -0.2447  0.5100 -0.1924
 3804TIP3    H132827   0.220   1.373  17.037 -0.5838 -0.6843  0.1342
 3804TIP3    H232828   0.300   1.359  16.909 -0.1718  1.3166  0.1305
 3805TIP3   OH232829   4.419   3.559  16.953  0.0595 -0.1614  0.3300
 3805TIP3    H132830   4.372   3.583  16.873  0.2663  1.8397  0.7745
 3805TIP3    H232831   4.370   3.602  17.023  0.8051 -0.5873  1.1203
 3806TIP3   OH232832   2.953   1.991  12.139 -0.1401 -0.1774 -0.4577
 3806TIP3    H132833   2.860   2.008  12.118 -0.4006 -0.4938  0.4278
 3806TIP3    H232834   2.953   1.967  12.231  0.8513 -0.0518 -0.4180
 3807TIP3   OH232835   0.787   0.404   0.029 -0.3662 -0.0719  0.2721
 3807TIP3    H132836   0.772   0.379   0.121  0.4364  1.5169  0.8684
 3807TIP3    H232837   0.802   0.498   0.032 -2.9528  0.5119 -1.8414
 3808TIP3   OH232838   0.844   5.367   3.392  0.1305  0.1920 -0.0907
 3808TIP3    H132839   0.788   5.443   3.404 -0.1649 -0.0601  0.1411
 3808TIP3    H232840   0.859   5.333   3.480 -1.8342 -1.5079 -0.3293
 3809TIP3   OH232841   3.694   3.250   6.106  0.5102 -0.2216 -0.0403
 3809TIP3    H132842   3.728   3.168   6.142  1.5824 -0.0477 -0.6262
 3809TIP3    H232843   3.607   3.259   6.145  0.8178 -1.0835  0.8790
 3810TIP3   OH232844   3.940   4.888   1.134  0.0187  0.0337  0.1297
 3810TIP3    H132845   4.005   4.958   1.139 -0.5146  0.4828  1.1277
 3810TIP3    H232846   3.875   4.911   1.201 -0.1678 -1.4104  0.4849
 3811TIP3   OH232847   6.726   6.248   4.940  0.1174  0.1832 -0.3498
 3811TIP3    H132848   6.721   6.280   5.030  0.0789  1.6918 -0.8655
 3811TIP3    H232849   6.681   6.314   4.888 -0.4292 -0.9799 -1.4197
 3812TIP3   OH232850   6.236   0.895  11.065 -0.3732 -0.5447 -0.1252
 3812TIP3    H132851   6.315   0.845  11.045 -0.1753 -0.5938  0.7255
 3812TIP3    H232852   6.170   0.829  11.087 -0.0827 -0.4636  1.1019
 3813TIP3   OH232853   1.611   4.026  16.049  0.7177 -0.1342  0.1002
 3813TIP3    H132854   1.636   4.003  16.138  0.5349  1.1428  0.4989
 3813TIP3    H232855   1.678   4.087  16.020  0.2756  0.1734 -0.2997
 3814TIP3   OH232856   2.953   4.418   3.843 -0.3608  0.6215  0.2483
 3814TIP3    H132857   2.898   4.486   3.883  0.1856  1.3478 -0.1904
 3814TIP3    H232858   2.912   4.401   3.758 -1.8366 -1.3199  1.2946
 3815TIP3   OH232859   2.072   3.984  11.617  0.4056  0.3598  0.0360
 3815TIP3    H132860   2.101   3.916  11.677  1.0183  1.4791  1.0565
 3815TIP3    H232861   2.124   4.061  11.641 -0.5368  1.2961 -0.8234
 3816TIP3   OH232862   4.163   6.619  13.096 -0.1865  0.2537 -0.2216
 3816TIP3    H132863   4.156   6.708  13.130 -0.0756 -0.7111  2.5209
 3816TIP3    H232864   4.256   6.597  13.102 -0.2196 -0.0880 -0.8264
 3817TIP3   OH232865   1.374   4.193  16.367 -0.3517 -0.2106 -1.1922
 3817TIP3    H132866   1.335   4.205  16.280 -0.5269  2.4996 -0.8378
 3817TIP3    H232867   1.460   4.233  16.360 -1.4664  2.8528  0.5385
 3818TIP3   OH232868   1.995   0.506  14.025  0.0059  0.3698 -0.4856
 3818TIP3    H132869   1.906   0.539  14.019 -0.2784 -0.4759 -1.2514
 3818TIP3    H232870   2.046   0.578  14.061 -1.0869  0.6724  0.5056
 3819TIP3   OH232871   3.265   6.648  12.198 -0.4023 -0.8771 -0.2397
 3819TIP3    H132872   3.344   6.665  12.146 -1.1838 -0.5943 -1.3820
 3819TIP3    H232873   3.233   6.564  12.164 -1.7091 -0.0012 -1.2487
 3820TIP3   OH232874   4.784   2.302  16.191  0.6292 -0.3507  0.0736
 3820TIP3    H132875   4.776   2.335  16.280  0.8989  1.4510 -0.5107
 3820TIP3    H232876   4.712   2.345  16.143  0.0938 -1.7780 -0.4611
 3821TIP3   OH232877   5.151   3.850  13.640 -0.1686 -0.1812  0.7262
 3821TIP3    H132878   5.178   3.835  13.550 -0.7048 -1.0796  0.7068
 3821TIP3    H232879   5.229   3.832  13.693 -0.3653 -1.5599  0.5815
 3822TIP3   OH232880   5.377   6.118   2.498 -0.0099  0.3727  0.1065
 3822TIP3    H132881   5.442   6.176   2.537 -0.3795  1.0683 -0.3122
 3822TIP3    H232882   5.409   6.104   2.409 -2.4272  3.9695 -1.5335
 3823TIP3   OH232883   6.140   0.343  13.201  0.1532  0.0386  0.3584
 3823TIP3    H132884   6.113   0.294  13.124  0.0594 -0.7853  0.9073
 3823TIP3    H232885   6.227   0.309  13.221  0.6703  1.0708 -0.0555
 3824TIP3   OH232886   4.799   2.246  15.501  0.5140 -0.0905 -0.3182
 3824TIP3    H132887   4.885   2.220  15.532  0.7249 -0.1557 -0.9352
 3824TIP3    H232888   4.786   2.334  15.535  0.4776 -0.3864  0.4468
 3825TIP3   OH232889   2.549   0.622   3.300 -0.2064  0.2118 -0.7426
 3825TIP3    H132890   2.544   0.549   3.360 -1.0741  0.1918 -0.8224
 3825TIP3    H232891   2.470   0.674   3.318 -0.7593 -0.0695 -2.1906
 3826TIP3   OH232892   1.258   3.115  11.500 -0.2996  0.2532 -0.2420
 3826TIP3    H132893   1.232   3.039  11.552 -0.3435  0.2204 -0.3113
 3826TIP3    H232894   1.260   3.083  11.410 -2.1653  0.7957 -0.5273
 3827TIP3   OH232895   0.324   0.758  10.972  0.0687  0.2277 -0.2226
 3827TIP3    H132896   0.251   0.748  10.911  0.2881  1.2209 -0.6668
 3827TIP3    H232897   0.385   0.688  10.948  0.6546  1.2321 -1.9167
 3828TIP3   OH232898   0.869   2.385  12.168 -0.1240  0.0477 -0.6909
 3828TIP3    H132899   0.802   2.409  12.231  1.1067 -0.5470  0.9265
 3828TIP3    H232900   0.841   2.300  12.134  0.2780 -0.6888  0.7431
 3829TIP3   OH232901   0.040   4.425   4.623  0.4360  0.0556 -0.4502
 3829TIP3    H132902   0.064   4.459   4.537 -0.2041 -0.0529 -0.6750
 3829TIP3    H232903   0.012   4.335   4.607 -1.6478  0.6620 -0.4555
 3830TIP3   OH232904   1.351   0.441  14.952  0.5836  0.5858  0.7257
 3830TIP3    H132905   1.382   0.487  14.874  0.3447 -0.0354  0.2589
 3830TIP3    H232906   1.313   0.509  15.007  0.3306  0.9595  0.0922
 3831TIP3   OH232907   5.089   5.146   2.353 -0.5531 -0.4365 -0.1183
 3831TIP3    H132908   5.063   5.180   2.267  0.2402  0.1338 -0.1426
 3831TIP3    H232909   5.126   5.060   2.335  1.3594  0.4237 -0.6278
 3832TIP3   OH232910   1.194   6.474  16.487 -0.1638  0.2013  0.0055
 3832TIP3    H132911   1.180   6.526  16.408 -0.2052 -1.1869 -0.9241
 3832TIP3    H232912   1.289   6.479  16.501 -0.1597  0.4833 -0.1032
 3833TIP3   OH232913   0.550   6.426   1.118 -0.3636  0.5520  0.4230
 3833TIP3    H132914   0.640   6.401   1.095 -0.5675 -0.2211  0.4563
 3833TIP3    H232915   0.506   6.343   1.136 -1.1794  0.8990  0.0710
 3834TIP3   OH232916   2.555   4.810  14.546 -0.3157 -0.2493 -0.3047
 3834TIP3    H132917   2.565   4.846  14.633  2.0704 -0.5022 -0.4149
 3834TIP3    H232918   2.469   4.840  14.517 -0.6972  0.7234  1.6915
 3835TIP3   OH232919   5.039   5.974   0.645 -0.3802  0.6043  0.3223
 3835TIP3    H132920   4.962   5.975   0.587 -0.2352  0.8320  0.1296
 3835TIP3    H232921   5.010   6.022   0.723 -1.0337 -0.9406  1.0557
 3836TIP3   OH232922   5.885   3.732  12.147  0.1582 -0.5678  0.4878
 3836TIP3    H132923   5.890   3.770  12.235  1.1812  1.5634 -0.4157
 3836TIP3    H232924   5.795   3.751  12.118 -0.2258 -1.4041  1.1022
 3837TIP3   OH232925   1.709   1.858   4.393  0.1020  0.0691 -0.5370
 3837TIP3    H132926   1.633   1.807   4.420 -0.3517  2.0238  2.3465
 3837TIP3    H232927   1.674   1.924   4.332 -0.3068  0.1885 -0.1789
 3838TIP3   OH232928   5.872   5.194   0.790  0.2106 -0.7951  0.0443
 3838TIP3    H132929   5.883   5.240   0.706 -1.8072  1.3323  0.8389
 3838TIP3    H232930   5.825   5.256   0.845 -0.2094 -2.8638  2.1559
 3839TIP3   OH232931   3.521   6.049   1.063 -0.4286  0.4454  0.0472
 3839TIP3    H132932   3.554   6.139   1.064 -0.3246  0.4100 -0.0979
 3839TIP3    H232933   3.431   6.055   1.093 -0.0168  0.4352  1.3392
 3840TIP3   OH232934   5.929   3.691   4.413 -0.3205 -0.3742 -0.0987
 3840TIP3    H132935   5.951   3.784   4.418 -0.1406 -0.3420 -1.2485
 3840TIP3    H232936   5.850   3.682   4.465 -0.5932  0.5046 -0.3477
 3841TIP3   OH232937   1.745   4.535   5.208 -0.2972 -0.5177  0.0439
 3841TIP3    H132938   1.829   4.581   5.203 -1.1025  0.9187 -0.7957
 3841TIP3    H232939   1.718   4.525   5.117 -0.9310 -1.2053  0.2975
 3842TIP3   OH232940   1.515   3.761   3.496 -0.2851 -0.8960  0.0523
 3842TIP3    H132941   1.435   3.769   3.445 -0.0680  0.3152 -0.1113
 3842TIP3    H232942   1.568   3.697   3.446 -0.8792 -1.2225 -0.1696
 3843TIP3   OH232943   4.711   6.484   1.633  0.0112  0.3344 -0.1028
 3843TIP3    H132944   4.728   6.461   1.542 -0.8120  0.1758 -0.2239
 3843TIP3    H232945   4.621   6.455   1.649  0.0920  0.5029  0.7135
 3844TIP3   OH232946   3.050   3.923  14.743  0.0033  0.0424 -0.9637
 3844TIP3    H132947   3.061   4.010  14.704  2.7683 -0.0146 -0.5272
 3844TIP3    H232948   3.066   3.862  14.672 -1.6629 -0.1512 -1.2041
 3845TIP3   OH232949   0.558   6.731  12.654 -0.3450  0.2970  0.3114
 3845TIP3    H132950   0.595   6.644  12.646  0.4202  0.6040  0.4560
 3845TIP3    H232951   0.486   6.733  12.591 -0.3072 -0.4046  0.2441
 3846TIP3   OH232952   0.471   4.885   4.195  0.4953 -0.4594 -0.3381
 3846TIP3    H132953   0.506   4.829   4.263  3.0665  0.4371 -0.8038
 3846TIP3    H232954   0.533   4.877   4.122  0.3551  2.0414 -0.8438
 3847TIP3   OH232955   3.937   6.200  13.114 -0.0452  0.4342  0.1459
 3847TIP3    H132956   3.990   6.175  13.189  2.3121  0.0794 -1.5334
 3847TIP3    H232957   3.889   6.120  13.092 -0.6473  0.5032  1.1488
 3848TIP3   OH232958   6.019   5.447  14.017 -0.2063  0.4300  0.1176
 3848TIP3    H132959   6.087   5.384  13.991  0.0341  0.3939  0.8280
 3848TIP3    H232960   5.938   5.407  13.986  0.1166  0.6087 -0.9938
 3849TIP3   OH232961   2.944   6.083  17.266 -0.4146 -0.1199 -0.3928
 3849TIP3    H132962   2.912   6.075  17.176 -0.7063 -1.5611 -0.1760
 3849TIP3    H232963   2.866   6.097  17.318 -0.1916  1.3644 -0.3979
 3850TIP3   OH232964   3.843   5.427   4.706  0.7190 -0.0694 -0.2433
 3850TIP3    H132965   3.775   5.406   4.771  2.0751  1.2466  1.6869
 3850TIP3    H232966   3.904   5.353   4.711 -0.2634 -1.0241 -1.6435
 3851TIP3   OH232967   6.576   0.540   5.457  0.1269 -0.4898 -0.0256
 3851TIP3    H132968   6.545   0.452   5.435  0.7354 -0.5189 -0.7892
 3851TIP3    H232969   6.507   0.599   5.425  0.6113 -0.5832 -1.2961
 3852TIP3   OH232970   2.607   5.042  12.582  0.6024 -0.3713  0.3034
 3852TIP3    H132971   2.566   5.092  12.652 -2.1256 -0.3023 -1.1965
 3852TIP3    H232972   2.686   5.092  12.559  0.0019  1.1460  1.3943
 3853TIP3   OH232973   1.984   4.858   3.246  0.1034  0.2755  0.0492
 3853TIP3    H132974   1.977   4.938   3.297  0.9554  0.7287 -0.5104
 3853TIP3    H232975   2.026   4.795   3.305 -3.2979 -0.7996  1.5684
 3854TIP3   OH232976   5.048   0.188  13.658  0.2096  0.4514 -0.1819
 3854TIP3    H132977   5.041   0.137  13.578 -1.9235  1.8260 -0.9496
 3854TIP3    H232978   4.958   0.214  13.679  0.9810  2.2907  1.2013
 3855TIP3   OH232979   3.384   4.760   4.466 -0.2479  0.4757 -0.0806
 3855TIP3    H132980   3.445   4.828   4.437  0.7016 -0.8892 -1.4662
 3855TIP3    H232981   3.372   4.705   4.389 -1.2234 -0.7608  0.9136
 3856TIP3   OH232982   3.023   4.872   3.571  0.0269  0.0592  0.2702
 3856TIP3    H132983   2.938   4.831   3.583 -0.2355  0.7128  0.7173
 3856TIP3    H232984   3.010   4.963   3.597  0.9450  0.0936  0.6712
 3857TIP3   OH232985   5.871   6.520  14.882 -0.1130 -0.0064  0.0725
 3857TIP3    H132986   5.820   6.506  14.962  0.4066 -0.7124  0.2883
 3857TIP3    H232987   5.949   6.568  14.911  0.9574 -1.8069  0.3203
 3858TIP3   OH232988   2.642   4.754   6.153  0.4228  0.1051 -1.0089
 3858TIP3    H132989   2.561   4.804   6.143  0.0880 -0.3440 -0.5738
 3858TIP3    H232990   2.615   4.663   6.155  0.6812  0.0122  1.2977
 3859TIP3   OH232991   4.828   6.283  11.462  0.9448 -0.1955 -0.6416
 3859TIP3    H132992   4.845   6.229  11.385  0.7694  0.4226 -1.1185
 3859TIP3    H232993   4.788   6.223  11.525  0.2354 -0.4984 -1.3632
 3860TIP3   OH232994   3.181   1.756   1.227  0.0304  0.1069 -0.1288
 3860TIP3    H132995   3.130   1.689   1.273 -0.0650  1.3469  1.6585
 3860TIP3    H232996   3.115   1.806   1.178 -0.1370  0.0835  0.0700
 3861TIP3   OH232997   2.643   3.209   6.021  0.0425 -0.2649  0.4820
 3861TIP3    H132998   2.581   3.145   5.986 -0.0099 -0.3004  0.6393
 3861TIP3    H232999   2.729   3.178   5.991 -0.0678  0.1187 -0.2476
 3862TIP3   OH233000   0.758   1.251   4.512 -0.4205 -0.3257 -0.7034
 3862TIP3    H133001   0.797   1.278   4.594 -3.3211  1.1426  0.3481
 3862TIP3    H233002   0.707   1.173   4.534  0.4215 -1.1715 -1.6250
 3863TIP3   OH233003   1.162   2.179  17.030  0.2182 -0.1981 -0.0353
 3863TIP3    H133004   1.215   2.231  16.971 -0.6309  0.4755 -0.2282
 3863TIP3    H233005   1.204   2.190  17.116 -0.3469  1.4524  0.0815
 3864TIP3   OH233006   3.105   5.381   3.771 -0.1463  0.4493  0.0724
 3864TIP3    H133007   3.037   5.445   3.749 -0.2069  0.3757  0.0494
 3864TIP3    H233008   3.134   5.407   3.858 -1.1290 -0.3269  0.6462
 3865TIP3   OH233009   5.857   1.800   4.546  0.4812  0.4947 -0.0043
 3865TIP3    H133010   5.908   1.869   4.589  1.9950 -0.3753 -0.3492
 3865TIP3    H233011   5.917   1.727   4.538  0.2954  0.5384 -3.5096
 3866TIP3   OH233012   1.477   6.003   4.403  0.0420  0.0357  0.3813
 3866TIP3    H133013   1.500   5.980   4.313 -0.0721  0.3624  0.2662
 3866TIP3    H233014   1.414   5.936   4.430 -0.1343  0.0980  0.1210
 3867TIP3   OH233015   5.635   5.979   6.003 -0.2629  0.5107  0.4055
 3867TIP3    H133016   5.683   5.903   5.969  1.6802  1.3828  1.0606
 3867TIP3    H233017   5.547   5.944   6.023  1.0085 -2.0107  2.2038
 3868TIP3   OH233018   2.818   1.754   3.609  0.3132  0.3348  0.2260
 3868TIP3    H133019   2.848   1.839   3.639  1.3872 -0.0664  0.3047
 3868TIP3    H233020   2.897   1.708   3.582 -0.1184 -1.0782  1.2744
 3869TIP3   OH233021   4.471   6.317   6.340 -0.1176  0.2312  0.4681
 3869TIP3    H133022   4.483   6.374   6.417  0.1334  1.3967 -0.4048
 3869TIP3    H233023   4.424   6.372   6.277 -0.6802 -0.8422 -0.0832
 3870TIP3   OH233024   0.377   4.102  10.637  0.3182 -0.3350  0.1751
 3870TIP3    H133025   0.463   4.092  10.597  0.3185  0.1751  0.0463
 3870TIP3    H233026   0.365   4.022  10.688  0.6636 -0.6246 -0.1899
 3871TIP3   OH233027   3.092   3.260  17.134  0.1595 -0.7651 -0.3372
 3871TIP3    H133028   3.072   3.313  17.211 -0.3877  3.0313 -2.8541
 3871TIP3    H233029   3.022   3.196  17.130  0.8302 -1.8918  2.8363
 3872TIP3   OH233030   3.748   6.227   4.870 -0.3269  0.4204  0.1635
 3872TIP3    H133031   3.811   6.239   4.799 -0.2368  0.5219  0.2608
 3872TIP3    H233032   3.802   6.209   4.947 -0.4200 -3.4396 -0.4276
 3873TIP3   OH233033   2.746   2.642  17.101  0.0535 -0.4301 -0.3796
 3873TIP3    H133034   2.753   2.733  17.131 -1.0497 -0.4883  0.1282
 3873TIP3    H233035   2.678   2.604  17.157 -2.0530 -0.5803 -2.8322
 3874TIP3   OH233036   4.868   5.267  13.928  0.3555 -0.0556  0.5174
 3874TIP3    H133037   4.958   5.273  13.960  0.1330  0.4672  1.0640
 3874TIP3    H233038   4.828   5.199  13.983  0.5796 -0.7543 -0.1514
 3875TIP3   OH233039   6.011   5.194  12.840 -0.1484 -0.1924  0.2208
 3875TIP3    H133040   6.052   5.281  12.835 -1.9078  0.6447 -0.3381
 3875TIP3    H233041   6.082   5.136  12.869  0.4196  1.8897  3.6202
 3876TIP3   OH233042   1.262   0.401  13.878 -0.4015  0.1845 -0.3828
 3876TIP3    H133043   1.357   0.418  13.881 -0.6191  1.4151 -0.0849
 3876TIP3    H233044   1.226   0.449  13.952 -1.4333  0.8852 -1.3120
 3877TIP3   OH233045   5.612   3.982   1.693  0.2436  0.2031 -0.0986
 3877TIP3    H133046   5.553   3.939   1.631 -0.2372  0.0814  0.4360
 3877TIP3    H233047   5.572   4.068   1.708  1.0352  0.7364 -0.9269
 3878TIP3   OH233048   3.393   6.236   5.650  0.4631  0.5832  0.7984
 3878TIP3    H133049   3.413   6.160   5.595 -1.1041 -0.0357  1.0093
 3878TIP3    H233050   3.405   6.205   5.740  0.1571  0.6842  0.8761
 3879TIP3   OH233051   2.947   0.413  12.070  0.1858 -0.3035 -0.4958
 3879TIP3    H133052   2.928   0.320  12.058 -2.8371 -0.1108  1.8926
 3879TIP3    H233053   2.989   0.419  12.155  0.9691  0.5000 -0.9156
 3880TIP3   OH233054   0.525   2.502   2.182  0.3995 -0.2593 -0.0237
 3880TIP3    H133055   0.497   2.482   2.271  0.1070  1.8445  0.4009
 3880TIP3    H233056   0.525   2.597   2.177 -2.4938 -0.2204 -3.1490
 3881TIP3   OH233057   2.151   0.735   0.721 -0.6745  0.2927 -0.2325
 3881TIP3    H133058   2.235   0.776   0.702 -0.0684 -1.0864 -0.6678
 3881TIP3    H233059   2.088   0.806   0.718  0.4274  1.3032 -0.2150
 3882TIP3   OH233060   1.205   1.565  11.789 -0.9407 -0.2910 -0.2056
 3882TIP3    H133061   1.148   1.539  11.717 -0.5378 -0.5209 -0.4457
 3882TIP3    H233062   1.278   1.611  11.747 -1.8338  1.6536  0.2215
 3883TIP3   OH233063   6.655   4.326  15.526  0.7836 -0.5717 -0.0683
 3883TIP3    H133064   6.747   4.308  15.509  1.0675 -0.3239  1.1184
 3883TIP3    H233065   6.635   4.276  15.605 -0.1547 -0.7699 -0.4191
 3884TIP3   OH233066   2.945   4.442   1.501  0.2500 -0.1991  0.1511
 3884TIP3    H133067   2.913   4.431   1.590  0.6037  1.4015  0.4978
 3884TIP3    H233068   2.991   4.360   1.482  3.0696  0.6196  2.6710
 3885TIP3   OH233069   2.763   1.954   0.049  0.2782 -0.5942  0.2755
 3885TIP3    H133070   2.843   1.911   0.079  0.3758  0.4023  1.5209
 3885TIP3    H233071   2.790   2.005  -0.027  1.1956  0.9197  1.5590
 3886TIP3   OH233072   5.774   3.855  15.305  0.4947  0.1502  0.3781
 3886TIP3    H133073   5.735   3.814  15.382 -0.4413  1.8219  0.8308
 3886TIP3    H233074   5.740   3.805  15.231 -2.4959  1.4291  0.7532
 3887TIP3   OH233075   2.393   5.909  16.365  0.5661 -0.0682 -0.3000
 3887TIP3    H133076   2.322   5.939  16.308  1.2022  1.4009 -0.3812
 3887TIP3    H233077   2.430   5.834  16.319 -1.4659 -1.4513  0.1957
 3888TIP3   OH233078   6.441   0.847  14.216  0.1438 -0.0313 -0.2923
 3888TIP3    H133079   6.386   0.905  14.164  1.0448  0.9954 -0.1442
 3888TIP3    H233080   6.510   0.904  14.251  0.4420 -0.9936  0.7515
 3889TIP3   OH233081   2.218   2.354  13.464  0.4389  0.5942  0.4081
 3889TIP3    H133082   2.191   2.425  13.406 -0.0883  0.5085  0.5466
 3889TIP3    H233083   2.136   2.314  13.493  0.7090  0.4353  0.9595
 3890TIP3   OH233084   0.099   4.522   3.565 -0.3643 -0.2239  0.1069
 3890TIP3    H133085   0.061   4.480   3.642  0.7019 -0.5847  0.4646
 3890TIP3    H233086   0.100   4.454   3.498  0.3873 -0.4804  0.3598
 3891TIP3   OH233087   6.267   2.113   5.171  0.1260  0.3217 -0.1693
 3891TIP3    H133088   6.350   2.158   5.186 -0.6461  1.9390 -0.6157
 3891TIP3    H233089   6.241   2.082   5.258  2.3954 -2.5077 -0.3449
 3892TIP3   OH233090   0.064   3.835   3.541 -0.3037 -0.1891 -0.0150
 3892TIP3    H133091   0.135   3.785   3.501  0.5866  0.4252  0.7560
 3892TIP3    H233092   0.048   3.792   3.625 -0.8359 -0.3023 -0.1660
 3893TIP3   OH233093   4.204   5.449   4.938 -0.5435  0.5289 -0.2970
 3893TIP3    H133094   4.268   5.513   4.968  0.4809 -0.6894  0.2058
 3893TIP3    H233095   4.218   5.442   4.844  0.3803 -0.0577 -0.1225
 3894TIP3   OH233096   2.672   2.339   1.657  0.0393 -0.3367  0.4777
 3894TIP3    H133097   2.692   2.421   1.612 -1.4701 -1.0002 -1.5244
 3894TIP3    H233098   2.595   2.358   1.710  0.3754 -0.1857  0.9207
 3895TIP3   OH233099   2.085   5.457  13.613  0.0093  0.0568  0.7395
 3895TIP3    H133100   2.119   5.493  13.531  0.5582  1.1485  1.4195
 3895TIP3    H233101   2.147   5.388  13.637 -0.9973 -1.3646 -0.5243
 3896TIP3   OH233102   3.682   2.617   5.959 -0.1865  0.1386  0.0989
 3896TIP3    H133103   3.616   2.547   5.955  1.8962 -1.8936 -1.8985
 3896TIP3    H233104   3.763   2.571   5.983  0.4879  2.6478  3.3098
 3897TIP3   OH233105   5.940   4.373  12.943  0.8599 -0.2870  0.8088
 3897TIP3    H133106   5.859   4.325  12.959  0.4059 -0.0252 -0.6075
 3897TIP3    H233107   5.997   4.312  12.896  1.6343 -0.5705  2.0440
 3898TIP3   OH233108   3.657   6.689   5.646  0.5401 -0.0723  0.0198
 3898TIP3    H133109   3.746   6.661   5.668 -0.0257 -1.1510  1.0331
 3898TIP3    H233110   3.613   6.609   5.617 -0.5385  0.1405  1.0110
 3899TIP3   OH233111   1.220   4.817  14.274 -0.2246  0.2907 -0.1738
 3899TIP3    H133112   1.201   4.740  14.221 -0.7353  0.0876  0.2952
 3899TIP3    H233113   1.146   4.824  14.334  0.0132  0.9118  0.0597
 3900TIP3   OH233114   1.767   6.207  12.658  0.9684  0.1888  0.4040
 3900TIP3    H133115   1.772   6.159  12.575 -3.4362  0.2999 -0.1939
 3900TIP3    H233116   1.761   6.138  12.725  0.3879 -0.0137  0.1521
 3901TIP3   OH233117   2.633   4.984  16.836 -0.3973 -0.0043  0.2821
 3901TIP3    H133118   2.655   4.942  16.752  0.7714  2.3819 -0.7053
 3901TIP3    H233119   2.540   5.004  16.829  0.2420  2.8025 -1.8199
 3902TIP3   OH233120   0.973   5.952  11.593  0.2188 -0.1420 -0.1551
 3902TIP3    H133121   0.968   6.029  11.649 -1.3135  0.1454 -0.6503
 3902TIP3    H233122   0.890   5.950  11.546  0.0953 -2.2696  0.0532
 3903TIP3   OH233123   0.287   4.767  16.508 -0.0707 -0.1036 -0.9391
 3903TIP3    H133124   0.345   4.842  16.492  0.2198 -0.6667 -2.6546
 3903TIP3    H233125   0.339   4.707  16.561 -0.4252  1.0081  0.7738
 3904TIP3   OH233126   1.181   6.100   2.238 -0.3671  0.1775  0.3968
 3904TIP3    H133127   1.246   6.097   2.308 -0.9189 -0.8392  0.8841
 3904TIP3    H233128   1.223   6.152   2.169  0.5016  0.5034  1.1475
 3905TIP3   OH233129   5.209   2.880   3.099 -0.4179  0.1830  0.5300
 3905TIP3    H133130   5.162   2.868   3.015  1.3913 -1.0758 -0.3699
 3905TIP3    H233131   5.280   2.816   3.095 -0.2458  0.1535  3.0381
 3906TIP3   OH233132   0.517   3.820  16.051 -0.5699  0.1108 -0.0201
 3906TIP3    H133133   0.594   3.876  16.055 -1.4473  1.3148  0.8252
 3906TIP3    H233134   0.468   3.841  16.131 -1.3675 -1.2393 -0.1200
 3907TIP3   OH233135   6.178   5.003  17.264  0.0641 -0.7501 -0.1822
 3907TIP3    H133136   6.204   5.071  17.202 -0.3680 -0.5006 -0.0935
 3907TIP3    H233137   6.158   4.927  17.210  0.0520 -0.6495 -0.3202
 3908TIP3   OH233138   1.758   3.647   4.449  0.2509  0.1453  0.2906
 3908TIP3    H133139   1.746   3.643   4.544  2.1231  0.6103  0.5778
 3908TIP3    H233140   1.784   3.558   4.425 -1.5905 -0.3497 -0.0425
 3909TIP3   OH233141   0.725   0.141   1.731 -0.8129  0.3915 -0.0128
 3909TIP3    H133142   0.740   0.057   1.687 -1.5044  0.0254  0.4367
 3909TIP3    H233143   0.700   0.201   1.661 -0.5407  0.1699 -0.3067
 3910TIP3   OH233144   4.201   2.231  12.007  0.1334 -0.0389 -0.0685
 3910TIP3    H133145   4.255   2.249  12.084  0.1415 -0.9009  0.1418
 3910TIP3    H233146   4.126   2.290  12.016  1.2303  1.4991 -0.6004
 3911TIP3   OH233147   5.059   5.067  14.730  0.6443  0.3999  0.0414
 3911TIP3    H133148   5.011   5.136  14.774 -1.1081  0.0994 -1.2910
 3911TIP3    H233149   5.060   5.093  14.638  2.4821  0.0405 -0.0930
 3912TIP3   OH233150   5.662   5.934   1.533  0.1630  0.0606  0.2207
 3912TIP3    H133151   5.649   6.011   1.588  0.4168  0.0791  0.2568
 3912TIP3    H233152   5.723   5.879   1.583 -1.4544 -1.0295  1.0553
 3913TIP3   OH233153   1.707   1.246   5.030 -0.1710 -0.4761 -0.6436
 3913TIP3    H133154   1.651   1.314   5.066  0.3373 -0.3381 -0.0884
 3913TIP3    H233155   1.791   1.258   5.075 -0.0754 -1.4695 -0.5262
 3914TIP3   OH233156   1.256   6.243   4.080  0.2565 -0.5221  0.5140
 3914TIP3    H133157   1.287   6.164   4.036  1.8872 -0.1073  0.8717
 3914TIP3    H233158   1.165   6.223   4.103  0.8961 -2.6627  1.4161
 3915TIP3   OH233159   3.428   1.587   4.405 -0.0958 -0.3526 -0.0536
 3915TIP3    H133160   3.418   1.568   4.312 -0.3797 -0.2775 -0.0374
 3915TIP3    H233161   3.348   1.633   4.430  0.7559  1.2787 -0.2007
 3916TIP3   OH233162   1.064   4.465   2.665 -0.1289  0.3631 -0.0498
 3916TIP3    H133163   1.134   4.502   2.612  0.5267 -0.1215  0.4713
 3916TIP3    H233164   1.055   4.375   2.634 -0.0080  0.1957  0.4018
 3917TIP3   OH233165   4.962   6.123  14.390 -0.2479 -0.0835  0.8905
 3917TIP3    H133166   4.963   6.063  14.464 -2.0195 -0.1274  0.9148
 3917TIP3    H233167   4.927   6.072  14.317 -0.6636  0.5786  0.6130
 3918TIP3   OH233168   6.145   6.656   0.168 -0.3916 -0.5225  0.0123
 3918TIP3    H133169   6.192   6.590   0.118 -2.3279 -0.5865 -1.8560
 3918TIP3    H233170   6.062   6.668   0.121 -0.3357  2.8801  0.5282
 3919TIP3   OH233171   0.697   2.206  15.583 -0.6258  0.5850  0.1468
 3919TIP3    H133172   0.700   2.291  15.627  0.4282  0.5056  0.2428
 3919TIP3    H233173   0.757   2.216  15.509 -2.0331  0.5769 -1.0418
 3920TIP3   OH233174   1.355   5.164  13.002 -0.6361  0.3509 -0.3378
 3920TIP3    H133175   1.374   5.258  12.992 -0.5992  0.3616 -0.1669
 3920TIP3    H233176   1.335   5.154  13.095 -0.9814  0.2506 -0.4231
 3921TIP3   OH233177   0.277   2.364   4.730  0.0010  0.1453 -0.3855
 3921TIP3    H133178   0.243   2.287   4.775  1.2979  0.5085  1.3102
 3921TIP3    H233179   0.223   2.371   4.651 -0.9659 -1.7493  0.0419
 3922TIP3   OH233180   3.184   6.342   2.950 -0.3271 -0.4169 -0.2841
 3922TIP3    H133181   3.154   6.429   2.926 -0.1131 -0.3757 -0.4044
 3922TIP3    H233182   3.160   6.332   3.043 -1.1381 -0.5701 -0.5085
 3923TIP3   OH233183   2.158   2.917  15.783  0.0714 -0.9174  0.2265
 3923TIP3    H133184   2.190   2.831  15.757 -1.0915 -0.4605 -3.3182
 3923TIP3    H233185   2.172   2.972  15.706 -3.3729  0.8655  0.6771
 3924TIP3   OH233186   2.472   6.617   2.050  0.3636  0.1613  0.0573
 3924TIP3    H133187   2.544   6.561   2.080  0.8884 -0.2114 -1.7595
 3924TIP3    H233188   2.399   6.557   2.035  0.4454  0.1845 -0.4379
 3925TIP3   OH233189   5.908   1.873  17.279  0.1430 -0.0784  0.8622
 3925TIP3    H133190   5.902   1.780  17.302 -2.6696  0.3480  2.3925
 3925TIP3    H233191   5.970   1.910  17.342  0.7341 -0.7755  0.6998
 3926TIP3   OH233192   0.922   4.777  12.379  0.6763 -0.8255  0.1512
 3926TIP3    H133193   0.885   4.781  12.290 -1.2429 -0.1966  0.9150
 3926TIP3    H233194   0.996   4.838  12.377  0.0883 -0.1118 -0.7884
 3927TIP3   OH233195   2.525   6.642   0.109  0.3987 -0.4308 -0.2101
 3927TIP3    H133196   2.534   6.575   0.041 -0.5129  1.4191 -2.3177
 3927TIP3    H233197   2.506   6.723   0.060 -0.5812  0.9685  2.2777
 3928TIP3   OH233198   1.988   0.855  14.609  0.3001 -0.6702 -0.2778
 3928TIP3    H133199   1.973   0.799  14.533 -0.8865  0.8272 -1.2085
 3928TIP3    H233200   1.902   0.893  14.628  1.0777  0.9050  0.2366
 3929TIP3   OH233201   4.808   2.842  11.610  0.3537  0.3435 -0.1162
 3929TIP3    H133202   4.769   2.874  11.692  0.0286  1.1540 -0.5635
 3929TIP3    H233203   4.801   2.747  11.615 -0.3275  0.4144  0.4860
 3930TIP3   OH233204   5.833   2.478  12.554 -0.1625 -0.1059  0.0830
 3930TIP3    H133205   5.790   2.462  12.638  2.3182  2.4499  2.0131
 3930TIP3    H233206   5.797   2.561  12.523  2.0300  1.2308  0.9147
 3931TIP3   OH233207   1.393   4.923  12.088 -0.1263  0.4906  0.6511
 3931TIP3    H133208   1.367   4.953  12.001  2.7666 -1.1489 -0.9407
 3931TIP3    H233209   1.480   4.962  12.102  0.3360 -0.8806  1.8699
 3932TIP3   OH233210   2.533   2.694   4.021  0.3832 -0.5733 -0.0863
 3932TIP3    H133211   2.603   2.637   3.990  0.5001 -0.6588  0.3371
 3932TIP3    H233212   2.557   2.781   3.988 -0.2302 -0.8935 -1.4538
 3933TIP3   OH233213   4.014   4.406   4.322  0.3041  0.2751 -0.7092
 3933TIP3    H133214   3.924   4.437   4.311  0.2444  1.1135  1.5340
 3933TIP3    H233215   4.006   4.317   4.355  0.1356  1.0489  1.5614
 3934TIP3   OH233216   3.469   2.192  15.484 -0.2712 -0.0766  0.3060
 3934TIP3    H133217   3.547   2.245  15.468  1.0248 -2.1231 -0.6823
 3934TIP3    H233218   3.407   2.219  15.417 -0.3470  1.3843  0.9281
 3935TIP3   OH233219   2.912   1.022   3.211 -0.1563  1.0166 -0.2170
 3935TIP3    H133220   2.889   0.995   3.122  0.8203  1.2092 -0.5361
 3935TIP3    H233221   2.954   0.945   3.249 -0.6557  0.9036  0.1236
 3936TIP3   OH233222   5.323   4.329   3.686 -0.3826 -0.9803  0.0045
 3936TIP3    H133223   5.231   4.341   3.663  0.1540  0.7139 -1.5173
 3936TIP3    H233224   5.342   4.398   3.749  0.3529  0.1273 -1.3768
 3937TIP3   OH233225   5.206   6.558  15.323 -0.3608 -0.1512 -0.0920
 3937TIP3    H133226   5.155   6.489  15.280  0.3016  0.1734 -1.4350
 3937TIP3    H233227   5.248   6.513  15.397 -0.2439 -1.1165 -0.7148
 3938TIP3   OH233228   5.346   5.700   5.226  0.1041  0.3377 -0.0037
 3938TIP3    H133229   5.356   5.768   5.293  0.6415 -0.1650  0.4477
 3938TIP3    H233230   5.431   5.697   5.182  0.6406 -1.0846  1.0280
 3939TIP3   OH233231   6.642   2.180   2.381 -0.1458 -0.2951  0.2330
 3939TIP3    H133232   6.555   2.142   2.371 -0.6325  0.0841  2.4418
 3939TIP3    H233233   6.687   2.120   2.441 -0.2628  1.4594  2.2142
 3940TIP3   OH233234   1.780   3.865   5.007  0.3228  0.2803  0.2262
 3940TIP3    H133235   1.744   3.905   5.086 -1.1402 -0.0478 -0.2542
 3940TIP3    H233236   1.775   3.771   5.023 -1.8625  0.1210 -0.9936
 3941TIP3   OH233237   6.600   6.248   5.599  0.1888  0.3997 -0.1866
 3941TIP3    H133238   6.513   6.274   5.570  0.7334  0.8919 -1.4228
 3941TIP3    H233239   6.601   6.153   5.588 -0.5222  0.2574  0.8093
 3942TIP3   OH233240   5.096   2.169   4.650 -0.4407 -0.9283  0.3862
 3942TIP3    H133241   5.097   2.087   4.600  0.2856  0.0809 -1.3508
 3942TIP3    H233242   5.172   2.162   4.708 -0.8375 -1.8046  0.8078
 3943TIP3   OH233243   4.061   1.843   3.931  0.0600 -0.0804  0.0482
 3943TIP3    H133244   4.034   1.913   3.991 -0.7813 -0.6787  0.3909
 3943TIP3    H233245   3.988   1.781   3.932 -0.0693  0.0011 -1.7898
 3944TIP3   OH233246   3.186   0.793  12.029  0.3718 -0.7216 -0.2438
 3944TIP3    H133247   3.243   0.866  12.053 -0.7597  0.7472 -1.7770
 3944TIP3    H233248   3.134   0.777  12.107 -0.0560  0.8201 -0.1788
 3945TIP3   OH233249   1.453   2.044  17.112 -0.3417  0.0262  0.2631
 3945TIP3    H133250   1.419   1.979  17.173 -0.3672  0.5962  0.8680
 3945TIP3    H233251   1.423   2.015  17.026  1.6508 -2.1069  0.1873
 3946TIP3   OH233252   2.954   4.749   4.194 -0.2924 -0.2004 -0.0642
 3946TIP3    H133253   2.970   4.660   4.164  1.2454 -0.5949  1.7251
 3946TIP3    H233254   2.929   4.797   4.115  1.3161 -1.6375 -1.5299
 3947TIP3   OH233255   5.934   3.555   6.220  0.6930 -0.2527 -0.1820
 3947TIP3    H133256   5.982   3.509   6.288 -0.9486 -2.1543 -0.2166
 3947TIP3    H233257   5.964   3.646   6.227  0.3634 -0.2727  3.3316
 3948TIP3   OH233258   1.544   4.266   3.108 -0.2846  0.0535  0.0194
 3948TIP3    H133259   1.536   4.285   3.202 -1.0776  0.6614 -0.1609
 3948TIP3    H233260   1.537   4.351   3.066  0.7844 -0.1346 -0.5675
 3949TIP3   OH233261   2.434   1.709   3.874 -0.2245 -0.1045  0.1532
 3949TIP3    H133262   2.350   1.685   3.834 -0.8518  0.4440  1.0940
 3949TIP3    H233263   2.444   1.647   3.946 -1.0913  1.4062  1.6222
 3950TIP3   OH233264   0.715   2.072   5.195 -0.7156 -0.6871 -0.5451
 3950TIP3    H133265   0.627   2.068   5.233 -0.9438  3.2590 -0.2267
 3950TIP3    H233266   0.706   2.128   5.118  1.3960 -0.7947 -0.9487
 3951TIP3   OH233267   0.367   3.003  15.970 -0.1237 -0.1643  0.3590
 3951TIP3    H133268   0.341   2.914  15.948 -0.8675 -0.1344  1.0739
 3951TIP3    H233269   0.462   2.998  15.983 -0.4874 -1.5151  3.3157
 3952TIP3   OH233270   3.169   4.975   3.091  0.8184  0.3580 -0.1575
 3952TIP3    H133271   3.226   5.044   3.124  1.7524 -0.6644  0.4220
 3952TIP3    H233272   3.190   4.899   3.145 -1.0431 -0.0708  0.0127
 3953TIP3   OH233273   2.447   2.366   5.022 -0.3554  0.6867 -1.0976
 3953TIP3    H133274   2.449   2.280   5.064  0.7348  1.3030  0.2219
 3953TIP3    H233275   2.367   2.407   5.054 -0.2387  0.6191 -0.7131
 3954TIP3   OH233276   5.890   3.700  11.474 -0.2943  0.0808  0.2970
 3954TIP3    H133277   5.839   3.780  11.459 -1.0773 -0.5712 -0.7448
 3954TIP3    H233278   5.840   3.632  11.428 -0.4153 -1.2916  2.3587
 3955TIP3   OH233279   1.738   5.230  12.515  0.3500  0.1484  0.3058
 3955TIP3    H133280   1.742   5.269  12.603 -0.5415  1.3214 -0.1513
 3955TIP3    H233281   1.792   5.287  12.461  1.4849 -0.9766  0.1964
 3956TIP3   OH233282   3.585   4.912   2.408 -0.5704 -0.3933  0.0568
 3956TIP3    H133283   3.622   4.978   2.467 -0.0140 -0.1659 -0.5329
 3956TIP3    H233284   3.545   4.962   2.337 -0.7049 -0.6791 -0.0727
 3957TIP3   OH233285   1.001   4.799   2.438  0.8079 -0.4356 -0.4348
 3957TIP3    H133286   0.916   4.836   2.460  0.5324 -1.6297  0.6162
 3957TIP3    H233287   1.064   4.866   2.465  0.2654 -0.2023  0.2849
 3958TIP3   OH233288   4.630   1.031  16.751 -0.1253  0.0053  0.3291
 3958TIP3    H133289   4.632   0.976  16.829  0.8542 -0.6530 -0.1451
 3958TIP3    H233290   4.559   0.995  16.698  0.0905 -0.3897  0.3117
 3959TIP3   OH233291   3.772   5.183  15.096 -0.3477 -0.6548 -0.0125
 3959TIP3    H133292   3.833   5.256  15.096 -2.0498  0.8342  0.2227
 3959TIP3    H233293   3.706   5.205  15.162 -1.6388 -1.7332 -0.8663
 3960TIP3   OH233294   4.595   1.567   5.892  0.3418  0.2532 -0.2211
 3960TIP3    H133295   4.539   1.644   5.906 -1.1292 -0.4043 -2.0531
 3960TIP3    H233296   4.606   1.530   5.980  0.0439  1.8213  0.5305
 3961TIP3   OH233297   4.805   3.586   4.975  0.1019  0.0924 -0.1330
 3961TIP3    H133298   4.842   3.616   5.059  0.0121 -1.0914  0.3438
 3961TIP3    H233299   4.843   3.645   4.910 -0.0226  1.1955  0.7643
 3962TIP3   OH233300   6.274   4.827   5.038  0.1520  0.0981  0.1774
 3962TIP3    H133301   6.342   4.892   5.058 -0.6320  0.7224  0.8654
 3962TIP3    H233302   6.194   4.863   5.076  0.0413 -2.1561  2.3303
 3963TIP3   OH233303   0.031   6.470  15.649  0.0496 -0.0808  0.6101
 3963TIP3    H133304   0.033   6.507  15.561 -1.1821 -1.8128 -0.1843
 3963TIP3    H233305   0.107   6.509  15.693  1.4313 -0.1498 -1.6035
 3964TIP3   OH233306   3.985   5.284  13.423 -0.6096 -0.1973  0.4996
 3964TIP3    H133307   3.925   5.210  13.431 -0.5436 -0.0974  2.3262
 3964TIP3    H233308   4.072   5.246  13.430 -0.5800  0.0452  1.6435
 3965TIP3   OH233309   3.134   5.195  14.973 -0.1839  0.4112 -0.0192
 3965TIP3    H133310   3.222   5.191  15.009 -1.0288  0.3086  2.2117
 3965TIP3    H233311   3.090   5.117  15.007 -0.7019 -0.4911 -2.5057
 3966TIP3   OH233312   6.627   0.668   2.626  0.1432  0.3533  0.2808
 3966TIP3    H133313   6.543   0.662   2.672  0.1203  1.6094  0.4481
 3966TIP3    H233314   6.612   0.624   2.543 -0.6435  0.4120  0.3839
 3967TIP3   OH233315   4.563   0.608  12.924 -0.4464  0.1636  0.0387
 3967TIP3    H133316   4.544   0.565  13.007  0.7709  0.1150  0.3187
 3967TIP3    H233317   4.654   0.638  12.933 -0.4672  0.6088 -1.0776
 3968TIP3   OH233318   0.636   5.832   2.709  0.5131  0.4411  0.0767
 3968TIP3    H133319   0.564   5.801   2.765  1.1159  2.0657  1.8672
 3968TIP3    H233320   0.592   5.867   2.631 -0.5156  0.0436  0.4495
 3969TIP3   OH233321   2.436   4.647  14.099  0.6121  0.0017  0.1248
 3969TIP3    H133322   2.366   4.651  14.033  1.6508  3.0320 -0.9511
 3969TIP3    H233323   2.508   4.602  14.054  1.1241  1.5649 -0.6701
 3970TIP3   OH233324   2.550   1.873   1.389 -0.0368  0.0297 -0.2144
 3970TIP3    H133325   2.578   1.876   1.480 -0.7592 -1.2357  0.0789
 3970TIP3    H233326   2.458   1.898   1.391 -0.7105 -2.1959 -0.2346
 3971TIP3   OH233327   1.586   4.298   2.635 -0.3649 -0.5059 -0.2190
 3971TIP3    H133328   1.521   4.229   2.650 -1.0884  0.1076 -0.4954
 3971TIP3    H233329   1.639   4.265   2.562 -1.0595 -0.5278 -0.7235
 3972TIP3   OH233330   1.010   2.830  14.073  0.3577 -0.4371  0.4474
 3972TIP3    H133331   1.102   2.829  14.046  0.0831 -1.7879 -0.5477
 3972TIP3    H233332   0.971   2.756  14.027 -0.7186 -1.3130  2.6504
 3973TIP3   OH233333   1.095   6.121  13.992 -0.3150  0.0717  1.0839
 3973TIP3    H133334   1.155   6.084  13.927  0.0728  1.6169  0.5361
 3973TIP3    H233335   1.152   6.170  14.052 -0.8969  0.4895  1.2989
 3974TIP3   OH233336   4.323   4.720  13.040  0.2039  0.7204 -0.7708
 3974TIP3    H133337   4.270   4.676  13.107  0.4230  0.9683 -0.4294
 3974TIP3    H233338   4.413   4.695  13.060  0.1669 -0.2646 -1.7727
 3975TIP3   OH233339   6.332   3.552   0.178  0.2230 -0.2048  0.2620
 3975TIP3    H133340   6.388   3.544   0.255 -0.0185  0.3278  0.4956
 3975TIP3    H233341   6.258   3.494   0.196  1.8038 -2.8585 -1.0923
 3976TIP3   OH233342   5.708   1.796  15.375 -0.1153  0.0365 -0.0375
 3976TIP3    H133343   5.696   1.891  15.383 -2.0995 -0.2203  0.5825
 3976TIP3    H233344   5.693   1.763  15.464 -0.2118 -0.9218 -0.4010
 3977TIP3   OH233345   5.621   3.514   5.372 -0.7827 -0.2181 -0.0270
 3977TIP3    H133346   5.570   3.436   5.354 -0.4588  0.2588 -3.6551
 3977TIP3    H233347   5.701   3.482   5.415 -0.3921 -2.0167 -1.9484
 3978TIP3   OH233348   2.532   0.393   0.292  0.1342  0.5632 -0.2877
 3978TIP3    H133349   2.568   0.331   0.356 -0.5106  0.3555 -0.1181
 3978TIP3    H233350   2.528   0.476   0.339 -2.1601  0.0171  0.6367
 3979TIP3   OH233351   6.528   4.111   6.176  0.5282  0.0880 -0.2038
 3979TIP3    H133352   6.585   4.185   6.155  2.1784 -0.4297  1.9699
 3979TIP3    H233353   6.588   4.036   6.180 -0.3468 -0.5712  1.7552
 3980TIP3   OH233354   0.570   0.148  14.318  0.5053 -0.3113 -0.3847
 3980TIP3    H133355   0.633   0.182  14.254 -0.3282 -0.7053 -1.4594
 3980TIP3    H233356   0.560   0.056  14.293 -0.4837 -0.2514 -0.2392
 3981TIP3   OH233357   3.867   2.548   3.256 -0.3308  0.0516  0.3352
 3981TIP3    H133358   3.809   2.597   3.197  0.8053 -0.3942 -1.1999
 3981TIP3    H233359   3.824   2.464   3.268 -0.6283  0.1910  0.2545
 3982TIP3   OH233360   0.189   4.999   3.851 -0.0261  0.2220  0.3483
 3982TIP3    H133361   0.162   4.914   3.816  0.4133  0.2878 -0.1830
 3982TIP3    H233362   0.162   4.998   3.942 -2.8832  0.7423 -0.3721
 3983TIP3   OH233363   4.257   4.484   3.296 -0.6354  0.4584 -0.1860
 3983TIP3    H133364   4.273   4.534   3.375 -3.0727  0.3896  0.4514
 3983TIP3    H233365   4.262   4.548   3.225 -1.9188  1.2860  0.4292
 3984TIP3   OH233366   2.567   5.730   1.760 -0.1141  0.4304 -0.1401
 3984TIP3    H133367   2.568   5.697   1.849  1.4386  0.1368 -0.2379
 3984TIP3    H233368   2.639   5.685   1.717 -0.2122  1.3079 -1.2677
 3985TIP3   OH233369   6.463   1.147   6.065 -0.2949  0.2627  0.5447
 3985TIP3    H133370   6.511   1.141   5.983  1.1015 -1.2252  1.4090
 3985TIP3    H233371   6.524   1.114   6.131 -2.1020 -0.5911  1.8787
 3986TIP3   OH233372   5.798   2.859  15.700  0.0043  0.2301 -0.7296
 3986TIP3    H133373   5.788   2.769  15.669  0.6650 -0.7643  1.6746
 3986TIP3    H233374   5.887   2.883  15.677  1.9998 -1.9904  3.4623
 3987TIP3   OH233375   4.866   4.110  13.347 -0.3444 -0.2469 -0.9220
 3987TIP3    H133376   4.888   4.073  13.433  1.6850  2.4424 -0.1457
 3987TIP3    H233377   4.900   4.046  13.284 -0.8956 -1.7470  0.2342
 3988TIP3   OH233378   0.818   4.372   4.053 -0.5425  0.5721  0.1531
 3988TIP3    H133379   0.883   4.435   4.085 -0.7767  1.3897 -0.9358
 3988TIP3    H233380   0.861   4.287   4.064 -0.0279  0.9372  1.1765
 3989TIP3   OH233381   0.369   4.685  15.654  0.4497 -0.4126  0.1106
 3989TIP3    H133382   0.292   4.704  15.600 -0.6020 -3.9557  0.1000
 3989TIP3    H233383   0.356   4.737  15.733 -0.2768  1.4627 -1.1603
 3990TIP3   OH233384   6.650   1.478   1.773  0.2686 -0.0200  0.1865
 3990TIP3    H133385   6.708   1.427   1.715 -0.6497 -0.7136 -0.1447
 3990TIP3    H233386   6.691   1.473   1.859  0.5278 -0.7922  0.0247
 3991TIP3   OH233387   5.163   3.302  12.506  0.2693 -0.0668  0.2392
 3991TIP3    H133388   5.213   3.373  12.547  1.9561 -0.6224 -0.7193
 3991TIP3    H233389   5.137   3.337  12.421 -0.0837 -0.1252  0.3252
 3992TIP3   OH233390   1.061   0.097   5.117  0.1155  0.4051 -0.0909
 3992TIP3    H133391   0.967   0.116   5.127  0.2307  0.2500  1.6944
 3992TIP3    H233392   1.103   0.153   5.182  1.0139 -1.2872  0.8609
 3993TIP3   OH233393   0.713   6.188   5.937  0.1368 -0.6410  0.1505
 3993TIP3    H133394   0.732   6.095   5.921  0.2719 -0.7539  0.9140
 3993TIP3    H233395   0.785   6.217   5.994  0.2341  0.0004 -0.2978
 3994TIP3   OH233396   3.512   6.414   1.915  0.0103  0.3843 -0.3003
 3994TIP3    H133397   3.553   6.354   1.977 -1.7963 -0.3381  0.2554
 3994TIP3    H233398   3.519   6.369   1.831 -2.0064 -1.0671  0.2265
 3995TIP3   OH233399   2.292   5.684  15.097 -0.2481  0.6058 -0.0911
 3995TIP3    H133400   2.351   5.657  15.167 -1.4447  2.6173  1.8084
 3995TIP3    H233401   2.347   5.682  15.018  2.1250  1.4098  1.4252
 3996TIP3   OH233402   5.092   4.683  11.071 -0.1165 -0.4801  0.4401
 3996TIP3    H133403   5.069   4.608  11.016 -0.0938  0.8965 -1.5695
 3996TIP3    H233404   5.008   4.715  11.104 -0.1281 -1.3601  1.2851
 3997TIP3   OH233405   3.637   4.442   3.786 -0.4869  0.0336  0.1142
 3997TIP3    H133406   3.605   4.385   3.716 -2.9421  0.8673  0.4750
 3997TIP3    H233407   3.669   4.381   3.853 -0.2353 -0.8249 -0.7526
 3998TIP3   OH233408   1.553   5.430  13.275 -0.2061 -0.7290 -0.2694
 3998TIP3    H133409   1.632   5.484  13.272 -1.0133  0.4639 -1.9477
 3998TIP3    H233410   1.519   5.441  13.364  0.7381 -0.1286  0.0315
 3999TIP3   OH233411   3.272   6.296  15.845  0.0703  0.0648  0.0891
 3999TIP3    H133412   3.293   6.368  15.904  0.4700 -0.2719  0.3658
 3999TIP3    H233413   3.307   6.218  15.889 -0.1124 -0.2615 -0.3331
 4000TIP3   OH233414   6.694   6.685  14.519  0.6149  0.0773  0.2691
 4000TIP3    H133415   6.724   6.767  14.479  1.1004  0.6689  1.7805
 4000TIP3    H233416   6.602   6.702  14.541  0.6368  0.1152  0.3313
 4001TIP3   OH233417   0.668   0.752  17.100 -0.6643  0.3211 -0.8485
 4001TIP3    H133418   0.709   0.721  17.019  0.3723  0.9730 -0.5877
 4001TIP3    H233419   0.627   0.835  17.075 -2.2066 -0.5241 -1.2050
 4002TIP3   OH233420   2.381   1.378   2.702  0.3061  0.3231  0.3701
 4002TIP3    H133421   2.453   1.316   2.687  0.7495  0.4486  1.8064
 4002TIP3    H233422   2.406   1.424   2.782 -0.2046  2.1037 -0.4553
 4003TIP3   OH233423   2.468   1.652   0.750 -0.4473 -0.8526 -0.1383
 4003TIP3    H133424   2.423   1.718   0.803  2.0391 -0.2219  1.4099
 4003TIP3    H233425   2.438   1.569   0.786 -2.3006 -0.5835 -0.9423
 4004TIP3   OH233426   3.998   5.914   2.527 -0.4942 -0.2929  0.7715
 4004TIP3    H133427   3.905   5.937   2.531 -0.0514  1.5818  1.9057
 4004TIP3    H233428   4.026   5.941   2.440 -0.7244  0.5015  0.9349
 4005TIP3   OH233429   5.615   1.080   1.471 -0.0487 -0.1955  0.6891
 4005TIP3    H133430   5.670   1.061   1.395 -0.4163  0.6492  0.1981
 4005TIP3    H233431   5.609   1.175   1.473  0.9965 -0.1350  2.5433
 4006TIP3   OH233432   6.513   5.447  17.227  0.2454  0.4155 -0.0758
 4006TIP3    H133433   6.543   5.361  17.197  0.4855  1.0066 -1.5800
 4006TIP3    H233434   6.487   5.432  17.318  1.8277 -0.8844  0.2073
 4007TIP3   OH233435   2.357   0.989  11.593 -0.2169  0.0215 -0.1863
 4007TIP3    H133436   2.285   0.928  11.610 -1.9106  1.1581 -2.6664
 4007TIP3    H233437   2.384   0.968  11.504 -0.7194  2.6671 -1.0414
 4008TIP3   OH233438   3.093   2.392  15.529 -0.4227  0.1678 -0.2115
 4008TIP3    H133439   3.011   2.436  15.506 -0.7923 -0.3611  0.0839
 4008TIP3    H233440   3.148   2.401  15.451 -0.8142  0.3961 -0.4645
 4009TIP3   OH233441   3.464   1.336   4.747 -0.5031  0.5352 -0.4473
 4009TIP3    H133442   3.501   1.331   4.835  0.8034  1.3018 -0.9380
 4009TIP3    H233443   3.376   1.371   4.760 -0.7862 -0.5051  0.6537
 4010TIP3   OH233444   5.875   2.815  15.304 -0.1520 -0.1767 -0.1307
 4010TIP3    H133445   5.850   2.841  15.215  0.1174  0.3030 -0.0691
 4010TIP3    H233446   5.938   2.881  15.332 -1.2913  0.4988  0.9513
 4011TIP3   OH233447   3.141   4.317   0.867 -0.0202 -0.5861 -0.7779
 4011TIP3    H133448   3.121   4.283   0.780 -3.5925 -0.0395 -0.3095
 4011TIP3    H233449   3.066   4.291   0.921 -0.3528  3.2888  0.9245
 4012TIP3   OH233450   1.211   6.288  12.438 -0.1830 -0.4792  0.3245
 4012TIP3    H133451   1.283   6.334  12.395  0.0307 -2.0609 -1.1204
 4012TIP3    H233452   1.236   6.284  12.530  2.0823 -1.7848 -0.2693
 4013TIP3   OH233453   6.160   4.682   2.755  0.2448 -0.9292  0.7453
 4013TIP3    H133454   6.154   4.624   2.679 -0.3145 -0.8668  0.7403
 4013TIP3    H233455   6.116   4.763   2.727 -0.2246 -1.0140  1.2319
 4014TIP3   OH233456   6.059   4.389  11.042 -0.5182  0.1571  0.0294
 4014TIP3    H133457   6.103   4.304  11.047  2.1138  1.4502  1.1281
 4014TIP3    H233458   6.059   4.411  10.949 -0.7305 -0.7904 -0.2030
 4015TIP3   OH233459   2.212   4.363  16.620  0.7714 -0.2533 -0.5119
 4015TIP3    H133460   2.214   4.416  16.540 -0.1470 -1.4420 -1.3534
 4015TIP3    H233461   2.120   4.340  16.631  1.1164 -1.5001 -0.0758
 4016TIP3   OH233462   0.635   2.482   0.816  0.0575  0.6843 -0.8971
 4016TIP3    H133463   0.709   2.511   0.870  0.4803  0.3927 -1.3054
 4016TIP3    H233464   0.570   2.450   0.879  1.8499 -2.8096 -0.5575
 4017TIP3   OH233465   5.816   1.130   6.189  0.2297  0.3564 -0.2771
 4017TIP3    H133466   5.753   1.196   6.218 -0.2653  0.7438 -2.1182
 4017TIP3    H233467   5.858   1.100   6.270 -1.4023  1.0030  0.8740
 4018TIP3   OH233468   1.824   1.277   1.975  0.3470  0.1477 -0.1064
 4018TIP3    H133469   1.806   1.219   1.902  2.7267 -0.7836 -0.0258
 4018TIP3    H233470   1.805   1.365   1.941  1.1712 -0.2817 -1.7973
 4019TIP3   OH233471   1.958   2.528   4.561 -0.0297 -0.3462  0.0704
 4019TIP3    H133472   2.033   2.542   4.504 -0.0349 -1.9019 -0.3485
 4019TIP3    H233473   1.979   2.576   4.641  1.5181 -0.9845  0.0642
 4020TIP3   OH233474   5.590   6.505   3.699  0.2239  0.2724 -0.4241
 4020TIP3    H133475   5.555   6.505   3.788  0.5765 -1.2438 -0.2492
 4020TIP3    H233476   5.685   6.513   3.710  0.2183  0.7763 -0.7085
 4021TIP3   OH233477   3.216   4.793   6.129 -0.4069 -0.1184  0.0266
 4021TIP3    H133478   3.173   4.862   6.179 -1.7143 -0.8179 -0.1010
 4021TIP3    H233479   3.297   4.776   6.177 -1.0507  0.0758  1.2044
 4022TIP3   OH233480   2.411   4.125  13.233  0.3003  0.7633  0.1696
 4022TIP3    H133481   2.323   4.117  13.269  0.1757  0.4790 -0.2062
 4022TIP3    H233482   2.401   4.113  13.139  1.1168 -2.1941  0.3732
 4023TIP3   OH233483   6.262   3.751   4.285  0.0714 -0.5314 -0.6601
 4023TIP3    H133484   6.260   3.809   4.361 -0.6550 -1.1028 -0.2250
 4023TIP3    H233485   6.317   3.796   4.221 -0.4861  0.6377 -0.3357
 4024TIP3   OH233486   5.923   3.577   0.410  0.0724  0.0189 -0.4054
 4024TIP3    H133487   5.937   3.590   0.317 -0.5249  1.1560 -0.3541
 4024TIP3    H233488   6.011   3.564   0.446  0.5099  1.5233 -0.8580
 4025TIP3   OH233489   1.034   5.915   1.034 -0.3689  0.6705 -0.2357
 4025TIP3    H133490   1.038   5.847   0.967  2.0529 -0.5975  1.0566
 4025TIP3    H233491   0.941   5.936   1.042 -0.7743  1.0016 -4.0183
 4026TIP3   OH233492   2.418   0.040   4.524  0.5010 -0.8302 -0.6060
 4026TIP3    H133493   2.360  -0.035   4.535 -0.3158 -0.1907 -0.4844
 4026TIP3    H233494   2.372   0.097   4.463  0.6217  0.0631  0.1228
 4027TIP3   OH233495   5.961   4.796  11.382 -0.2499  0.2866 -0.1157
 4027TIP3    H133496   6.008   4.860  11.435 -0.3336 -0.3119  0.7123
 4027TIP3    H233497   5.986   4.815  11.292 -0.0446  1.2831  0.1419
 4028TIP3   OH233498   0.000   0.687   0.857 -0.0508  0.3942 -0.7723
 4028TIP3    H133499  -0.064   0.746   0.818 -2.5423 -1.7311 -0.1907
 4028TIP3    H233500   0.004   0.712   0.949 -0.2192  0.4052 -0.7683
 4029TIP3   OH233501   6.675   1.213  15.059  0.1818  0.0499 -0.1993
 4029TIP3    H133502   6.581   1.201  15.044  0.2237 -0.3006 -0.1753
 4029TIP3    H233503   6.686   1.199  15.153  0.4602 -1.2450 -0.4095
 4030TIP3   OH233504   0.325   3.112  14.105 -0.0263  0.7367  0.0732
 4030TIP3    H133505   0.327   3.142  14.014 -0.2992  0.2092 -0.1124
 4030TIP3    H233506   0.348   3.189  14.156 -1.2453  1.4026 -0.3496
 4031TIP3   OH233507   4.441   0.296  13.239  0.3532  0.1109  0.3194
 4031TIP3    H133508   4.490   0.271  13.318 -0.6468 -0.6761  0.7129
 4031TIP3    H233509   4.457   0.224  13.178 -0.1325 -0.0356  0.3678
 4032TIP3   OH233510   2.731   2.482   1.289 -0.3119 -0.4883  0.5619
 4032TIP3    H133511   2.821   2.455   1.267 -0.6333 -1.1340  0.0138
 4032TIP3    H233512   2.685   2.401   1.308 -0.6597 -0.1168  1.3404
 4033TIP3   OH233513   4.837   6.059   3.787 -0.3569 -0.0785  0.0184
 4033TIP3    H133514   4.825   6.082   3.695  0.0930 -1.1075 -0.3150
 4033TIP3    H233515   4.931   6.069   3.802 -0.5765  1.1809  0.6966
 4034TIP3   OH233516   1.214   4.315   0.066 -0.1300  0.6754 -0.3249
 4034TIP3    H133517   1.264   4.246   0.023 -0.3875  0.6631 -0.6064
 4034TIP3    H233518   1.274   4.390   0.067  0.3112  0.3264  0.3787
 4035TIP3   OH233519   0.552   6.300   6.527  0.0147 -0.1572  0.3268
 4035TIP3    H133520   0.576   6.253   6.606  0.2095  3.1289  2.4429
 4035TIP3    H233521   0.467   6.339   6.547 -1.1617 -1.2192 -2.1323
 4036TIP3   OH233522   5.879   4.059  12.734 -0.3643  0.2328 -0.5104
 4036TIP3    H133523   5.971   4.052  12.711 -0.0036  3.8531 -0.8138
 4036TIP3    H233524   5.879   4.088  12.826 -1.1027  1.2895 -0.8211
 4037TIP3   OH233525   4.262   2.296   2.746 -0.0845 -0.4577  0.3848
 4037TIP3    H133526   4.291   2.233   2.679  2.7151  0.6373  0.4246
 4037TIP3    H233527   4.220   2.366   2.697  2.8750  0.8529 -0.5186
 4038TIP3   OH233528   2.418   4.811  17.002  0.0882 -0.1374 -0.1461
 4038TIP3    H133529   2.469   4.847  17.074 -0.3180 -0.3441  0.2537
 4038TIP3    H233530   2.437   4.717  17.002 -0.9651 -0.3766  0.5931
 4039TIP3   OH233531   6.731   1.139   4.530 -0.4942  0.6567  0.2046
 4039TIP3    H133532   6.641   1.160   4.505  0.1721  1.8912 -1.3218
 4039TIP3    H233533   6.772   1.225   4.545  0.1773  0.0776  1.8907
 4040TIP3   OH233534   1.049   0.797   2.433 -0.7255 -0.8084 -0.2988
 4040TIP3    H133535   1.096   0.878   2.451 -0.6524 -0.5621 -1.5120
 4040TIP3    H233536   1.092   0.731   2.487 -1.8078  0.2178  1.9567
 4041TIP3   OH233537   4.515   1.341  17.362 -0.1521  0.8462 -0.3686
 4041TIP3    H133538   4.570   1.419  17.360  2.3429 -0.8548 -1.3043
 4041TIP3    H233539   4.570   1.273  17.400 -2.5353 -0.3376  1.2338
 4042TIP3   OH233540   3.901   3.124  11.654  0.5343  0.1571 -0.3160
 4042TIP3    H133541   3.867   3.194  11.598  0.8231  0.7967  0.2912
 4042TIP3    H233542   3.915   3.167  11.739 -2.3245 -1.3210  1.0634
 4043TIP3   OH233543   3.159   1.077  14.304 -0.0425 -0.2841  0.2329
 4043TIP3    H133544   3.192   1.164  14.280 -2.0405  0.1479 -1.1769
 4043TIP3    H233545   3.066   1.091  14.321 -0.6516 -2.3311 -1.0876
 4044TIP3   OH233546   1.481   0.792  15.474  0.4091 -0.1432  0.4286
 4044TIP3    H133547   1.400   0.750  15.501 -0.9641  0.8823 -1.8202
 4044TIP3    H233548   1.503   0.852  15.545 -1.1232 -0.0294  0.8214
 4045TIP3   OH233549   4.348   3.516   4.701  0.5631  0.2313  0.0224
 4045TIP3    H133550   4.435   3.554   4.692  0.2825  0.5027 -2.3237
 4045TIP3    H233551   4.322   3.494   4.611 -1.9535  0.5559  0.5820
 4046TIP3   OH233552   1.360   4.345   1.213  0.0176  0.1518  0.0105
 4046TIP3    H133553   1.308   4.410   1.259  0.9362  1.3807 -0.6288
 4046TIP3    H233554   1.296   4.283   1.178 -0.7772 -0.0104  1.6934
 4047TIP3   OH233555   2.413   5.042   2.819  0.5080  0.0193 -0.1381
 4047TIP3    H133556   2.491   5.024   2.871 -0.3452  0.2401  1.2618
 4047TIP3    H233557   2.387   5.131   2.844  1.5868  1.2591 -2.9466
 4048TIP3   OH233558   4.441   0.832   1.951 -0.4234 -0.0788  0.1267
 4048TIP3    H133559   4.367   0.772   1.940  0.6518 -1.5922  0.8590
 4048TIP3    H233560   4.431   0.865   2.040 -0.3887 -0.0460  0.1180
 4049TIP3   OH233561   1.715   0.435   0.402 -0.3003 -0.0203 -0.0254
 4049TIP3    H133562   1.755   0.407   0.484 -2.4046 -1.3100  0.6464
 4049TIP3    H233563   1.748   0.524   0.388  0.6523 -0.0342  1.8307
 4050TIP3   OH233564   4.758   5.288   0.537 -0.1947  0.1403  0.1447
 4050TIP3    H133565   4.721   5.282   0.625 -1.7073 -3.1395 -0.5823
 4050TIP3    H233566   4.852   5.278   0.550 -0.0819  2.1804  1.4920
 4051TIP3   OH233567   1.728   1.212   2.662  0.7615 -1.0459  0.4213
 4051TIP3    H133568   1.714   1.304   2.637 -0.2575 -0.3739  3.1236
 4051TIP3    H233569   1.759   1.170   2.581  1.2751  1.6455 -0.9122
 4052TIP3   OH233570   0.566   1.442  14.120 -0.3267  0.5324 -0.6678
 4052TIP3    H133571   0.628   1.499  14.166  0.1900 -1.3312  1.0491
 4052TIP3    H233572   0.621   1.380  14.073 -0.6018 -2.8085  2.9088
 4053TIP3   OH233573   4.559   5.590  14.255  0.2291  0.3977  0.0662
 4053TIP3    H133574   4.604   5.607  14.338  0.7829 -0.2923 -0.0843
 4053TIP3    H233575   4.625   5.550  14.199 -1.1783 -3.2495  0.7356
 4054TIP3   OH233576   0.146   0.180   1.188 -0.0208 -0.9518 -0.0669
 4054TIP3    H133577   0.208   0.235   1.236  0.0647 -0.4659 -0.7242
 4054TIP3    H233578   0.198   0.138   1.120 -0.4658 -0.2638 -0.8482
 4055TIP3   OH233579   1.327   1.991   3.669 -0.0024 -0.5720 -0.1773
 4055TIP3    H133580   1.298   1.971   3.758  0.0753 -0.1965 -0.0690
 4055TIP3    H233581   1.265   2.055   3.637  0.0243 -0.6387 -0.3634
 4056TIP3   OH233582   3.747   2.110  16.798  0.2316 -0.2500  0.1805
 4056TIP3    H133583   3.840   2.132  16.798 -0.0217  0.9130  0.0073
 4056TIP3    H233584   3.713   2.154  16.876 -0.6798  1.7889 -1.2661
 4057TIP3   OH233585   0.962   1.010   3.033 -0.0177 -0.1917  0.3557
 4057TIP3    H133586   0.869   0.986   3.021  0.0404 -0.6020  0.6819
 4057TIP3    H233587   0.965   1.104   3.016  0.0384 -0.6403 -2.7841
 4058TIP3   OH233588   6.005   6.028   4.169 -0.6796  0.6622 -0.5815
 4058TIP3    H133589   5.946   6.081   4.223 -0.4991 -0.0377  0.3201
 4058TIP3    H233590   6.075   6.088   4.143 -1.7426  1.4996 -1.6394
 4059TIP3   OH233591   1.974   5.469  11.290 -0.6152 -0.7529  0.5234
 4059TIP3    H133592   1.997   5.544  11.235  0.3551 -0.0481  1.8317
 4059TIP3    H233593   1.927   5.507  11.365 -1.1861 -1.5954  0.6061
 4060TIP3   OH233594   1.328   3.040  12.273 -0.0057  0.0463 -0.1914
 4060TIP3    H133595   1.234   3.031  12.261  0.2971 -2.2501 -1.5482
 4060TIP3    H233596   1.338   3.096  12.350 -2.4660 -0.2010  0.3794
 4061TIP3   OH233597   2.558   0.473  15.369  0.8701 -0.7836  0.2451
 4061TIP3    H133598   2.610   0.484  15.289  0.7294 -0.5152  0.1874
 4061TIP3    H233599   2.622   0.483  15.440  1.2543 -2.4362  0.1642
 4062TIP3   OH233600   1.613   5.404   0.759  0.4221 -0.5330  0.0259
 4062TIP3    H133601   1.593   5.360   0.841  0.2807 -0.1087  0.2247
 4062TIP3    H233602   1.662   5.340   0.708 -0.4657 -1.1893 -0.0111
 4063TIP3   OH233603   4.230   1.381  13.532 -0.2872 -0.1286 -0.5029
 4063TIP3    H133604   4.316   1.377  13.573 -0.2590  2.8566 -0.0225
 4063TIP3    H233605   4.247   1.418  13.445 -1.0948  1.0841 -0.1762
 4064TIP3   OH233606   2.280   0.948  13.239 -0.5118  0.3069  0.6343
 4064TIP3    H133607   2.243   1.026  13.198  0.8641  0.4445 -0.4285
 4064TIP3    H233608   2.333   0.983  13.311  0.6453  0.4473 -0.2525
 4065TIP3   OH233609   2.649   3.982   3.691 -0.1616  0.5949  0.6965
 4065TIP3    H133610   2.583   3.967   3.758 -0.1788  1.3654  0.8599
 4065TIP3    H233611   2.721   4.024   3.737  0.5418 -0.4284  0.5643
 4066TIP3   OH233612   3.907   3.010   0.952 -0.2455 -0.1507 -0.2974
 4066TIP3    H133613   3.967   2.937   0.969  1.7986  1.2355 -1.1677
 4066TIP3    H233614   3.952   3.087   0.986 -2.2968  0.7822  0.4866
 4067TIP3   OH233615   3.330   3.692   0.632 -0.0214 -0.1838  0.1785
 4067TIP3    H133616   3.360   3.618   0.578  0.0811 -1.4723  1.8989
 4067TIP3    H233617   3.410   3.730   0.667 -0.1404 -0.4529  0.7660
 4068TIP3   OH233618   5.496   2.803   3.069 -0.4621 -0.1874  0.1668
 4068TIP3    H133619   5.549   2.728   3.041  1.1250  0.4629  1.2478
 4068TIP3    H233620   5.535   2.828   3.153 -0.9885  1.8244 -0.1571
 4069TIP3   OH233621   4.530   4.987  12.824  1.1038  0.3988  0.6073
 4069TIP3    H133622   4.553   4.903  12.783  1.5388  0.2522  1.1296
 4069TIP3    H233623   4.598   5.001  12.889  1.8956  1.9185 -0.4905
 4070TIP3   OH233624   5.597   0.053   5.482  0.2585  0.1342 -0.3141
 4070TIP3    H133625   5.652   0.030   5.557 -0.2373 -0.0043  0.0119
 4070TIP3    H233626   5.520  -0.003   5.491 -0.1950  0.7217 -0.4467
 4071TIP3   OH233627   3.229   0.160   2.805 -0.3919 -0.0612  0.2896
 4071TIP3    H133628   3.226   0.069   2.775 -2.1169 -0.7497  2.2907
 4071TIP3    H233629   3.205   0.212   2.729  0.7658 -1.2487 -0.9257
 4072TIP3   OH233630   3.550   0.241   2.417  0.3334  0.0728 -0.1177
 4072TIP3    H133631   3.502   0.300   2.475  0.5866  1.0896 -0.9115
 4072TIP3    H233632   3.483   0.188   2.376 -0.0801  1.0379 -0.7269
 4073TIP3   OH233633   4.729   6.450  13.948 -0.0540  0.0930 -0.3432
 4073TIP3    H133634   4.753   6.430  13.858  0.1662  1.2361 -0.5533
 4073TIP3    H233635   4.633   6.459  13.946 -0.2137 -1.3168 -0.1493
 4074TIP3   OH233636   5.158   0.542   0.873  0.0822  0.4912 -0.2139
 4074TIP3    H133637   5.215   0.476   0.834 -1.7341 -2.1060  1.2339
 4074TIP3    H233638   5.195   0.559   0.960 -0.2648  0.2708 -0.0209
 4075TIP3   OH233639   6.690   2.221   2.097  0.0123 -0.6042  0.4528
 4075TIP3    H133640   6.786   2.226   2.092  0.1747 -1.7628  1.8873
 4075TIP3    H233641   6.671   2.207   2.190 -1.5632 -0.3375  0.1989
 4076TIP3   OH233642   5.021   0.252   2.641  0.0865 -0.4875  0.2104
 4076TIP3    H133643   4.982   0.245   2.728  1.6152  0.7503  1.0620
 4076TIP3    H233644   5.109   0.216   2.652  0.4473  0.0860 -0.7131
 4077TIP3   OH233645   4.312   2.699  14.328 -0.5588  0.4424 -0.1574
 4077TIP3    H133646   4.291   2.628  14.267 -0.7975 -0.6259  1.1131
 4077TIP3    H233647   4.268   2.776  14.291 -1.7849 -0.4615 -0.6660
 4078TIP3   OH233648   0.634   2.665  15.512 -0.1432 -0.9317 -0.5477
 4078TIP3    H133649   0.651   2.736  15.574 -3.1276  0.0973 -0.7425
 4078TIP3    H233650   0.674   2.694  15.431  0.7588 -0.6322 -0.0107
 4079TIP3   OH233651   1.421   3.976  16.805 -0.0748 -0.4631  0.3214
 4079TIP3    H133652   1.463   3.960  16.721  1.2546 -1.4628  1.1210
 4079TIP3    H233653   1.408   3.889  16.842 -0.1686 -0.0255  1.3586
 4080TIP3   OH233654   6.129   5.643  12.491  0.0309  0.1397 -0.4710
 4080TIP3    H133655   6.198   5.689  12.443  1.0028 -0.1994  0.5457
 4080TIP3    H233656   6.176   5.581  12.547 -1.0930 -0.0160  0.3470
 4081TIP3   OH233657   0.533   4.376  17.294 -0.7590  0.2899  0.4365
 4081TIP3    H133658   0.536   4.324  17.374  0.8218 -0.2313  0.0616
 4081TIP3    H233659   0.523   4.312  17.224 -1.2071  0.6823  0.1321
 4082TIP3   OH233660   3.372   6.070   3.606  0.0653 -0.4155  0.1567
 4082TIP3    H133661   3.380   6.134   3.535 -2.5517 -0.2651 -0.0779
 4082TIP3    H233662   3.440   6.005   3.587  0.5550  0.5287 -1.5027
 4083TIP3   OH233663   4.768   0.865   6.170  0.1584  0.1603  0.3504
 4083TIP3    H133664   4.794   0.915   6.247 -0.9824 -1.0550  1.5871
 4083TIP3    H233665   4.768   0.774   6.199 -2.1540 -0.1878 -0.4957
 4084TIP3   OH233666   3.615   1.094  11.679 -0.2356 -0.3128 -0.1955
 4084TIP3    H133667   3.603   1.188  11.687 -0.2739 -0.3393  0.0799
 4084TIP3    H233668   3.546   1.056  11.734 -0.5372 -0.5108 -0.6921
 4085TIP3   OH233669   6.576   1.045   2.349  0.2334  0.0182  0.3032
 4085TIP3    H133670   6.529   1.045   2.265  0.6691  0.9650  0.0430
 4085TIP3    H233671   6.610   0.956   2.357 -0.1464 -0.1947 -0.3421
 4086TIP3   OH233672   3.723   3.462   4.631  0.2311 -0.0165 -0.5147
 4086TIP3    H133673   3.811   3.486   4.603  0.3574 -0.0670 -0.1734
 4086TIP3    H233674   3.728   3.367   4.646  0.2570  0.0583 -0.0201
 4087TIP3   OH233675   2.446   1.997  16.676 -0.4979  0.7025  0.1245
 4087TIP3    H133676   2.356   2.017  16.703 -1.4115 -0.3388 -1.9184
 4087TIP3    H233677   2.487   1.958  16.753 -1.7251  1.3772  1.1520
 4088TIP3   OH233678   0.160   4.206  10.799  0.0248  0.1723  0.4493
 4088TIP3    H133679   0.216   4.155  10.857  1.0096 -1.8300 -2.0691
 4088TIP3    H233680   0.213   4.218  10.720 -1.5244  2.1199 -0.3785
 4089TIP3   OH233681   3.516   2.973   2.348  0.4269 -0.8106  0.1861
 4089TIP3    H133682   3.455   3.047   2.341  1.7403  0.2306 -0.8851
 4089TIP3    H233683   3.459   2.897   2.361 -0.9500  0.4315  1.9735
 4090TIP3   OH233684   6.108   2.093  13.975 -0.1450 -0.1836  0.0840
 4090TIP3    H133685   6.082   2.030  13.907  0.1310 -0.5740  0.3307
 4090TIP3    H233686   6.197   2.066  13.998 -0.1209  0.1466  0.3703
 4091TIP3   OH233687   5.880   5.380  17.038 -0.0899  0.1652  0.4308
 4091TIP3    H133688   5.875   5.452  17.102  0.1305 -0.7495  1.5061
 4091TIP3    H233689   5.797   5.385  16.990  0.3675  1.7958 -0.2565
 4092TIP3   OH233690   0.517   4.883   3.828  0.0566  0.1920  0.0969
 4092TIP3    H133691   0.513   4.809   3.768 -1.1521  1.4632 -1.4627
 4092TIP3    H233692   0.454   4.862   3.897 -0.4301 -0.1263 -0.4438
 4093TIP3   OH233693   5.467   0.819  16.166 -0.0031 -0.7322 -0.5853
 4093TIP3    H133694   5.434   0.864  16.089 -2.6095  1.5818  1.6582
 4093TIP3    H233695   5.549   0.863  16.187  0.0219 -0.4556 -1.2505
 4094TIP3   OH233696   2.961   4.412  13.629 -0.0117 -0.3638 -0.3940
 4094TIP3    H133697   2.881   4.411  13.577 -0.7972 -0.8622  0.7796
 4094TIP3    H233698   3.027   4.372  13.572 -0.3355  0.9186 -1.7306
 4095TIP3   OH233699   2.437   4.540   1.029 -0.0548  0.5250  0.1878
 4095TIP3    H133700   2.442   4.552   1.124 -1.3754  1.9329  0.1141
 4095TIP3    H233701   2.516   4.491   1.007  0.3417  0.2840  1.9885
 4096TIP3   OH233702   4.288   2.488   1.108 -0.3366 -0.1237  0.2722
 4096TIP3    H133703   4.312   2.481   1.015 -2.1696  2.1936 -0.4916
 4096TIP3    H233704   4.194   2.468   1.109 -0.6363  1.1904  1.3588
 4097TIP3   OH233705   5.826   3.198   5.014 -0.0590  0.0902  0.4089
 4097TIP3    H133706   5.745   3.151   5.033 -0.0356  0.5737  1.8469
 4097TIP3    H233707   5.802   3.291   5.024 -0.1658  0.4932 -2.5762
 4098TIP3   OH233708   4.306   1.751   0.096 -0.0509 -0.2820 -0.2649
 4098TIP3    H133709   4.293   1.665   0.057  0.2759  0.5368 -2.3239
 4098TIP3    H233710   4.219   1.779   0.123 -0.4570 -0.5164 -1.2800
 4099TIP3   OH233711   1.327   5.094   6.009 -0.3744 -0.4950 -0.1542
 4099TIP3    H133712   1.373   5.101   6.092  0.8914 -2.1354 -0.6657
 4099TIP3    H233713   1.323   5.000   5.991  0.3670 -0.1569 -2.4653
 4100TIP3   OH233714   3.262   1.388   3.893 -0.0674 -0.1982  0.9046
 4100TIP3    H133715   3.291   1.363   3.805 -0.5916 -0.9756  0.9380
 4100TIP3    H233716   3.186   1.445   3.878  0.8396  1.0298  0.8360
 4101TIP3   OH233717   1.696   5.996  16.943  0.3135 -0.1828  0.3900
 4101TIP3    H133718   1.662   6.084  16.959  0.0498 -0.0988 -0.5622
 4101TIP3    H233719   1.647   5.941  17.004 -2.1348 -0.1654 -1.3944
 4102TIP3   OH233720   3.052   4.826  16.072  0.4464 -0.1433  0.2129
 4102TIP3    H133721   3.058   4.879  15.993 -0.8306  1.0808  0.8886
 4102TIP3    H233722   3.122   4.858  16.128  0.5439 -0.1255  0.0810
 4103TIP3   OH233723   2.220   3.272  12.898 -0.0806  0.2533  0.3399
 4103TIP3    H133724   2.292   3.304  12.845 -0.7920 -0.9240 -1.4357
 4103TIP3    H233725   2.142   3.315  12.862 -0.8275 -2.0332 -0.9819
 4104TIP3   OH233726   3.607   2.610   0.455  0.0344  0.2188 -0.2156
 4104TIP3    H133727   3.676   2.663   0.415  0.5015 -0.0972  0.1643
 4104TIP3    H233728   3.545   2.594   0.384  0.6966 -0.0730 -0.7357
 4105TIP3   OH233729   6.017   2.051   3.766  0.0226 -0.0075 -0.4898
 4105TIP3    H133730   6.032   2.025   3.675  0.2418  0.5533 -0.6177
 4105TIP3    H233731   5.925   2.031   3.781  0.4627 -2.0253 -0.1844
 4106TIP3   OH233732   0.449   2.121   4.608  0.0100 -0.6447  0.3030
 4106TIP3    H133733   0.470   2.042   4.558  1.7515 -0.3802  0.5647
 4106TIP3    H233734   0.412   2.181   4.543  1.7802 -0.4914 -0.6288
 4107TIP3   OH233735   1.016   2.672   3.363  0.0656 -0.8363 -0.4451
 4107TIP3    H133736   1.070   2.604   3.403 -0.9702 -1.1198  0.5352
 4107TIP3    H233737   0.939   2.679   3.421 -0.0744  0.8404 -0.7695
 4108TIP3   OH233738   4.091   3.889  15.413 -0.2573 -0.5345 -0.0644
 4108TIP3    H133739   4.050   3.898  15.327  0.0683 -1.0785 -0.2788
 4108TIP3    H233740   4.145   3.968  15.422  0.5038 -0.9637 -0.7990
 4109TIP3   OH233741   3.601   2.524   0.720  0.1294  0.1464  0.3697
 4109TIP3    H133742   3.611   2.544   0.627 -1.4852 -1.3144 -0.1809
 4109TIP3    H233743   3.523   2.573   0.747 -0.1526 -0.4316  0.6178
 4110TIP3   OH233744   0.604   4.851  12.544  0.1503  0.4411  0.3617
 4110TIP3    H133745   0.514   4.825  12.522 -0.1919  0.7768  1.3213
 4110TIP3    H233746   0.650   4.768  12.553 -0.5333  0.1867  1.7394
 4111TIP3   OH233747   0.195   5.030   5.218 -0.3720 -0.1570  0.1808
 4111TIP3    H133748   0.152   5.109   5.185 -0.4508 -1.0687 -2.0485
 4111TIP3    H233749   0.129   4.988   5.274 -2.0660 -0.9197 -2.2402
 4112TIP3   OH233750   0.240   4.862  13.495  0.6970 -0.1662 -0.1934
 4112TIP3    H133751   0.235   4.772  13.462 -0.1640 -0.7255  1.3465
 4112TIP3    H233752   0.257   4.852  13.589 -1.4783  1.1947  0.4165
 4113TIP3   OH233753   5.246   4.806  12.139 -0.1118 -0.6067  0.1909
 4113TIP3    H133754   5.254   4.872  12.207  0.8269  1.0956 -1.4871
 4113TIP3    H233755   5.280   4.726  12.179 -0.3278  0.1456  1.9458
 4114TIP3   OH233756   4.712   4.775   5.106 -0.0432  0.3516 -0.0486
 4114TIP3    H133757   4.742   4.839   5.170  0.1924 -0.6296  0.8543
 4114TIP3    H233758   4.774   4.702   5.112 -2.1656 -1.4872  1.4688
 4115TIP3   OH233759   3.573   2.042   1.103 -0.3334 -0.1490 -0.0279
 4115TIP3    H133760   3.556   2.134   1.123 -0.2671 -0.0878 -0.2597
 4115TIP3    H233761   3.486   2.006   1.083 -0.2310  0.1124 -0.9886
 4116TIP3   OH233762   0.605   1.107  14.397 -0.0850 -0.3223  0.0688
 4116TIP3    H133763   0.632   1.039  14.336 -3.1020 -0.1923 -1.6105
 4116TIP3    H233764   0.521   1.138  14.362 -0.6819  1.5870  2.9019
 4117TIP3   OH233765   2.647   2.724   1.260 -0.0649 -0.3917  0.5190
 4117TIP3    H133766   2.683   2.636   1.255  0.5966 -0.1164  0.3591
 4117TIP3    H233767   2.567   2.714   1.312  0.4683 -0.9431  1.2592
 4118TIP3   OH233768   2.141   1.888   1.740 -0.2733 -0.4449  0.1712
 4118TIP3    H133769   2.160   1.830   1.814 -2.3256 -0.1396  1.0310
 4118TIP3    H233770   2.136   1.830   1.664  0.2608 -1.0149  0.5638
 4119TIP3   OH233771   0.881   4.040   1.667  0.2405  0.1892 -0.1904
 4119TIP3    H133772   0.976   4.052   1.665  0.4571  0.5126  3.8065
 4119TIP3    H233773   0.847   4.120   1.628  1.7247  1.7015  1.3594
 4120TIP3   OH233774   1.666   3.908   4.345 -0.1670  0.5552 -0.1683
 4120TIP3    H133775   1.692   3.925   4.436 -0.3055  0.8717 -0.1850
 4120TIP3    H233776   1.684   3.815   4.332 -0.0695  0.5257  0.1588
 4121TIP3   OH233777   2.064   5.995   5.870 -0.6527 -0.6131  0.4026
 4121TIP3    H133778   2.123   6.005   5.944 -1.0699  0.3209  0.6343
 4121TIP3    H233779   2.042   6.085   5.845 -1.4109 -0.9304 -0.1292
 4122TIP3   OH233780   6.498   4.656   2.402  0.5891  0.4092  0.0367
 4122TIP3    H133781   6.443   4.731   2.428  0.6263  0.2241  0.6741
 4122TIP3    H233782   6.491   4.653   2.307 -0.4543  0.4364  0.0998
 4123TIP3   OH233783   1.524   0.991  12.743 -0.7788  0.4115  0.4252
 4123TIP3    H133784   1.527   0.901  12.710 -0.0577  0.3257  0.7098
 4123TIP3    H233785   1.471   0.986  12.821 -0.2617  0.1155  0.7685
 4124TIP3   OH233786   4.624   4.669   3.162  0.2769 -0.0108  0.3216
 4124TIP3    H133787   4.635   4.586   3.209  0.0375  0.3253  0.9920
 4124TIP3    H233788   4.709   4.685   3.121  0.5816 -0.1821  0.8713
 4125TIP3   OH233789   5.676   4.707  11.704 -0.0606  0.2026 -0.0670
 4125TIP3    H133790   5.614   4.774  11.732  0.9255  1.0554  0.1459
 4125TIP3    H233791   5.695   4.656  11.784 -0.5413 -0.1225 -0.1541
 4126TIP3   OH233792   5.231   2.492  15.182  0.2463  0.0137  0.3377
 4126TIP3    H133793   5.150   2.441  15.178 -0.1078  0.5913 -0.0464
 4126TIP3    H233794   5.285   2.457  15.111  0.9507 -1.3732  1.5140
 4127TIP3   OH233795   4.246   5.090   1.193  0.0659 -0.2645  0.4751
 4127TIP3    H133796   4.307   5.075   1.121  0.0801  1.3093  0.1283
 4127TIP3    H233797   4.230   5.003   1.229  0.6980 -0.9809 -0.9021
 4128TIP3   OH233798   4.167   3.515   6.429 -0.4246  0.0778 -0.2291
 4128TIP3    H133799   4.247   3.465   6.416  0.2293  0.9602  0.2363
 4128TIP3    H233800   4.100   3.468   6.380  0.5677 -0.1931 -1.3545
 4129TIP3   OH233801   4.245   3.495   2.018 -0.0233 -0.1591  0.1819
 4129TIP3    H133802   4.292   3.414   2.038 -1.0471 -0.5909  0.9538
 4129TIP3    H233803   4.290   3.561   2.071  1.1215 -0.1134 -0.8239
 4130TIP3   OH233804   0.488   2.076  12.536  0.3035  0.0185  0.1384
 4130TIP3    H133805   0.488   1.989  12.576 -1.5857 -0.7056 -1.2741
 4130TIP3    H233806   0.395   2.097  12.525  0.7265  0.7939 -2.5052
 4131TIP3   OH233807   6.356   4.997   4.117 -0.3359 -0.4635 -0.3157
 4131TIP3    H133808   6.410   5.066   4.154 -1.4261 -1.3386  3.2157
 4131TIP3    H233809   6.287   5.044   4.069  0.0777  0.8272  0.3152
 4132TIP3   OH233810   2.613   5.723   3.031  0.1672 -0.3688  0.0709
 4132TIP3    H133811   2.656   5.637   3.038  0.2083 -0.3492  0.0612
 4132TIP3    H233812   2.547   5.711   2.962  1.8358  0.2691 -1.7445
 4133TIP3   OH233813   4.655   3.517  14.820  0.0591 -0.4067  0.9219
 4133TIP3    H133814   4.595   3.563  14.761  2.2518  0.9686 -0.3824
 4133TIP3    H233815   4.631   3.547  14.907  0.2963  1.9267  0.2360
 4134TIP3   OH233816   4.706   6.464   0.509 -0.4450 -0.0240 -0.0728
 4134TIP3    H133817   4.731   6.497   0.596  1.2167  0.3977 -0.6825
 4134TIP3    H233818   4.719   6.369   0.515  1.6888  0.2046 -0.4536
 4135TIP3   OH233819   0.659   6.122  16.724  0.1856 -0.0681  0.2843
 4135TIP3    H133820   0.651   6.181  16.799 -0.7775  1.0390 -0.6435
 4135TIP3    H233821   0.739   6.150  16.680 -0.2213  0.5060 -0.1034
 4136TIP3   OH233822   1.344   2.875  14.204 -0.1792  0.2544 -0.2596
 4136TIP3    H133823   1.318   2.811  14.138  0.7993  0.3001 -0.7112
 4136TIP3    H233824   1.338   2.960  14.160  0.2818  0.3019 -0.2384
 4137TIP3   OH233825   6.102   1.016  14.862 -0.5787 -0.4813  0.1543
 4137TIP3    H133826   6.051   1.095  14.882  0.5493  0.0340  1.1575
 4137TIP3    H233827   6.120   0.976  14.948  2.1025  0.3052  0.0766
 4138TIP3   OH233828   1.763   3.821  15.426 -0.8591  0.6380  0.6214
 4138TIP3    H133829   1.834   3.885  15.431 -0.5871  0.3952  0.0369
 4138TIP3    H233830   1.684   3.872  15.445 -0.5223  0.8825  1.4092
 4139TIP3   OH233831   4.878   5.406  15.867  0.0074  0.1193 -0.2424
 4139TIP3    H133832   4.964   5.397  15.827 -0.6374 -0.7832 -1.5237
 4139TIP3    H233833   4.882   5.487  15.917  1.6619 -0.0343 -0.0763
 4140TIP3   OH233834   5.996   1.253   4.580 -0.0723  0.1318 -0.0917
 4140TIP3    H133835   6.072   1.312   4.584  0.6444 -0.8209  1.0316
 4140TIP3    H233836   5.996   1.209   4.665 -1.3583 -0.5544 -0.4285
 4141TIP3   OH233837   1.934   5.335   3.184 -0.0818 -0.9023 -0.3694
 4141TIP3    H133838   1.982   5.347   3.102  0.4382  1.3648  0.2018
 4141TIP3    H233839   1.999   5.302   3.246  0.3413  0.3639 -0.0971
 4142TIP3   OH233840   1.289   5.815   4.498  0.7093 -0.6969 -0.1102
 4142TIP3    H133841   1.318   5.740   4.549  1.8616 -0.1496  0.0803
 4142TIP3    H233842   1.237   5.777   4.427 -1.1324 -1.4578  1.5480
 4143TIP3   OH233843   1.998   4.133   1.553 -0.1853  0.4039  0.5979
 4143TIP3    H133844   1.972   4.052   1.596 -1.1189  0.0236 -0.6113
 4143TIP3    H233845   2.070   4.109   1.496 -0.0908  0.5417  0.6582
 4144TIP3   OH233846   1.000   2.561  16.688 -0.1585 -0.2077 -0.2412
 4144TIP3    H133847   0.924   2.598  16.732  0.4795 -0.2440  0.9585
 4144TIP3    H233848   0.964   2.497  16.627 -1.2309  1.7481 -1.7449
 4145TIP3   OH233849   4.462   1.792  12.551 -0.0191  0.8438 -0.5884
 4145TIP3    H133850   4.440   1.873  12.504  0.2900  0.4693 -1.3923
 4145TIP3    H233851   4.486   1.822  12.639  2.0036  1.8785 -1.4096
 4146TIP3   OH233852   0.602   2.767  13.278  0.0776 -0.0956 -0.3252
 4146TIP3    H133853   0.659   2.845  13.275 -0.2024  0.0686 -1.6522
 4146TIP3    H233854   0.568   2.767  13.368  0.4829  1.0207 -0.1499
 4147TIP3   OH233855   3.953   3.274   5.386 -0.5623 -0.2630  0.4417
 4147TIP3    H133856   3.973   3.184   5.361 -0.6184 -0.5818  1.5277
 4147TIP3    H233857   3.890   3.266   5.457 -0.9443  0.6469  0.2125
 4148TIP3   OH233858   1.784   5.716   0.843  0.1244  0.5535 -0.1138
 4148TIP3    H133859   1.869   5.760   0.843  0.9722 -1.0141 -0.9337
 4148TIP3    H233860   1.751   5.727   0.754  0.0882  0.0317 -0.1676
 4149TIP3   OH233861   2.358   3.223   6.761  0.6768  0.2894  0.1720
 4149TIP3    H133862   2.450   3.197   6.755  0.4048 -0.6915  0.0415
 4149TIP3    H233863   2.310   3.144   6.737 -0.1978  0.8692 -0.0188
 4150TIP3   OH233864   6.444   6.744  14.621 -0.3390  0.2200  0.1074
 4150TIP3    H133865   6.399   6.661  14.639  0.7094 -0.6250 -1.0386
 4150TIP3    H233866   6.397   6.808  14.674 -0.9374 -1.1667  1.3365
 4151TIP3   OH233867   1.969   3.800   4.328 -0.5133  0.0036  0.0325
 4151TIP3    H133868   2.005   3.718   4.294  0.4646  0.9704 -1.3614
 4151TIP3    H233869   1.889   3.773   4.373 -1.2992 -1.5307 -2.0670
 4152TIP3   OH233870   4.678   0.997  13.912  0.3097 -0.3512  1.2037
 4152TIP3    H133871   4.644   1.031  13.829 -0.1661 -0.3960  1.3776
 4152TIP3    H233872   4.773   1.009  13.905  0.2838 -0.4413  0.6161
 4153TIP3   OH233873   1.491   4.851  14.616 -0.5922 -0.0110  0.0385
 4153TIP3    H133874   1.560   4.917  14.620  0.3631 -0.9410 -0.6368
 4153TIP3    H233875   1.476   4.838  14.523  0.5329 -2.0408  0.0917
 4154TIP3   OH233876   3.220   4.176  12.382 -0.4257  0.3707 -0.0903
 4154TIP3    H133877   3.285   4.242  12.358 -0.2787  0.6161  0.9373
 4154TIP3    H233878   3.140   4.226  12.400 -0.9161  0.0736 -1.3208
 4155TIP3   OH233879   0.241   5.031   6.043 -0.2720 -0.3198  0.4727
 4155TIP3    H133880   0.174   4.973   6.079 -0.1623 -1.9138 -1.6741
 4155TIP3    H233881   0.233   5.112   6.094 -2.7377 -1.0076  1.3201
 4156TIP3   OH233882   0.728   2.685   2.816 -0.5167  0.0266 -0.0431
 4156TIP3    H133883   0.653   2.640   2.856 -0.6883 -1.5618 -2.0035
 4156TIP3    H233884   0.698   2.706   2.728  0.6522  1.3022 -0.1650
 4157TIP3   OH233885   6.519   2.551   1.798 -0.0872 -0.3526  0.4729
 4157TIP3    H133886   6.531   2.457   1.782  1.4065 -0.2126  0.5939
 4157TIP3    H233887   6.558   2.565   1.884 -0.4577  0.3535  0.5273
 4158TIP3   OH233888   0.877   4.565   6.253  0.0066  0.2714  0.2125
 4158TIP3    H133889   0.897   4.477   6.285  0.0605  0.2062 -0.0009
 4158TIP3    H233890   0.830   4.606   6.325 -2.3186 -0.7762 -0.6290
 4159TIP3   OH233891   2.349   2.342  12.260  0.2512 -0.0663  0.1006
 4159TIP3    H133892   2.256   2.322  12.275  0.7530 -1.5805  1.4744
 4159TIP3    H233893   2.395   2.299  12.332  2.0776  0.2482 -0.8144
 4160TIP3   OH233894   6.442   6.619  16.735 -0.0847 -0.9382 -0.0148
 4160TIP3    H133895   6.492   6.626  16.653 -0.3514 -1.2736 -0.2060
 4160TIP3    H233896   6.461   6.701  16.781 -1.2573  0.0167 -1.1528
 4161TIP3   OH233897   6.530   4.277   0.074 -0.5268 -0.2382  0.0493
 4161TIP3    H133898   6.503   4.355   0.024 -0.5358 -1.4145 -1.8575
 4161TIP3    H233899   6.615   4.300   0.110 -1.6130  1.5722  1.7003
 4162TIP3   OH233900   1.189   1.406  13.835  0.4737  0.5679 -0.1141
 4162TIP3    H133901   1.112   1.462  13.825  0.0124 -0.3580 -2.0755
 4162TIP3    H233902   1.248   1.433  13.765  1.4444  0.4483  0.6369
 4163TIP3   OH233903   6.239   6.010  13.475 -0.0145  0.1348  0.1022
 4163TIP3    H133904   6.206   6.064  13.548  1.2674 -0.9746  1.5736
 4163TIP3    H233905   6.292   6.070  13.423 -1.0884  0.9920 -0.0318
 4164TIP3   OH233906   3.486   5.738  10.213 -0.0373 -0.3586 -0.0993
 4164TIP3    H133907   3.396   5.745  10.245 -0.5404 -0.0588 -1.5275
 4164TIP3    H233908   3.497   5.645  10.192 -0.7093 -0.0956 -1.7851
 4165TIP3   OH233909   2.158   5.876  15.725  0.1586 -0.2547  0.0448
 4165TIP3    H133910   2.095   5.834  15.784  0.9110 -1.4660  0.0235
 4165TIP3    H233911   2.168   5.814  15.653  0.9774  0.1660 -0.2184
 4166TIP3   OH233912   0.830   1.030  14.102  0.0603  0.3762  0.1088
 4166TIP3    H133913   0.819   0.966  14.172 -1.6038 -0.6325 -0.9840
 4166TIP3    H233914   0.906   0.999  14.052 -0.3424 -0.4072 -0.0370
 4167TIP3   OH233915   4.082   0.755  16.846 -0.6514 -0.0509  0.1900
 4167TIP3    H133916   4.031   0.819  16.895  0.7594  0.4989  0.9800
 4167TIP3    H233917   4.068   0.673  16.893 -1.8713 -0.2058 -0.3996
 4168TIP3   OH233918   6.192   6.590   4.981  0.7800 -0.4663 -0.3019
 4168TIP3    H133919   6.099   6.609   4.974  0.7147 -1.2103 -1.5723
 4168TIP3    H233920   6.203   6.555   5.070  0.0203  0.4095  0.1580
 4169TIP3   OH233921   6.637   0.943   0.434  0.1126  0.3103  0.7398
 4169TIP3    H133922   6.574   0.998   0.480 -1.3566 -1.2248  0.6387
 4169TIP3    H233923   6.711   0.936   0.494  0.9701  3.4125  0.2313
 4170TIP3   OH233924   5.616   2.921  14.527  0.3274  0.4330  0.2049
 4170TIP3    H133925   5.623   3.008  14.488  2.1954  1.3232  2.2771
 4170TIP3    H233926   5.673   2.866  14.473 -1.1423  0.3700 -1.3329
 4171TIP3   OH233927   2.841   4.032   3.369  0.2355  0.0931 -0.2068
 4171TIP3    H133928   2.872   4.104   3.424 -0.1590  0.6144 -0.6528
 4171TIP3    H233929   2.854   3.954   3.422  1.9146  0.3284 -0.2126
 4172TIP3   OH233930   5.014   1.477  17.382  0.0313  0.0579  0.0185
 4172TIP3    H133931   5.038   1.458  17.291  1.8333 -1.6411  0.7691
 4172TIP3    H233932   4.988   1.569  17.381 -1.2644 -0.2369 -2.4215
 4173TIP3   OH233933   1.487   0.473   4.742 -0.1538  0.3275  0.1004
 4173TIP3    H133934   1.501   0.381   4.765 -0.7777  0.1918 -0.0296
 4173TIP3    H233935   1.476   0.518   4.826 -0.0305  0.2472  0.1590
 4174TIP3   OH233936   5.229   5.266   0.015 -1.3329 -0.6157  1.1091
 4174TIP3    H133937   5.247   5.319   0.093 -0.6186  1.6213 -0.4823
 4174TIP3    H233938   5.161   5.313  -0.032  0.0478 -0.4603 -0.8844
 4175TIP3   OH233939   2.426   4.712   6.542  0.2321 -0.1754 -0.3072
 4175TIP3    H133940   2.352   4.660   6.573  0.1683 -1.6598 -2.7384
 4175TIP3    H233941   2.395   4.802   6.543 -1.6238 -0.7656 -1.2352
 4176TIP3   OH233942   3.806   1.823   3.426 -0.3867  0.2992  0.4275
 4176TIP3    H133943   3.775   1.778   3.504  0.9951  1.0825  1.4808
 4176TIP3    H233944   3.779   1.767   3.353 -0.0058 -1.4718  1.5927
 4177TIP3   OH233945   0.694   6.456  16.915 -0.1093 -0.0135  0.1482
 4177TIP3    H133946   0.663   6.368  16.937 -1.1897  0.2373 -0.2782
 4177TIP3    H233947   0.773   6.467  16.967  0.1040 -1.2716  0.1354
 4178TIP3   OH233948   1.170   4.995   2.569 -0.2263 -0.0698 -0.3787
 4178TIP3    H133949   1.196   5.081   2.603 -1.6153 -0.0817  0.8110
 4178TIP3    H233950   1.186   4.935   2.641 -0.5262 -0.5875 -0.7393
 4179TIP3   OH233951   3.718   0.166  16.033  0.3348 -0.0511  0.1443
 4179TIP3    H133952   3.667   0.246  16.016 -0.2280 -0.6459 -1.0729
 4179TIP3    H233953   3.659   0.110  16.082 -0.2552 -0.7701 -1.3302
 4180TIP3   OH233954   0.480   1.116   0.940 -0.3702  0.3679 -0.4905
 4180TIP3    H133955   0.518   1.200   0.915  0.0498  0.9007  1.7392
 4180TIP3    H233956   0.540   1.051   0.903 -1.0010  0.9706 -2.7279
 4181TIP3   OH233957   0.131   3.610  13.101 -0.0853  0.4046  0.5047
 4181TIP3    H133958   0.168   3.563  13.176  1.1917  1.6786  0.7003
 4181TIP3    H233959   0.095   3.691  13.139  1.2720  1.4315 -0.3365
 4182TIP3   OH233960   2.297   2.371  11.082  0.4072  0.0106  0.0583
 4182TIP3    H133961   2.219   2.388  11.135  0.3464 -0.7933  0.2466
 4182TIP3    H233962   2.361   2.336  11.144  0.2357 -1.2305 -0.4191
 4183TIP3   OH233963   6.175   5.688  17.054  0.3043 -0.1504  0.2424
 4183TIP3    H133964   6.202   5.598  17.035  0.7181  0.0225 -0.0216
 4183TIP3    H233965   6.102   5.679  17.115 -0.7691 -0.7122 -1.0699
 4184TIP3   OH233966   1.957   5.353  12.962  0.1952 -0.0556  0.2429
 4184TIP3    H133967   1.981   5.407  12.887  0.8715  1.4288  1.4539
 4184TIP3    H233968   1.861   5.353  12.962  0.1920  0.1854 -0.4459
 4185TIP3   OH233969   3.090   5.680   5.752  0.7566  0.0644 -0.7590
 4185TIP3    H133970   3.118   5.617   5.818  0.2062 -0.8430 -1.3667
 4185TIP3    H233971   3.053   5.627   5.682  1.0520  1.0234 -1.6747
 4186TIP3   OH233972   0.342   5.980   5.542  0.2158  0.5162  0.2333
 4186TIP3    H133973   0.367   6.072   5.532  1.8784  0.0080 -0.8358
 4186TIP3    H233974   0.421   5.938   5.577 -0.9469 -0.3097  1.9982
 4187TIP3   OH233975   5.350   6.023  14.201 -0.1826  0.0812 -0.1898
 4187TIP3    H133976   5.438   6.012  14.164  0.6992  2.2498  1.1017
 4187TIP3    H233977   5.330   5.938  14.240  1.6731 -0.2608  0.1171
 4188TIP3   OH233978   5.476   5.001  13.617  0.2751  0.0367  0.3571
 4188TIP3    H133979   5.452   5.087  13.584  0.5820 -0.2123 -0.5248
 4188TIP3    H233980   5.567   5.012  13.647  0.1530  0.1378  0.7003
 4189TIP3   OH233981   3.862   4.124   5.779 -0.5727 -0.4927  0.2879
 4189TIP3    H133982   3.945   4.075   5.781 -0.4243 -0.2254  1.3913
 4189TIP3    H233983   3.882   4.203   5.729 -0.4766 -0.9608 -0.4265
 4190TIP3   OH233984   5.502   4.145  14.867  0.2239  0.2204  0.2279
 4190TIP3    H133985   5.494   4.050  14.874  0.5787  0.1500 -0.2817
 4190TIP3    H233986   5.504   4.162  14.773  0.0196  0.7455  0.3144
 4191TIP3   OH233987   5.569   6.219   4.649 -0.4471  0.6566  0.1810
 4191TIP3    H133988   5.551   6.138   4.601  0.7045  0.4120  0.1258
 4191TIP3    H233989   5.571   6.287   4.582  1.5626  0.2547 -0.2438
 4192TIP3   OH233990   5.330   2.119   3.091  0.4802  0.6171  0.3630
 4192TIP3    H133991   5.372   2.101   3.175  1.6219 -1.4330 -0.5923
 4192TIP3    H233992   5.401   2.148   3.034 -0.2552  1.8086  0.0170
 4193TIP3   OH233993   0.620   4.872  11.695 -0.1236  0.0227  0.4123
 4193TIP3    H133994   0.632   4.956  11.651 -0.3624 -0.5086 -0.7155
 4193TIP3    H233995   0.693   4.818  11.664  1.1579  0.3640  2.6082
 4194TIP3   OH233996   2.836   5.086  12.856 -0.4845  0.2013  0.1442
 4194TIP3    H133997   2.839   5.124  12.944 -0.7777  1.6499 -0.4385
 4194TIP3    H233998   2.751   5.113  12.821  0.2429  0.9612 -1.1230
 4195TIP3   OH233999   4.232   3.881  14.745  0.4589 -0.4173  0.9039
 4195TIP3    H134000   4.175   3.840  14.680 -0.5967  0.6233  1.1243
 4195TIP3    H234001   4.253   3.967  14.707  1.3396 -0.5272  1.1276
 4196TIP3   OH234002   5.233   3.377  15.074 -0.1011  0.4822  0.5768
 4196TIP3    H134003   5.329   3.382  15.080  0.2362 -2.4132 -0.8046
 4196TIP3    H234004   5.214   3.392  14.982 -0.6320 -1.8204  0.2465
 4197TIP3   OH234005   1.167   0.195  14.096 -0.0535  0.3918  0.4895
 4197TIP3    H134006   1.235   0.205  14.030 -1.8251 -0.4688 -1.5926
 4197TIP3    H234007   1.106   0.267  14.080  0.2058  1.0444  2.1939
 4198TIP3   OH234008   0.194   4.039  16.161  0.6047 -0.0982  0.4176
 4198TIP3    H134009   0.121   4.099  16.149  0.6685 -0.3033 -1.0930
 4198TIP3    H234010   0.171   3.962  16.109  1.8842 -0.1786 -0.0493
 4199TIP3   OH234011   4.638   6.329  15.905 -0.1897  0.4625  0.3178
 4199TIP3    H134012   4.567   6.390  15.926 -0.8652  0.3245 -1.3968
 4199TIP3    H234013   4.616   6.296  15.818  0.1752 -2.2252  1.1583
 4200TIP3   OH234014   3.296   4.584  11.269  0.4861  0.1948  0.3555
 4200TIP3    H134015   3.371   4.600  11.212 -2.4444  2.8595 -3.2115
 4200TIP3    H234016   3.268   4.495  11.247  0.5879  0.4592 -0.9299
 4201TIP3   OH234017   4.997   5.236   3.173 -0.0044 -0.1042 -0.3256
 4201TIP3    H134018   5.038   5.253   3.088 -2.4456 -0.4126 -1.6401
 4201TIP3    H234019   5.061   5.181   3.219  1.2953 -0.1017 -2.0182
 4202TIP3   OH234020   2.059   1.396   1.012  0.5030  0.3441 -0.2719
 4202TIP3    H134021   2.079   1.313   1.055  0.9333  0.8305  0.4840
 4202TIP3    H234022   1.975   1.423   1.048 -1.0961 -1.1272 -2.6007
 4203TIP3   OH234023   1.014   3.312   0.266  0.0776  0.1920 -0.1811
 4203TIP3    H134024   1.088   3.252   0.270 -1.3263 -1.5570  1.4818
 4203TIP3    H234025   1.016   3.359   0.349 -1.0541 -0.4040  0.2076
 4204TIP3   OH234026   5.387   0.720  14.445  0.2094 -0.3231  0.4546
 4204TIP3    H134027   5.363   0.811  14.463  0.8180  0.0004 -0.3270
 4204TIP3    H234028   5.305   0.679  14.417 -0.1021 -0.0624  0.9599
 4205TIP3   OH234029   1.187   2.523   3.543 -0.4044  0.1637 -0.1391
 4205TIP3    H134030   1.278   2.504   3.519 -0.7678 -0.2635 -1.2224
 4205TIP3    H234031   1.192   2.606   3.591  0.5912 -0.0176  0.0864
 4206TIP3   OH234032   6.278   0.357  12.840  0.3698 -0.1074 -0.1570
 4206TIP3    H134033   6.201   0.319  12.883 -0.0471  0.2231 -0.6074
 4206TIP3    H234034   6.344   0.361  12.909  0.7166 -2.4269 -0.2890
 4207TIP3   OH234035   3.385   3.377   5.789  0.2915  0.1045  0.3434
 4207TIP3    H134036   3.409   3.336   5.872 -1.3302 -1.2335  0.2053
 4207TIP3    H234037   3.324   3.446   5.814 -0.8535 -0.8401  0.2464
 4208TIP3   OH234038   4.234   4.032   2.356 -0.1167  0.3628 -0.2883
 4208TIP3    H134039   4.214   4.022   2.263 -0.4271  2.0822 -0.4516
 4208TIP3    H234040   4.165   4.090   2.389  1.5600  2.1061  0.3439
 4209TIP3   OH234041   1.745   2.607   3.805 -0.0855  0.2944  0.0421
 4209TIP3    H134042   1.675   2.642   3.749  0.6412  2.6490  0.4968
 4209TIP3    H234043   1.729   2.647   3.891 -0.7582 -2.6827  1.4294
 4210TIP3   OH234044   2.550   3.548  15.921  0.2156 -1.0409  0.2547
 4210TIP3    H134045   2.511   3.486  15.859  0.3189 -0.2764 -0.6021
 4210TIP3    H234046   2.534   3.510  16.007 -0.4961 -1.8115 -0.2069
 4211TIP3   OH234047   1.867   5.264  16.981 -0.0142 -0.0437  0.0064
 4211TIP3    H134048   1.812   5.188  16.960 -1.3833  0.7555  0.5295
 4211TIP3    H234049   1.826   5.337  16.933  2.1851  0.1262 -1.7511
 4212TIP3   OH234050   5.136   2.450   5.626  0.3763 -0.8859  0.4385
 4212TIP3    H134051   5.222   2.440   5.584  0.4423  0.3197  0.2372
 4212TIP3    H234052   5.140   2.536   5.668 -0.8088 -0.7269  0.2642
 4213TIP3   OH234053   2.613   2.232  11.774 -0.3438 -0.1172  0.3288
 4213TIP3    H134054   2.526   2.253  11.740 -0.7117 -0.1420  1.2387
 4213TIP3    H234055   2.600   2.221  11.868  0.3005 -1.9577  0.2299
 4214TIP3   OH234056   4.753   1.517  16.905  0.1847 -0.6063 -0.0425
 4214TIP3    H134057   4.816   1.505  16.834  0.8554  2.1084 -0.0009
 4214TIP3    H234058   4.800   1.489  16.984  1.1659  0.7454 -0.1069
 4215TIP3   OH234059   5.758   6.057  17.086  0.2296 -0.0861 -0.0942
 4215TIP3    H134060   5.811   6.055  17.006 -1.2263 -0.3009 -1.0743
 4215TIP3    H234061   5.803   5.997  17.146  1.0344 -0.3335 -0.9300
 4216TIP3   OH234062   4.683   6.577   4.254 -0.7000 -0.1592 -0.3685
 4216TIP3    H134063   4.683   6.484   4.276 -0.3170  0.0385  0.5003
 4216TIP3    H234064   4.616   6.615   4.310 -0.3501  0.2021 -0.1865
 4217TIP3   OH234065   1.939   0.886   0.100  0.0833  0.0300 -0.0181
 4217TIP3    H134066   1.991   0.826   0.153  2.1017  2.6278  1.1562
 4217TIP3    H234067   1.860   0.901   0.151 -0.8669 -2.1686 -0.7269
 4218TIP3   OH234068   5.871   4.951   3.666 -0.0619  0.2726 -0.0055
 4218TIP3    H134069   5.884   4.904   3.748 -0.0151 -2.3649 -1.4433
 4218TIP3    H234070   5.934   4.912   3.606 -2.8694 -0.8554 -2.4464
 4219TIP3   OH234071   0.671   4.546  12.306 -0.1131 -0.5611 -0.2720
 4219TIP3    H134072   0.720   4.616  12.264  0.0735 -0.0144  0.8288
 4219TIP3    H234073   0.584   4.551  12.266 -0.1910  0.4913 -0.0011
 4220TIP3   OH234074   2.186   3.804  15.428 -0.3538  0.4002  0.2574
 4220TIP3    H134075   2.123   3.744  15.470 -1.9269  0.3130 -1.9908
 4220TIP3    H234076   2.193   3.878  15.488 -2.0609  0.0602  0.9514
 4221TIP3   OH234077   1.920   2.089   1.907 -0.3330 -0.3811 -0.3128
 4221TIP3    H134078   1.933   2.180   1.930 -0.8542 -0.4577  0.3116
 4221TIP3    H234079   2.008   2.054   1.897  0.0066 -0.5526  2.4429
 4222TIP3   OH234080   2.413   5.562   0.436 -0.5446 -0.5434 -0.2908
 4222TIP3    H134081   2.353   5.498   0.475 -2.8767  1.0193 -1.0589
 4222TIP3    H234082   2.360   5.641   0.427  1.2419  0.5228 -2.3794
 4223TIP3   OH234083   1.806   4.311   1.659 -0.0915  0.5240  0.0860
 4223TIP3    H134084   1.713   4.290   1.668 -0.2725  0.6609 -1.2527
 4223TIP3    H234085   1.846   4.229   1.629  0.4974  0.0462  2.0291
 4224TIP3   OH234086   3.547   2.995  11.592 -0.0825 -0.2578 -0.3393
 4224TIP3    H134087   3.535   2.947  11.674 -1.0696 -1.0967 -0.9533
 4224TIP3    H234088   3.626   2.957  11.554 -0.0078 -0.3445 -0.1054
 4225TIP3   OH234089   2.642   1.885   5.864 -0.4486  0.8406 -0.5875
 4225TIP3    H134090   2.643   1.819   5.795 -0.9127 -1.7616  1.7132
 4225TIP3    H234091   2.552   1.885   5.897  0.2329  0.4111  1.4040
 4226TIP3   OH234092   1.457   2.976   6.423  0.2275  0.2316  0.7855
 4226TIP3    H134093   1.424   3.020   6.345 -1.7408 -0.0443  1.4012
 4226TIP3    H234094   1.478   3.046   6.484  0.0667  0.4045  0.6418
 4227TIP3   OH234095   4.373   3.845  12.990  0.4461  0.3042 -0.6606
 4227TIP3    H134096   4.424   3.906  12.937  0.6613 -0.6363 -1.5525
 4227TIP3    H234097   4.378   3.762  12.943 -0.6694 -0.1667  0.0218
 4228TIP3   OH234098   0.431   3.412  12.368 -0.3334  0.4048  0.4532
 4228TIP3    H134099   0.398   3.361  12.442  0.8481 -1.3551 -0.1894
 4228TIP3    H234100   0.525   3.395  12.366 -0.0236  1.9832 -0.3065
 4229TIP3   OH234101   4.302   2.774   5.162 -0.4020  0.4813  0.4927
 4229TIP3    H134102   4.241   2.784   5.235  0.1978  1.8743  0.8249
 4229TIP3    H234103   4.247   2.778   5.084 -1.2601 -2.4962  0.8085
 4230TIP3   OH234104   1.808   5.983  13.154  0.3527 -0.1028  0.5309
 4230TIP3    H134105   1.757   5.903  13.142 -1.1298  0.9504 -0.6448
 4230TIP3    H234106   1.756   6.035  13.215  0.3863  0.6662 -0.0728
 4231TIP3   OH234107   6.640   2.895   0.932  0.5389  0.4499 -0.1250
 4231TIP3    H134108   6.718   2.872   0.882 -0.2744  0.0145 -1.2268
 4231TIP3    H234109   6.643   2.990   0.940  1.6760  0.3696  0.7035
 4232TIP3   OH234110   4.254   0.899  15.913  0.4758 -0.4315 -0.5278
 4232TIP3    H134111   4.265   0.978  15.861 -1.9302  0.4469  0.1736
 4232TIP3    H234112   4.190   0.847  15.865  1.7581 -1.8453 -0.7923
 4233TIP3   OH234113   2.260   4.661  12.305  0.2560  0.1652 -0.2053
 4233TIP3    H134114   2.297   4.604  12.238  0.3337  1.9472 -1.7528
 4233TIP3    H234115   2.336   4.694  12.353  0.2041 -1.0648  0.7678
 4234TIP3   OH234116   1.076   0.704   2.936  0.0018 -0.6904  0.0421
 4234TIP3    H134117   1.052   0.620   2.973 -1.4896 -0.3346 -0.0616
 4234TIP3    H234118   1.158   0.687   2.888  1.2411 -1.4440  2.2915
 4235TIP3   OH234119   3.028   3.088  13.404  0.3328 -0.0848 -0.0489
 4235TIP3    H134120   2.960   3.062  13.466  0.4133 -0.8071 -0.2603
 4235TIP3    H234121   2.984   3.149  13.345  0.1806  0.3801  0.5336
 4236TIP3   OH234122   3.491   2.957   3.548  0.0083  0.2171  0.6156
 4236TIP3    H134123   3.465   3.011   3.473  0.6512  0.2906  0.4362
 4236TIP3    H234124   3.574   2.917   3.521 -0.7611 -1.3644  0.5136
 4237TIP3   OH234125   3.052   6.095   6.776  0.0937  0.0769  0.1621
 4237TIP3    H134126   3.075   6.019   6.829 -0.8146  1.2872  2.4106
 4237TIP3    H234127   2.971   6.070   6.732  1.3497 -1.2881 -1.5437
 4238TIP3   OH234128   2.125   2.273  12.509  0.0073  0.4705 -0.6300
 4238TIP3    H134129   2.115   2.258  12.603 -1.2940  1.3802 -0.6133
 4238TIP3    H234130   2.111   2.186  12.470  1.9513 -0.2246  0.0571
 4239TIP3   OH234131   2.181   6.227  11.295 -0.1947 -0.1146  0.9420
 4239TIP3    H134132   2.228   6.205  11.376 -0.8265 -0.4197  1.2398
 4239TIP3    H234133   2.145   6.314  11.311 -0.5178 -0.2718  1.0891
 4240TIP3   OH234134   5.598   3.404   3.411  0.3503  0.2152  0.5284
 4240TIP3    H134135   5.627   3.405   3.320  1.0448 -1.6545  0.6939
 4240TIP3    H234136   5.526   3.467   3.413  1.1840  1.2872 -0.9940
 4241TIP3   OH234137   1.996   4.819   0.554 -0.2182  0.0191 -0.0592
 4241TIP3    H134138   1.903   4.823   0.575  0.0203  2.0517  0.7870
 4241TIP3    H234139   2.000   4.834   0.460 -0.6913  0.9426  0.0609
 4242TIP3   OH234140   2.707   5.885   5.131 -0.3130 -0.2497  0.0866
 4242TIP3    H134141   2.746   5.967   5.102  1.3056 -1.0635 -0.1248
 4242TIP3    H234142   2.687   5.900   5.224  1.1062 -0.0011  0.3801
 4243TIP3   OH234143   1.436   1.303   1.725  0.0019  0.3466 -0.2570
 4243TIP3    H134144   1.394   1.385   1.750 -0.7407 -0.4145  1.1372
 4243TIP3    H234145   1.462   1.264   1.808  1.9177 -0.0355 -0.9987
 4244TIP3   OH234146   0.976   1.300   2.984  0.2884  1.0951 -0.0070
 4244TIP3    H134147   1.038   1.303   2.911 -0.4163  0.3798 -0.6449
 4244TIP3    H234148   0.946   1.390   2.993  1.3634  1.4427  0.2704
 4245TIP3   OH234149   6.141   3.232  11.683  0.0149 -0.2126  0.0052
 4245TIP3    H134150   6.153   3.177  11.606 -1.4750 -1.3199  0.5279
 4245TIP3    H234151   6.173   3.318  11.656  0.2822 -0.7808 -1.5699
 4246TIP3   OH234152   5.536   6.128  14.891 -0.1168  0.1613  0.1874
 4246TIP3    H134153   5.478   6.073  14.943 -0.6146  0.8274  0.3544
 4246TIP3    H234154   5.478   6.169  14.826  0.3291  0.1045 -0.2514
 4247TIP3   OH234155   0.773   4.740  14.574  0.6180  0.2678 -0.4882
 4247TIP3    H134156   0.795   4.727  14.666  0.9988  0.8857 -0.4827
 4247TIP3    H234157   0.717   4.818  14.574  0.8303  0.4234 -0.7962
 4248TIP3   OH234158   6.222   1.823   5.862 -0.4292 -0.0314 -0.2365
 4248TIP3    H134159   6.170   1.793   5.787  1.1322 -0.8824 -1.0258
 4248TIP3    H234160   6.159   1.831   5.933 -1.5670 -1.5630 -1.0091
 4249TIP3   OH234161   6.497   1.815   6.320 -0.3886  0.0731 -0.5930
 4249TIP3    H134162   6.428   1.759   6.356 -1.2539  0.6423 -1.3219
 4249TIP3    H234163   6.466   1.836   6.232  0.4667  0.7865 -0.7293
 4250TIP3   OH234164   5.302   4.283  14.270  0.1595  0.5812  0.7897
 4250TIP3    H134165   5.326   4.367  14.308 -1.4039  2.3138 -1.7712
 4250TIP3    H234166   5.350   4.280  14.187 -0.8249 -0.4355  0.2329
 4251TIP3   OH234167   4.888   1.957  15.107 -0.0653 -0.0504  0.0621
 4251TIP3    H134168   4.865   1.992  15.021  0.7158  0.8309  0.1939
 4251TIP3    H234169   4.804   1.937  15.149 -0.4465 -1.4808 -1.2856
 4252TIP3   OH234170   5.404   2.374  11.845  0.2172 -0.4184  0.4504
 4252TIP3    H134171   5.490   2.415  11.854  0.8725 -1.8187  0.7966
 4252TIP3    H234172   5.343   2.442  11.873  1.2688  0.2719  1.1671
 4253TIP3   OH234173   2.690   1.283   3.254  0.0898 -0.1190  0.7163
 4253TIP3    H134174   2.727   1.208   3.208  0.6816 -0.4559  1.7091
 4253TIP3    H234175   2.598   1.285   3.227  0.2826 -0.6537 -0.0085
 4254TIP3   OH234176   3.901   0.599  14.499  0.3072  0.2114  0.0844
 4254TIP3    H134177   3.989   0.566  14.481  0.4120 -0.3091  1.4843
 4254TIP3    H234178   3.882   0.658  14.425  2.6334  1.9830  0.8083
 4255TIP3   OH234179   0.132   0.829   1.223 -0.4138 -0.2322 -0.1521
 4255TIP3    H134180   0.080   0.749   1.228  0.6914 -1.0395 -1.0454
 4255TIP3    H234181   0.212   0.809   1.271  0.2426  0.0130 -1.1078
 4256TIP3   OH234182   3.731   3.359   0.102 -0.4365  0.0548 -0.1440
 4256TIP3    H134183   3.781   3.339   0.181 -0.2660 -2.5074 -0.8409
 4256TIP3    H234184   3.798   3.379   0.036 -0.5511  1.2923  0.0874
 4257TIP3   OH234185   1.662   4.202  14.206  0.1756  0.1543 -0.5916
 4257TIP3    H134186   1.687   4.158  14.124  0.5027 -0.9977  0.1098
 4257TIP3    H234187   1.638   4.291  14.178  0.1750 -0.2399 -1.9535
 4258TIP3   OH234188   1.234   0.167   2.276 -0.1077  0.0113  0.3626
 4258TIP3    H134189   1.293   0.236   2.305 -0.5081  0.4958  0.0310
 4258TIP3    H234190   1.156   0.213   2.245 -0.8929 -0.6315  1.2930
 4259TIP3   OH234191   5.585   2.806  14.883 -0.3506 -0.1289  0.1576
 4259TIP3    H134192   5.603   2.873  14.817 -2.2822  1.2331  0.9137
 4259TIP3    H234193   5.494   2.780  14.866 -0.0904 -1.5447  0.7842
 4260TIP3   OH234194   6.253   0.560   0.040  0.3205  0.2744 -0.2557
 4260TIP3    H134195   6.212   0.558  -0.047  1.1580 -0.7916 -0.6548
 4260TIP3    H234196   6.318   0.630   0.033 -1.1065  1.7087  0.2570
 4261TIP3   OH234197   2.135   5.644  16.055  0.1346  0.1226  0.1661
 4261TIP3    H134198   2.197   5.587  16.099  0.4660 -0.4626 -1.0322
 4261TIP3    H234199   2.124   5.606  15.968 -0.3909  1.3270 -0.3195
 4262TIP3   OH234200   3.652   0.142   1.344  0.1448  0.5071 -0.0882
 4262TIP3    H134201   3.611   0.103   1.267  1.7190  0.6699 -1.0537
 4262TIP3    H234202   3.709   0.074   1.379 -0.9777  0.2338  1.3213
 4263TIP3   OH234203   3.193   1.438  15.216  0.4727  0.0571  0.2521
 4263TIP3    H134204   3.207   1.530  15.238  2.1333  0.1203 -0.8053
 4263TIP3    H234205   3.137   1.440  15.139 -0.9026  0.0772  1.2232
 4264TIP3   OH234206   3.731   6.694  13.611 -0.2603 -0.5532 -0.6687
 4264TIP3    H134207   3.816   6.736  13.620  0.4590 -2.2730  1.2398
 4264TIP3    H234208   3.747   6.602  13.630 -3.0028 -0.5021  2.9166
 4265TIP3   OH234209   5.986   4.050   5.099 -0.2750 -0.4312 -0.3339
 4265TIP3    H134210   5.893   4.073   5.108  0.2716  1.2949  1.8750
 4265TIP3    H234211   6.033   4.128   5.128  1.8664 -1.6832 -0.1936
 4266TIP3   OH234212   5.222   1.539   4.217 -0.0735 -0.1525 -0.2881
 4266TIP3    H134213   5.296   1.575   4.167  0.6593 -0.0888  0.8082
 4266TIP3    H234214   5.232   1.445   4.209  0.3460 -0.1500  0.1522
 4267TIP3   OH234215   0.938   5.431  14.843  0.5102  0.1115 -0.9327
 4267TIP3    H134216   0.861   5.469  14.885  0.7198 -0.9867  0.5100
 4267TIP3    H234217   0.904   5.359  14.790  0.5249 -0.3427 -0.3337
 4268TIP3   OH234218   1.796   4.931   0.413  0.0056 -0.4238  0.0723
 4268TIP3    H134219   1.720   4.988   0.421  0.1590  0.3358 -2.8024
 4268TIP3    H234220   1.759   4.843   0.404 -0.5975 -0.0259 -1.5980
 4269TIP3   OH234221   1.162   4.252  15.146 -0.0640 -0.2311  0.4524
 4269TIP3    H134222   1.247   4.284  15.115 -0.1115  0.7081  1.2654
 4269TIP3    H234223   1.098   4.296  15.090 -0.0470 -0.6367  0.1032
 4270TIP3   OH234224   1.981   4.006  10.842  0.2195 -0.1563 -0.1419
 4270TIP3    H134225   2.076   3.996  10.836  0.2209 -0.2385  0.0137
 4270TIP3    H234226   1.969   4.093  10.881  0.2034  0.5922 -1.7309
 4271TIP3   OH234227   3.496   1.788  12.562 -0.0711  0.8062  0.8092
 4271TIP3    H134228   3.460   1.701  12.545 -1.2486  1.3619  0.3822
 4271TIP3    H234229   3.574   1.793  12.506  0.0818 -0.0079  0.9330
 4272TIP3   OH234230   2.230   5.983  10.990  0.0873 -0.1367  0.2656
 4272TIP3    H134231   2.141   5.979  11.024  0.3657  1.9595  1.3727
 4272TIP3    H234232   2.285   5.995  11.067  1.1879  0.0553 -0.5294
 4273TIP3   OH234233   1.665   4.498   1.932  0.5011 -0.2166  0.3783
 4273TIP3    H134234   1.610   4.421   1.914 -3.1004  2.1643  0.1829
 4273TIP3    H234235   1.688   4.532   1.845  2.3795 -1.1850  0.4614
 4274TIP3   OH234236   1.297   5.269  13.789 -0.5812 -0.6921 -0.2697
 4274TIP3    H134237   1.248   5.337  13.742 -0.7322 -0.5312  0.1106
 4274TIP3    H234238   1.388   5.296  13.781 -0.4800 -1.3545 -1.5574
 4275TIP3   OH234239   0.995   3.868  16.803 -0.2222 -1.1579  0.0104
 4275TIP3    H134240   0.915   3.905  16.841 -0.5445 -1.6874 -0.1474
 4275TIP3    H234241   1.034   3.818  16.875  1.4077  1.2390  0.9531
 4276TIP3   OH234242   4.441   0.848  13.961  0.4164  0.3364 -0.3302
 4276TIP3    H134243   4.405   0.870  14.046 -1.6639  1.3950 -1.4020
 4276TIP3    H234244   4.525   0.893  13.958  0.4069  0.4911  1.0500
 4277TIP3   OH234245   0.505   6.346   3.370 -0.2071 -0.2226  0.5115
 4277TIP3    H134246   0.455   6.278   3.414  1.3684  0.6209  3.8980
 4277TIP3    H234247   0.486   6.426   3.419  2.2575  0.6612  0.1586
 4278TIP3   OH234248   1.388   3.823  12.093 -0.5903 -0.0136  0.2502
 4278TIP3    H134249   1.430   3.895  12.141 -0.8774 -0.8786  1.8958
 4278TIP3    H234250   1.300   3.818  12.131 -1.0745 -0.2870 -0.8903
 4279TIP3   OH234251   2.884   3.866   1.500  0.1195 -0.0969  0.0934
 4279TIP3    H134252   2.864   3.783   1.458 -0.0378  0.4442 -0.9241
 4279TIP3    H234253   2.814   3.925   1.472  1.1800  0.8540 -0.6504
 4280TIP3   OH234254   0.038   1.152  16.945  0.2283  0.3989  0.1053
 4280TIP3    H134255   0.026   1.142  17.039 -0.1477 -1.1119 -0.0783
 4280TIP3    H234256   0.091   1.231  16.936 -1.1639  1.5720  1.4772
 4281TIP3   OH234257   2.910   6.373  11.331 -0.5221  0.3490 -0.7699
 4281TIP3    H134258   3.001   6.352  11.310  0.3651  2.3682  0.7332
 4281TIP3    H234259   2.915   6.425  11.411 -2.8298  2.1083 -1.6450
 4282TIP3   OH234260   2.822   6.673  13.775 -0.0476  0.4223 -0.2056
 4282TIP3    H134261   2.842   6.735  13.704  0.8450  2.0912  1.4214
 4282TIP3    H234262   2.902   6.621  13.784  0.2357  0.9341  0.2702
 4283TIP3   OH234263   1.100   4.138  13.716  0.3174 -0.1210  0.8103
 4283TIP3    H134264   1.170   4.074  13.711 -0.2881 -0.8426  1.2478
 4283TIP3    H234265   1.022   4.086  13.736  0.0255  0.8660  2.4077
 4284TIP3   OH234266   3.300   4.075  12.899  0.0430  0.2942  0.1551
 4284TIP3    H134267   3.368   4.122  12.947  0.1474 -0.1941  0.4963
 4284TIP3    H234268   3.347   4.023  12.834 -0.0255  0.1438  0.2269
 4285TIP3   OH234269   1.592   0.741  11.150 -0.2555 -0.3614 -0.4457
 4285TIP3    H134270   1.544   0.659  11.135 -0.0757 -0.6121  0.3320
 4285TIP3    H234271   1.548   0.781  11.225  1.1752 -0.9458  0.7521
 4286TIP3   OH234272   1.048   5.409   1.844 -0.3294 -0.4349  0.9675
 4286TIP3    H134273   1.080   5.497   1.826 -0.8054 -0.3590  0.4828
 4286TIP3    H234274   0.989   5.421   1.919 -0.1327 -0.3972  1.1184
 4287TIP3   OH234275   3.815   5.248  13.068  0.7294 -0.3162 -0.0580
 4287TIP3    H134276   3.889   5.291  13.112  0.0447  1.9173 -0.9419
 4287TIP3    H234277   3.751   5.234  13.138  0.7879  0.5736  0.1904
 4288TIP3   OH234278   0.829   3.409  14.984 -0.2090 -0.0042 -0.2565
 4288TIP3    H134279   0.816   3.408  14.889 -1.0862  0.8536 -0.1570
 4288TIP3    H234280   0.852   3.319  15.006  0.5457 -0.0995 -1.3473
 4289TIP3   OH234281   2.043   6.747   3.013  0.1361 -1.1302 -0.3157
 4289TIP3    H134282   2.112   6.685   2.993  1.0609  0.5804 -2.9608
 4289TIP3    H234283   2.086   6.815   3.065 -0.1933 -1.3521  0.2468
 4290TIP3   OH234284   5.380   0.493   3.549  0.2729  0.9261  0.1446
 4290TIP3    H134285   5.410   0.525   3.634  0.2134  0.6378  0.2761
 4290TIP3    H234286   5.429   0.412   3.535 -1.2042 -0.1359  0.8688
 4291TIP3   OH234287   5.489   0.973  14.160  0.1670  0.2404 -0.3757
 4291TIP3    H134288   5.573   0.929  14.148 -0.4892 -1.0041 -0.5992
 4291TIP3    H234289   5.424   0.903  14.151 -1.0049  1.4465 -1.9083
 4292TIP3   OH234290   5.943   0.575   5.586 -0.5690  1.1681 -0.2292
 4292TIP3    H134291   6.030   0.615   5.590 -0.7504  1.4870  0.7627
 4292TIP3    H234292   5.938   0.538   5.498  1.2004 -0.2334  0.1856
 4293TIP3   OH234293   3.149   0.430   4.071  0.4477 -0.3275 -0.0972
 4293TIP3    H134294   3.176   0.457   3.984  0.8147 -1.7077 -0.4258
 4293TIP3    H234295   3.112   0.510   4.110  0.2649  0.3054 -1.5008
 4294TIP3   OH234296   4.614   4.365   0.834  0.2409  0.0404  0.0164
 4294TIP3    H134297   4.656   4.296   0.885 -2.2970 -1.5873  0.0761
 4294TIP3    H234298   4.654   4.359   0.748  0.8856 -0.7206  0.3556
 4295TIP3   OH234299   5.388   6.320  14.087  0.4404  0.6801  1.0423
 4295TIP3    H134300   5.340   6.238  14.077  0.7904  0.6064 -0.1869
 4295TIP3    H234301   5.348   6.380  14.023 -0.3490  1.7410  2.4715
 4296TIP3   OH234302   4.597   3.411  17.238  0.1410  0.4439 -0.6544
 4296TIP3    H134303   4.556   3.330  17.268  1.3051  0.1778  0.3036
 4296TIP3    H234304   4.631   3.391  17.151 -1.9761  0.7690 -1.6094
 4297TIP3   OH234305   0.223   0.506   5.052 -0.2845 -0.0799  0.2810
 4297TIP3    H134306   0.214   0.587   5.002  0.8619 -0.3771 -0.4403
 4297TIP3    H234307   0.136   0.467   5.052 -0.1527 -0.4762 -2.1746
 4298TIP3   OH234308   0.161   3.380  13.542 -0.0876 -0.2691 -0.6471
 4298TIP3    H134309   0.129   3.452  13.595  1.1972 -1.3721  1.7898
 4298TIP3    H234310   0.190   3.421  13.460  0.2279  1.9059  0.4840
 4299TIP3   OH234311   1.638   5.148   6.061 -0.0176  0.5248 -0.2283
 4299TIP3    H134312   1.666   5.151   6.152 -1.5073  0.1388  0.2599
 4299TIP3    H234313   1.601   5.235   6.044 -2.1871 -0.2051  0.3912
 4300TIP3   OH234314   0.471   1.134   5.528  0.1170  0.0018  0.0978
 4300TIP3    H134315   0.476   1.089   5.612 -3.5631  0.9268  0.9679
 4300TIP3    H234316   0.459   1.226   5.551  0.0427  0.4084 -1.4837
 4301TIP3   OH234317   5.733   0.787  16.508  0.0987 -0.3382  0.0537
 4301TIP3    H134318   5.793   0.861  16.512 -0.0115 -0.2922  1.2453
 4301TIP3    H234319   5.682   0.793  16.589  0.6554 -2.1639  0.6146
 4302TIP3   OH234320   2.249   0.377   3.397  0.2354  0.1248  0.2790
 4302TIP3    H134321   2.188   0.361   3.469  0.4411  2.1112  0.9726
 4302TIP3    H234322   2.321   0.426   3.438  0.6522  0.7449 -1.1466
 4303TIP3   OH234323   6.648   2.906   4.984 -0.0561  0.3474 -0.4526
 4303TIP3    H134324   6.697   2.831   4.948  2.4135  0.2585  2.7053
 4303TIP3    H234325   6.706   2.981   4.970 -0.0289  0.6674  1.2355
 4304TIP3   OH234326   4.001   3.541  16.037 -0.5409 -0.5906  0.1052
 4304TIP3    H134327   4.082   3.586  16.017 -0.5009 -0.9083 -0.4567
 4304TIP3    H234328   4.018   3.449  16.018 -1.5683 -0.4437 -1.7902
 4305TIP3   OH234329   5.058   0.380  12.031 -0.0333  0.2952 -0.2795
 4305TIP3    H134330   5.042   0.335  12.114 -0.4162 -0.1344 -0.5827
 4305TIP3    H234331   4.971   0.407  12.001 -0.0449 -0.6626 -1.1591
 4306TIP3   OH234332   6.250   4.550   4.923  0.5778  0.4290  0.4317
 4306TIP3    H134333   6.343   4.534   4.938  0.6678 -1.0039 -1.3416
 4306TIP3    H234334   6.236   4.640   4.952  2.4490  0.5872  0.9667
 4307TIP3   OH234335   3.177   1.426  15.862 -0.1207 -0.4758  0.1882
 4307TIP3    H134336   3.105   1.392  15.809 -0.3655  1.7000 -0.9692
 4307TIP3    H234337   3.153   1.404  15.952 -1.1418 -1.6825 -0.3536
 4308TIP3   OH234338   5.530   6.048   2.796 -0.0176  0.3787  0.3642
 4308TIP3    H134339   5.528   6.006   2.710  0.8620 -0.5162  0.7570
 4308TIP3    H234340   5.522   5.976   2.858  1.8512  0.7143  1.0669
 4309TIP3   OH234341   0.393   6.162  17.156 -0.5729 -0.2423 -0.1862
 4309TIP3    H134342   0.392   6.258  17.157 -2.1900 -0.2437 -0.0590
 4309TIP3    H234343   0.377   6.139  17.064 -1.0950 -0.3964 -0.0558
 4310TIP3   OH234344   6.029   2.495  16.936 -0.0524  0.5148  0.1800
 4310TIP3    H134345   6.097   2.433  16.912 -0.8068 -0.1788 -0.2035
 4310TIP3    H234346   6.063   2.580  16.910 -0.2435 -0.0491 -2.0609
 4311TIP3   OH234347   6.428   3.692  11.724 -0.0823  0.0624  0.1480
 4311TIP3    H134348   6.494   3.624  11.742 -0.7490 -0.1932  1.7460
 4311TIP3    H234349   6.441   3.757  11.793 -2.0858 -0.4448  1.0746
 4312TIP3   OH234350   5.214   5.228  11.301  0.2569 -0.1180  0.0138
 4312TIP3    H134351   5.168   5.226  11.385 -1.8867 -1.1585 -1.1152
 4312TIP3    H234352   5.149   5.258  11.238  1.8908  0.9095 -1.2769
 4313TIP3   OH234353   3.801   4.241  12.779  0.1588  0.2713 -0.7689
 4313TIP3    H134354   3.831   4.312  12.835 -0.8386 -0.1486  0.3333
 4313TIP3    H234355   3.709   4.261  12.761 -0.1044 -0.6677 -0.5434
 4314TIP3   OH234356   3.420   0.415   2.596 -0.0675  0.0309 -0.3804
 4314TIP3    H134357   3.379   0.493   2.561 -2.6582 -0.2984  1.6608
 4314TIP3    H234358   3.443   0.437   2.686  1.8184 -0.7029 -0.6253
 4315TIP3   OH234359   4.904   4.132   5.781 -0.0993  0.4133  0.6970
 4315TIP3    H134360   4.965   4.094   5.844 -0.7854 -1.4821  0.2738
 4315TIP3    H234361   4.943   4.113   5.696 -0.4310  0.7416  0.4658
 4316TIP3   OH234362   1.923   6.550   0.769  0.0790 -0.3439  0.0529
 4316TIP3    H134363   1.982   6.625   0.782 -0.0351 -0.3920  0.9293
 4316TIP3    H234364   1.843   6.576   0.815  0.1882 -1.1752  0.7272
 4317TIP3   OH234365   6.397   2.038  13.790 -0.4198  0.6889 -0.1599
 4317TIP3    H134366   6.383   1.945  13.770 -1.6476  0.9880 -0.7431
 4317TIP3    H234367   6.410   2.040  13.885  1.5520 -0.2833 -0.3546
 4318TIP3   OH234368   3.938   1.087  11.623  0.0208 -0.4390  0.2692
 4318TIP3    H134369   3.903   1.159  11.675  0.4639  0.0223 -0.0523
 4318TIP3    H234370   3.873   1.073  11.554  0.0219 -0.2220  0.2247
 4319TIP3   OH234371   1.035   6.296   1.164 -0.0983  0.3186  0.3533
 4319TIP3    H134372   1.046   6.375   1.218  1.7559 -0.2053  0.8282
 4319TIP3    H234373   1.125   6.268   1.145 -0.7233 -1.2044 -0.5191
 4320TIP3   OH234374   6.420   2.007   5.779 -0.1705 -0.2439  0.0928
 4320TIP3    H134375   6.352   1.943   5.799 -0.1697 -0.4544 -0.5490
 4320TIP3    H234376   6.475   2.009   5.857  0.0692 -1.3331 -0.0399
 4321TIP3   OH234377   6.618   3.080  13.480  1.2273 -0.5637 -0.1238
 4321TIP3    H134378   6.628   3.030  13.399 -0.6516 -0.5263 -0.4352
 4321TIP3    H234379   6.611   3.013  13.548 -0.8955 -0.8058 -0.4943
 4322TIP3   OH234380   0.292   2.898   3.058 -0.4267  0.7001  0.0518
 4322TIP3    H134381   0.286   2.955   2.981  3.5913  1.5331  0.1289
 4322TIP3    H234382   0.244   2.944   3.126 -1.3301  1.5599 -1.1312
 4323TIP3   OH234383   2.296   2.593   1.745  0.0597  0.3401 -0.4146
 4323TIP3    H134384   2.372   2.652   1.751 -0.8674  1.6177 -0.8836
 4323TIP3    H234385   2.333   2.511   1.713  1.3305  0.7656 -0.1187
 4324TIP3   OH234386   2.480   6.092  11.633  0.0464  0.1251 -0.1242
 4324TIP3    H134387   2.548   6.147  11.594  1.1582  0.1550  1.7831
 4324TIP3    H234388   2.505   6.003  11.610  0.6209  0.1498  0.3916
 4325TIP3   OH234389   1.839   5.601  11.805  0.3445  0.1013  0.3391
 4325TIP3    H134390   1.747   5.582  11.826  0.7223 -1.6247  0.6055
 4325TIP3    H234391   1.885   5.590  11.889  0.9358 -0.1054 -0.0084
 4326TIP3   OH234392   2.899   3.539  12.621  0.0619 -0.0003 -0.4395
 4326TIP3    H134393   2.807   3.546  12.596 -0.2028 -1.4653 -0.0014
 4326TIP3    H234394   2.923   3.627  12.651 -1.7862 -0.0390  1.3431
 4327TIP3   OH234395   6.428   2.568  15.232 -0.3096  0.5579 -0.5575
 4327TIP3    H134396   6.351   2.581  15.288 -0.0568 -1.3312  0.3277
 4327TIP3    H234397   6.448   2.655  15.198 -0.1693  1.9488  2.7124
 4328TIP3   OH234398   6.483   1.973  10.526 -0.0472  0.3213  0.1554
 4328TIP3    H134399   6.526   2.014  10.601 -0.0124 -1.2776  1.0426
 4328TIP3    H234400   6.454   2.046  10.472 -0.3694  1.5100  1.8855
 4329TIP3   OH234401   2.064   2.344  16.342 -0.6943 -0.1518  0.0647
 4329TIP3    H134402   2.023   2.403  16.280 -0.1965 -1.3848 -1.4976
 4329TIP3    H234403   2.010   2.265  16.340 -0.9564 -0.0484  1.6042
 4330TIP3   OH234404   4.275   3.677  16.028  0.2441  0.1603  0.1322
 4330TIP3    H134405   4.298   3.768  16.011  1.2783 -0.5785 -3.0365
 4330TIP3    H234406   4.356   3.638  16.063  0.3901  0.0690 -0.2962
 4331TIP3   OH234407   4.412   2.209  15.023 -0.5969  0.3264 -0.5691
 4331TIP3    H134408   4.492   2.248  15.059 -0.9403  1.8163 -1.3683
 4331TIP3    H234409   4.421   2.218  14.929 -0.7435 -1.5051 -0.7989
 4332TIP3   OH234410   6.149   5.730   5.402 -0.1756 -0.1572  0.2596
 4332TIP3    H134411   6.241   5.708   5.415  0.2141 -0.0503 -2.0010
 4332TIP3    H234412   6.109   5.648   5.374 -0.1997  0.3647 -1.2982
 4333TIP3   OH234413   4.187   2.045   3.274  0.2007 -0.5163 -0.0349
 4333TIP3    H134414   4.093   2.030   3.263  0.3794 -1.6395 -0.1933
 4333TIP3    H234415   4.193   2.104   3.349 -0.6307 -0.6433  0.1444
 4334TIP3   OH234416   6.111   5.429  13.132  0.1063 -0.3000  0.6872
 4334TIP3    H134417   6.138   5.447  13.042 -0.6570 -0.5033  0.4080
 4334TIP3    H234418   6.155   5.496  13.184 -0.5783  0.7306 -0.0121
 4335TIP3   OH234419   6.475   4.509   3.834  0.1890  0.3752 -0.2351
 4335TIP3    H134420   6.436   4.515   3.746  0.6720  0.3064 -0.4561
 4335TIP3    H234421   6.414   4.556   3.890 -0.9575 -0.9167 -0.3280
 4336TIP3   OH234422   2.232   5.842   1.014  0.1975  0.5685 -0.3647
 4336TIP3    H134423   2.173   5.917   1.007 -2.2517 -0.8622  2.4836
 4336TIP3    H234424   2.282   5.857   1.094 -2.7798 -2.1305  2.2874
 4337TIP3   OH234425   4.957   5.754   3.698  0.3924  0.2752  0.6356
 4337TIP3    H134426   5.021   5.787   3.635 -2.4859  0.6047 -2.3964
 4337TIP3    H234427   4.926   5.672   3.659 -3.1387  1.6207  0.2088
 4338TIP3   OH234428   4.564   3.713   0.695  0.3092 -0.2838 -0.0100
 4338TIP3    H134429   4.560   3.757   0.780  0.4150  1.6725 -0.9499
 4338TIP3    H234430   4.633   3.760   0.647 -0.5894 -0.5030 -1.5906
 4339TIP3   OH234431   0.133   3.327   3.125  0.6135 -0.1628 -0.0077
 4339TIP3    H134432   0.099   3.404   3.169 -1.5926 -0.4039 -1.1471
 4339TIP3    H234433   0.221   3.352   3.097  1.3448  0.6532  2.6849
 4340TIP3   OH234434   3.193   1.402   1.624  0.6172  0.0316  0.0296
 4340TIP3    H134435   3.149   1.384   1.706 -1.3246  1.9349 -0.5041
 4340TIP3    H234436   3.151   1.345   1.560 -1.6974  2.2726 -0.6005
 4341TIP3   OH234437   0.009   5.382  16.137 -0.0562  0.5316  0.1507
 4341TIP3    H134438   0.030   5.465  16.179 -0.0750  0.2801  0.6723
 4341TIP3    H234439  -0.071   5.353  16.182  0.3380 -0.1002  0.4445
 4342TIP3   OH234440   0.173   6.670  10.978  0.1266  0.5434 -0.0949
 4342TIP3    H134441   0.101   6.635  10.925 -0.0135  1.1914 -0.3447
 4342TIP3    H234442   0.231   6.595  10.993  1.0187  0.6647 -2.5266
 4343TIP3   OH234443   3.054   1.377  14.972  0.3489  0.0325 -0.1509
 4343TIP3    H134444   3.098   1.292  14.971  1.2478  0.4543 -1.7709
 4343TIP3    H234445   2.969   1.361  15.012  0.0296 -1.9050 -1.4863
 4344TIP3   OH234446   3.093   6.632  13.760  0.3696 -0.0473 -0.1131
 4344TIP3    H134447   3.104   6.726  13.742 -0.2501  0.2080  0.7538
 4344TIP3    H234448   3.176   6.606  13.799  0.1645  0.4182  0.6720
 4345TIP3   OH234449   1.199   4.798  16.349  0.1744 -0.3324 -0.3572
 4345TIP3    H134450   1.122   4.853  16.336  1.5034  1.7818  0.2704
 4345TIP3    H234451   1.198   4.775  16.442 -0.4687 -1.5646 -0.6512
 4346TIP3   OH234452   1.095   0.558  16.212 -1.1175 -0.3532  0.2096
 4346TIP3    H134453   1.099   0.465  16.192 -0.9090 -0.1552 -0.7231
 4346TIP3    H234454   1.185   0.589  16.202 -1.1245 -0.1067  0.8375
 4347TIP3   OH234455   5.214   1.261  15.705  0.0157  0.1386 -0.1334
 4347TIP3    H134456   5.193   1.309  15.785 -0.6716 -1.6329  0.7941
 4347TIP3    H234457   5.299   1.295  15.679 -0.2469  1.5411  0.7099
 4348TIP3   OH234458   5.343   4.527  10.578  0.1212  0.1464 -0.4042
 4348TIP3    H134459   5.295   4.446  10.593 -0.7509  0.5286 -1.0426
 4348TIP3    H234460   5.322   4.582  10.654  0.4292 -0.0847 -0.1487
 4349TIP3   OH234461   6.346   0.496  12.029  0.1664  0.0158  0.0061
 4349TIP3    H134462   6.341   0.536  11.942 -0.0912  0.2045  0.1089
 4349TIP3    H234463   6.284   0.545  12.083  0.0065 -0.3789  0.1893
 4350TIP3   OH234464   0.141   6.233  14.898  0.0558 -0.2588 -0.3529
 4350TIP3    H134465   0.101   6.273  14.976  1.9145 -0.4272  0.7340
 4350TIP3    H234466   0.106   6.144  14.896  0.2626 -0.3641  0.4956
 4351TIP3   OH234467   4.302   1.321   1.103  0.3305  0.7857  0.6165
 4351TIP3    H134468   4.294   1.326   1.198 -2.7889 -0.5657  0.5223
 4351TIP3    H234469   4.319   1.229   1.085  1.2112  1.0815 -0.1564
 4352TIP3   OH234470   2.875   3.989  14.367  0.3241 -0.4224  0.2276
 4352TIP3    H134471   2.817   3.980  14.291 -0.0802  0.7084  0.3806
 4352TIP3    H234472   2.819   3.976  14.443  0.8497 -2.2014  0.3705
 4353TIP3   OH234473   3.201   3.928  12.593 -0.1821  0.0817 -0.6880
 4353TIP3    H134474   3.197   3.860  12.661  0.8487  1.6289  1.0179
 4353TIP3    H234475   3.221   4.008  12.641 -0.3756  1.4295 -2.7506
 4354TIP3   OH234476   5.330   1.176   0.441 -0.3953  0.7099  0.0311
 4354TIP3    H134477   5.283   1.106   0.485 -1.0832  0.5356 -0.9462
 4354TIP3    H234478   5.321   1.157   0.347 -0.3888  1.9637 -0.2534
 4355TIP3   OH234479   0.916   1.993   6.261  0.1991  0.1123 -0.2087
 4355TIP3    H134480   0.862   2.070   6.280  0.3285 -0.0950  1.0769
 4355TIP3    H234481   0.966   1.979   6.341  3.2720  1.1471 -1.8026
 4356TIP3   OH234482   5.877   0.441  12.251  0.4050 -0.1968  0.3223
 4356TIP3    H134483   5.855   0.364  12.199  2.0842  0.5094 -1.5781
 4356TIP3    H234484   5.955   0.416  12.300 -0.2870 -0.3681  1.3506
 4357TIP3   OH234485   4.902   3.865   2.865 -0.2091 -0.1554 -0.5800
 4357TIP3    H134486   4.992   3.863   2.833 -0.2103  1.4288 -0.7445
 4357TIP3    H234487   4.870   3.952   2.842 -1.6370 -0.5299 -0.1123
 4358TIP3   OH234488   6.278   0.906   3.079 -0.2589  0.2179  0.0218
 4358TIP3    H134489   6.299   0.944   3.164 -0.9814  1.3838 -0.3053
 4358TIP3    H234490   6.317   0.966   3.015  1.1737 -1.1807 -0.5012
 4359TIP3   OH234491   5.798   4.126  15.373 -0.3938  0.2841 -0.1906
 4359TIP3    H134492   5.807   4.047  15.321 -1.0126  0.6978 -0.9389
 4359TIP3    H234493   5.784   4.094  15.463  1.7601 -0.4195 -0.0504
 4360TIP3   OH234494   3.004   3.421   5.532 -0.1841  0.3719 -0.0469
 4360TIP3    H134495   3.011   3.486   5.461  0.8084 -0.3862 -0.6570
 4360TIP3    H234496   3.060   3.455   5.601  0.0004  0.3796 -0.1999
 4361TIP3   OH234497   6.094   1.246   3.753  0.1615  0.3208 -0.4965
 4361TIP3    H134498   6.128   1.159   3.772 -1.8198 -0.0497  1.8822
 4361TIP3    H234499   6.085   1.288   3.839 -0.4832  2.2445 -1.4489
 4362TIP3   OH234500   3.121   3.383  11.260 -0.3025  0.0948  0.1027
 4362TIP3    H134501   3.112   3.456  11.321  0.2539  1.7110 -1.6477
 4362TIP3    H234502   3.032   3.352  11.247 -0.7002  1.2316 -0.0072
 4363TIP3   OH234503   1.898   0.971   3.915 -0.1850  0.5182 -0.5253
 4363TIP3    H134504   1.942   0.922   3.985 -1.6187  0.4612  0.3814
 4363TIP3    H234505   1.905   1.062   3.943  0.4830  0.6281 -1.0437
 4364TIP3   OH234506   5.134   2.698   3.382  0.4147 -0.3899 -0.6526
 4364TIP3    H134507   5.225   2.698   3.351  0.9017 -0.2740  0.7276
 4364TIP3    H234508   5.136   2.748   3.463 -0.8342 -0.6646 -0.4325
 4365TIP3   OH234509   6.525   0.689   1.669  0.0871  0.4479  0.2161
 4365TIP3    H134510   6.474   0.620   1.626 -0.6213  1.1934 -0.1810
 4365TIP3    H234511   6.538   0.657   1.758 -0.5066 -0.0578  0.1275
 4366TIP3   OH234512   2.705   3.477   3.139 -0.8973  0.6321  0.3064
 4366TIP3    H134513   2.623   3.427   3.132  0.3256 -1.9014  2.3532
 4366TIP3    H234514   2.772   3.411   3.153  1.1183  2.7819  1.5139
 4367TIP3   OH234515   2.583   0.833  12.709 -0.2166 -0.4060 -0.0914
 4367TIP3    H134516   2.517   0.804  12.646 -0.7019  1.8382 -0.7368
 4367TIP3    H234517   2.663   0.841  12.657 -0.6424  1.5529 -0.5356
 4368TIP3   OH234518   1.039   6.634   6.545  0.3222  0.5842 -0.3176
 4368TIP3    H134519   0.978   6.662   6.614 -1.6714 -3.6071 -0.1076
 4368TIP3    H234520   1.111   6.594   6.593 -0.5291 -1.3268 -0.5589
 4369TIP3   OH234521   0.871   5.666   5.038 -0.1944  0.3271 -0.5807
 4369TIP3    H134522   0.871   5.718   4.958 -2.8530  0.8517 -0.3395
 4369TIP3    H234523   0.894   5.728   5.107 -0.4906  0.5129 -0.6455
 4370TIP3   OH234524   0.430   2.850   1.344  0.3121 -0.5200 -0.3513
 4370TIP3    H134525   0.420   2.792   1.268 -1.3231 -0.4977 -0.1975
 4370TIP3    H234526   0.496   2.807   1.399 -0.4437 -1.9679 -0.5079
 4371TIP3   OH234527   1.247   6.271  14.488 -0.2259 -0.1694  0.0410
 4371TIP3    H134528   1.218   6.355  14.524  0.1284  0.1278 -0.3663
 4371TIP3    H234529   1.318   6.244  14.546 -1.9066 -1.3964  1.6708
 4372TIP3   OH234530   3.044   6.659   3.244 -0.0209  0.0631 -0.7053
 4372TIP3    H134531   2.964   6.659   3.297 -0.7017 -0.3106 -1.6867
 4372TIP3    H234532   3.053   6.750   3.214 -0.4448 -0.0215 -1.1047
 4373TIP3   OH234533   1.394   2.729   6.546 -0.5715  0.6380 -0.8579
 4373TIP3    H134534   1.324   2.698   6.488 -0.1199  1.3167 -1.7806
 4373TIP3    H234535   1.409   2.820   6.519  0.3363  0.6507 -0.3414
 4374TIP3   OH234536   2.812   5.745   2.452 -0.0549  0.0689 -0.1831
 4374TIP3    H134537   2.861   5.782   2.378  1.9198 -2.0627 -0.0450
 4374TIP3    H234538   2.839   5.797   2.527  1.0182 -0.2322 -0.3382
 4375TIP3   OH234539   1.760   4.511  14.669 -0.1659 -0.3550  0.3289
 4375TIP3    H134540   1.843   4.494  14.714 -0.0615 -1.6356 -0.3254
 4375TIP3    H234541   1.783   4.514  14.576 -0.3902  2.1904  0.2885
 4376TIP3   OH234542   5.694   3.173   1.433  0.4300  0.4354  0.0668
 4376TIP3    H134543   5.760   3.118   1.391 -0.6681 -1.3644  0.5931
 4376TIP3    H234544   5.613   3.153   1.385 -0.3731  0.1198  1.5153
 4377TIP3   OH234545   3.810   6.492   1.005 -0.0649  0.2683  0.4964
 4377TIP3    H134546   3.753   6.415   1.006  2.7123 -2.0959  4.1698
 4377TIP3    H234547   3.809   6.523   1.095 -0.5258  4.3324 -0.7185
 4378TIP3   OH234548   1.523   4.765  12.364 -0.1843  0.3235  0.2014
 4378TIP3    H134549   1.475   4.800  12.439 -1.1716  0.6200 -0.5417
 4378TIP3    H234550   1.601   4.819  12.357 -1.0606  1.5774 -0.1565
 4379TIP3   OH234551   1.358   6.200  16.410 -0.3977  0.2526  0.0983
 4379TIP3    H134552   1.451   6.180  16.427  0.0302 -0.6060 -2.7066
 4379TIP3    H234553   1.360   6.281  16.359 -0.8927 -1.1600 -2.3141
 4380TIP3   OH234554   4.125   3.557   3.688 -0.3047  0.2908 -0.5100
 4380TIP3    H134555   4.144   3.467   3.714 -1.8280  0.4364  1.3063
 4380TIP3    H234556   4.209   3.602   3.693  0.2776 -0.7837 -0.4057
 4381TIP3   OH234557   0.528   2.180  16.413  0.0860  0.3321  0.7068
 4381TIP3    H134558   0.485   2.111  16.363 -0.6523  1.0876  0.2708
 4381TIP3    H234559   0.460   2.247  16.425  0.5772  0.6613  1.7487
 4382TIP3   OH234560   5.274   4.552   2.988  0.4856  0.0250 -0.2835
 4382TIP3    H134561   5.186   4.589   2.985  0.5006  0.1064  0.1236
 4382TIP3    H234562   5.332   4.629   2.989  0.4772  0.0918  2.0669
 4383TIP3   OH234563   0.432   0.451   2.083 -0.0362 -0.0772  0.2189
 4383TIP3    H134564   0.484   0.481   2.009 -1.8782 -0.2094 -1.1903
 4383TIP3    H234565   0.453   0.358   2.090 -0.6647 -0.3164 -0.8656
 4384TIP3   OH234566   1.147   5.037   5.665 -0.1716  0.2958 -0.9153
 4384TIP3    H134567   1.085   4.980   5.711 -0.0352 -0.4395 -1.6214
 4384TIP3    H234568   1.121   5.032   5.573  0.0402  1.1357 -1.0293
 4385TIP3   OH234569   3.092   5.580   3.443 -0.4916  0.0782  0.0455
 4385TIP3    H134570   3.159   5.555   3.379  0.2928  1.3983  0.3042
 4385TIP3    H234571   3.031   5.635   3.395  0.4669  1.6347  0.5228
 4386TIP3   OH234572   1.937   4.219   1.108  0.4861 -0.8806  0.1933
 4386TIP3    H134573   1.896   4.221   1.021 -2.1392 -1.3937  1.3259
 4386TIP3    H234574   1.995   4.143   1.105 -0.5016 -1.6307 -0.7568
 4387TIP3   OH234575   1.939   5.807   4.792 -0.1777 -0.1555  0.0078
 4387TIP3    H134576   1.970   5.845   4.874  0.4172 -1.4713  0.4189
 4387TIP3    H234577   1.865   5.862   4.767  0.0308  0.6517  1.0855
 4388TIP3   OH234578   2.981   6.669  11.947  0.2453  0.5195  0.3534
 4388TIP3    H134579   2.924   6.687  11.873 -0.3884 -1.5379  0.2673
 4388TIP3    H234580   2.923   6.641  12.017  0.7562  3.1819  1.9845
 4389TIP3   OH234581   5.038   6.647   2.140 -0.0147 -0.1195 -0.4025
 4389TIP3    H134582   5.014   6.738   2.123 -0.1114 -0.1930 -0.6739
 4389TIP3    H234583   4.990   6.623   2.219 -0.4719 -0.1228 -0.6787
 4390TIP3   OH234584   2.688   5.468   5.067 -0.1397  0.0459  0.1778
 4390TIP3    H134585   2.706   5.500   4.979 -1.5799 -0.5152 -0.3569
 4390TIP3    H234586   2.708   5.542   5.124 -0.6947  0.9646 -0.7778
 4391TIP3   OH234587   1.505   0.429   0.791 -0.0522  0.0054  0.1241
 4391TIP3    H134588   1.545   0.349   0.757  0.0429  0.0528  0.1251
 4391TIP3    H234589   1.456   0.401   0.868 -0.2147 -0.0922 -0.0140
 4392TIP3   OH234590   0.937   1.148  15.313  0.0359 -0.4911 -0.3337
 4392TIP3    H134591   0.944   1.053  15.321 -0.8293 -0.6037 -0.7850
 4392TIP3    H234592   0.891   1.161  15.230 -0.0139  0.3158 -0.1833
 4393TIP3   OH234593   1.197   0.816  12.534 -0.3199  0.0751  0.0911
 4393TIP3    H134594   1.132   0.745  12.536 -1.5729  1.1964  0.8773
 4393TIP3    H234595   1.207   0.837  12.441 -0.5130 -0.6089 -0.0891
 4394TIP3   OH234596   1.086   1.042   2.772 -0.2320  0.2547 -0.1232
 4394TIP3    H134597   1.074   1.032   2.866  1.6285  0.0411  0.1264
 4394TIP3    H234598   1.107   1.135   2.760 -2.5966  0.7779 -0.6243
 4395TIP3   OH234599   5.910   2.845  14.214  0.0410 -0.3303  0.0076
 4395TIP3    H134600   5.984   2.848  14.274  0.4546  0.8156 -0.5333
 4395TIP3    H234601   5.949   2.826  14.128 -0.2058  0.7615 -0.3678
 4396TIP3   OH234602   5.984   6.330  15.830  0.0222 -0.0367  0.5776
 4396TIP3    H134603   5.888   6.327  15.823  0.1056 -0.7436 -0.4221
 4396TIP3    H234604   6.012   6.241  15.810  0.9589  0.4588 -0.4210
 4397TIP3   OH234605   2.203   2.905   3.968 -0.3653  0.0911 -0.6874
 4397TIP3    H134606   2.201   2.966   3.894  0.7387 -0.2719 -1.0270
 4397TIP3    H234607   2.237   2.957   4.041 -1.9131  0.5867 -0.2688
 4398TIP3   OH234608   2.835   2.405   5.537  0.1094  0.2005  0.5952
 4398TIP3    H134609   2.751   2.370   5.509 -0.3741  1.6551  0.1853
 4398TIP3    H234610   2.887   2.410   5.456  0.9058 -1.4129  0.9496
 4399TIP3   OH234611   0.403   0.772  11.560  0.4011  0.4371 -0.1721
 4399TIP3    H134612   0.381   0.682  11.582  0.1838  0.7518  0.9580
 4399TIP3    H234613   0.492   0.785  11.593 -0.4807  1.3686  2.0155
 4400TIP3   OH234614   6.593   0.312  12.732  0.5599 -0.3817  0.0032
 4400TIP3    H134615   6.568   0.350  12.816  1.1662  1.4474 -0.6103
 4400TIP3    H234616   6.568   0.377  12.667 -0.0538 -1.8413 -1.2800
 4401TIP3   OH234617   3.737   0.909   5.774  0.2010  0.0148  0.5440
 4401TIP3    H134618   3.693   0.944   5.852  0.3735  0.5558  0.4069
 4401TIP3    H234619   3.765   0.821   5.799 -0.4107 -0.0976  0.8400
 4402TIP3   OH234620   2.830   5.474  12.028  0.1231 -0.2402 -0.9427
 4402TIP3    H134621   2.816   5.379  12.031 -0.9433 -0.0921 -0.7727
 4402TIP3    H234622   2.912   5.488  12.075 -1.1131 -0.8180  1.5518
 4403TIP3   OH234623   2.209   1.252   1.413 -0.0198  0.7641 -0.4766
 4403TIP3    H134624   2.230   1.160   1.427 -0.7794  0.4388 -1.3538
 4403TIP3    H234625   2.235   1.269   1.323 -1.6597  0.8475 -0.9763
 4404TIP3   OH234626   1.957   4.037   0.348 -0.0448  0.6530  0.4869
 4404TIP3    H134627   1.870   3.999   0.362 -0.4822  1.2688 -0.4452
 4404TIP3    H234628   1.992   3.989   0.273  0.1267  0.8737  0.4236
 4405TIP3   OH234629   5.840   0.304   5.442  0.1438 -0.5715 -0.5749
 4405TIP3    H134630   5.828   0.351   5.359  0.9482  1.2771  0.3085
 4405TIP3    H234631   5.758   0.256   5.454 -1.2184  1.5255 -0.9760
 4406TIP3   OH234632   5.058   2.628  13.837 -0.2073  0.9548  0.4361
 4406TIP3    H134633   5.088   2.714  13.807 -0.6851  1.3155  0.9801
 4406TIP3    H234634   4.994   2.647  13.904 -1.3091  0.1836 -0.3613
 4407TIP3   OH234635   4.692   0.397   6.458  0.2088 -0.2376 -0.7414
 4407TIP3    H134636   4.739   0.380   6.540 -0.1493  3.5048  0.4246
 4407TIP3    H234637   4.602   0.368   6.475  0.1722  0.3667  0.1614
 4408TIP3   OH234638   3.793   1.179   4.574  0.0116 -0.0051  0.2184
 4408TIP3    H134639   3.839   1.099   4.548 -0.7616 -0.5704  0.5372
 4408TIP3    H234640   3.712   1.148   4.614  0.3090  0.8885  1.5908
 4409TIP3   OH234641   2.724   4.994  15.490  0.0741 -0.7938  0.0651
 4409TIP3    H134642   2.664   5.061  15.523  0.1219 -0.2372 -0.9605
 4409TIP3    H234643   2.723   5.005  15.395  2.9741  0.2436  0.0694
 4410TIP3   OH234644   3.417   3.703  14.100 -0.9603 -0.5814 -0.4789
 4410TIP3    H134645   3.412   3.797  14.081 -0.5284 -0.6056 -0.7235
 4410TIP3    H234646   3.508   3.688  14.123 -0.4944 -1.3467 -2.6392
 4411TIP3   OH234647   2.667   3.297   5.372  0.1916 -0.2415 -0.5774
 4411TIP3    H134648   2.751   3.257   5.395 -0.2098  0.4132  2.5606
 4411TIP3    H234649   2.689   3.379   5.329  1.1699 -0.4475 -0.4775
 4412TIP3   OH234650   6.530   3.420   4.985  0.3380  0.3581  0.0743
 4412TIP3    H134651   6.450   3.448   4.941  0.9794  1.2163 -0.5829
 4412TIP3    H234652   6.546   3.487   5.051  0.8715  0.5634 -0.2548
 4413TIP3   OH234653   2.828   3.531  11.686 -0.1245 -0.0827 -0.5380
 4413TIP3    H134654   2.803   3.452  11.734  2.0078 -0.6865 -0.2988
 4413TIP3    H234655   2.825   3.601  11.752  0.2164 -0.4188 -0.1557
 4414TIP3   OH234656   3.678   0.275   0.493  0.1792  0.3020  0.7485
 4414TIP3    H134657   3.657   0.343   0.430  2.4204 -0.1293 -0.6113
 4414TIP3    H234658   3.703   0.199   0.439  2.2624 -0.0620  2.0754
 4415TIP3   OH234659   5.083   5.860   3.923  0.0190 -0.2116  0.3644
 4415TIP3    H134660   5.044   5.809   3.852  3.3994  0.9690 -2.6582
 4415TIP3    H234661   5.065   5.951   3.901 -0.5944  0.1748  2.2468
 4416TIP3   OH234662   6.089   0.578   4.812  0.5153 -0.3072 -0.8124
 4416TIP3    H134663   6.131   0.614   4.890 -2.1374 -0.4335  0.8374
 4416TIP3    H234664   6.149   0.511   4.781  1.1564 -1.1340  1.9156
 4417TIP3   OH234665   2.389   3.434  14.888 -0.2333 -0.0089  0.4043
 4417TIP3    H134666   2.435   3.417  14.806  0.3093 -2.1761  1.1148
 4417TIP3    H234667   2.325   3.363  14.895 -2.3092  1.7401  0.4916
 4418TIP3   OH234668   4.294   1.931  13.885  0.3747 -0.2256  0.3509
 4418TIP3    H134669   4.260   2.017  13.910 -0.1089 -0.7502  1.5954
 4418TIP3    H234670   4.342   1.901  13.963 -0.0603 -1.3814  0.1857
 4419TIP3   OH234671   3.901   4.488   1.511  0.1724 -0.7311 -0.5756
 4419TIP3    H134672   3.925   4.556   1.448  0.0071  0.1371  0.2623
 4419TIP3    H234673   3.815   4.516   1.544 -0.5182 -2.0548 -1.1650
 4420TIP3   OH234674   5.704   0.309   0.966  0.3833  0.5057  0.3765
 4420TIP3    H134675   5.657   0.385   0.999  0.7406  0.7515  0.3196
 4420TIP3    H234676   5.635   0.248   0.940  0.0499 -0.1798  2.6280
 4421TIP3   OH234677   2.449   6.493  12.395 -0.2456  0.1672  0.1298
 4421TIP3    H134678   2.434   6.587  12.410 -0.2304  0.1330  0.3765
 4421TIP3    H234679   2.534   6.489  12.352 -0.4153  0.2902 -0.2242
 4422TIP3   OH234680   4.370   6.626  17.081  0.1238  0.0238 -0.4826
 4422TIP3    H134681   4.310   6.640  17.155  2.2214  0.6998  1.1735
 4422TIP3    H234682   4.419   6.708  17.074  0.1604 -0.1163 -2.5107
 4423TIP3   OH234683   3.764   6.205  12.659  0.6592  0.7369 -0.1038
 4423TIP3    H134684   3.800   6.171  12.741 -1.0957 -0.9002  0.0340
 4423TIP3    H234685   3.805   6.152  12.591  0.7962  0.9340 -0.1777
 4424TIP3   OH234686   1.212   6.022  15.731  0.3572  0.2392  0.4433
 4424TIP3    H134687   1.224   5.963  15.657 -1.9081 -1.1690  1.1125
 4424TIP3    H234688   1.133   6.071  15.711 -0.4433 -0.3483  1.9784
 4425TIP3   OH234689   5.868   1.477   2.361 -0.2416  0.1847 -0.0437
 4425TIP3    H134690   5.846   1.562   2.398  0.4364 -0.1925  1.2655
 4425TIP3    H234691   5.946   1.448   2.409  0.8126 -0.2488 -1.9020
 4426TIP3   OH234692   2.426   1.264  12.623  0.2681 -0.1267  0.2988
 4426TIP3    H134693   2.433   1.262  12.528  0.2730 -3.6776  0.2407
 4426TIP3    H234694   2.449   1.354  12.647  2.0138  0.4338 -2.9079
 4427TIP3   OH234695   3.557   5.713  16.230 -0.0468 -0.1600  0.1664
 4427TIP3    H134696   3.493   5.674  16.289 -0.9878  0.2850 -0.5315
 4427TIP3    H234697   3.531   5.805  16.224  0.4985 -0.0336 -0.3315
 4428TIP3   OH234698   2.924   3.485  17.025  0.2878  0.2903  0.3394
 4428TIP3    H134699   2.974   3.408  17.000  1.3329  2.0519 -3.9172
 4428TIP3    H234700   2.833   3.460  17.012  0.5648 -0.4807 -0.1694
 4429TIP3   OH234701   3.788   3.209   4.692 -0.2989  0.6055 -0.3561
 4429TIP3    H134702   3.761   3.177   4.778 -0.2318 -1.1669 -0.9578
 4429TIP3    H234703   3.879   3.236   4.704 -0.3037  0.4117  0.1406
 4430TIP3   OH234704   1.312   5.600  14.998 -0.0536 -0.0374  0.1389
 4430TIP3    H134705   1.366   5.536  15.044 -0.0342  0.7035  1.1753
 4430TIP3    H234706   1.256   5.638  15.066 -1.0207  0.0840 -0.6991
 4431TIP3   OH234707   0.887   5.392  16.367 -0.2197  0.2039  0.5413
 4431TIP3    H134708   0.810   5.413  16.315 -0.5731 -0.9390  0.5731
 4431TIP3    H234709   0.858   5.323  16.426  0.5365  0.5443  1.3289
 4432TIP3   OH234710   0.744   5.953  13.124  0.4782 -0.1061 -0.4304
 4432TIP3    H134711   0.746   6.046  13.103  1.2228 -0.1515 -0.6012
 4432TIP3    H234712   0.744   5.910  13.038 -1.0143 -0.2659 -0.3755
 4433TIP3   OH234713   5.424   2.723   3.438 -0.3625 -0.1159  0.9981
 4433TIP3    H134714   5.473   2.645   3.411 -2.0385 -0.6064 -0.8708
 4433TIP3    H234715   5.478   2.797   3.409 -0.2108 -0.6203 -0.0430
 4434TIP3   OH234716   4.817   0.808   5.406  0.4171 -0.5374 -0.0054
 4434TIP3    H134717   4.763   0.886   5.402 -1.3441 -1.6253  0.8606
 4434TIP3    H234718   4.891   0.832   5.462 -1.9653 -0.4206  3.3906
 4435TIP3   OH234719   3.785   5.609   3.137  0.8875  0.0165 -0.4327
 4435TIP3    H134720   3.730   5.539   3.104  1.9191 -0.4572 -1.2149
 4435TIP3    H234721   3.733   5.688   3.125 -0.3390 -0.6053  0.5874
 4436TIP3   OH234722   0.789   4.304   1.650  0.2490  0.4100 -0.0774
 4436TIP3    H134723   0.773   4.353   1.731  0.2105  1.1677 -0.5418
 4436TIP3    H234724   0.860   4.352   1.607 -1.1215  1.2181 -1.4954
 4437TIP3   OH234725   1.889   5.829   3.178 -0.9474 -0.4007 -0.0464
 4437TIP3    H134726   1.831   5.873   3.117 -1.9618 -1.0092  0.4403
 4437TIP3    H234727   1.864   5.736   3.173  0.1333 -0.7151  0.0179
 4438TIP3   OH234728   6.241   4.534   4.208  0.6992 -0.6459 -0.2604
 4438TIP3    H134729   6.154   4.532   4.249  0.2411 -2.6127 -1.2091
 4438TIP3    H234730   6.302   4.523   4.281  0.0747 -0.7303  0.2666
 4439TIP3   OH234731   1.544   0.108   5.434  0.0453 -0.2239  0.9100
 4439TIP3    H134732   1.591   0.030   5.403  1.8351  0.4367  1.8137
 4439TIP3    H234733   1.610   0.160   5.479 -0.9796  2.0925 -0.0689
 4440TIP3   OH234734   2.683   0.888  16.897 -0.2694 -0.8308  0.1354
 4440TIP3    H134735   2.617   0.862  16.833  0.1861  0.1173 -0.7673
 4440TIP3    H234736   2.766   0.883  16.849 -0.0352  1.0071  0.2438
 4441TIP3   OH234737   4.774   0.403  12.273  0.3419  0.6914 -0.0119
 4441TIP3    H134738   4.801   0.495  12.267  1.3761  0.3439 -0.7626
 4441TIP3    H234739   4.855   0.354  12.282 -0.2331 -0.1221  1.0645
 4442TIP3   OH234740   1.249   0.456  11.012  0.1845 -0.2110 -0.3521
 4442TIP3    H134741   1.341   0.476  11.029 -0.0189  0.6874 -0.3047
 4442TIP3    H234742   1.229   0.502  10.930 -0.0008 -1.0810 -0.8143
 4443TIP3   OH234743   2.011   2.455   1.059  0.0995  0.1423 -0.0968
 4443TIP3    H134744   2.052   2.374   1.028  0.0132  0.7395 -1.9374
 4443TIP3    H234745   1.919   2.431   1.074 -0.2962  0.1781 -2.1238
 4444TIP3   OH234746   1.101   6.335  10.629  0.0810  0.8616  0.3363
 4444TIP3    H134747   1.122   6.242  10.632 -1.9399  0.2955 -0.7627
 4444TIP3    H234748   1.170   6.377  10.679  1.5867 -1.1255  0.0641
 4445TIP3   OH234749   2.286   1.555  14.298 -0.4243  0.1898 -0.1917
 4445TIP3    H134750   2.266   1.633  14.349 -0.9115 -0.4084  0.5564
 4445TIP3    H234751   2.307   1.488  14.364  1.2785  0.0276 -0.8558
 4446TIP3   OH234752   3.120   2.508   4.104  0.5954  0.2949  0.4247
 4446TIP3    H134753   3.118   2.466   4.019  3.6689 -2.6764  1.5817
 4446TIP3    H234754   3.034   2.489   4.142 -0.8977  1.8270 -1.9306
 4447TIP3   OH234755   3.231   4.832   4.125  0.0098 -0.2953  0.2014
 4447TIP3    H134756   3.228   4.772   4.200 -2.0589  0.2228  0.5813
 4447TIP3    H234757   3.193   4.783   4.053  0.7505 -0.3154 -0.1929
 4448TIP3   OH234758   4.089   3.940  16.086  0.0965 -0.4162 -0.0653
 4448TIP3    H134759   4.071   4.012  16.146 -0.0287  0.8998 -1.6341
 4448TIP3    H234760   4.006   3.892  16.080 -0.2022  0.0951 -0.0555
 4449TIP3   OH234761   1.459   3.195  15.492  0.0699  0.8758 -0.1549
 4449TIP3    H134762   1.404   3.266  15.524 -0.5045  0.3768 -0.0316
 4449TIP3    H234763   1.443   3.122  15.552  2.3842  1.3173  1.1400
 4450TIP3   OH234764   5.174   3.687   4.964 -0.0197  0.2719  0.5164
 4450TIP3    H134765   5.116   3.760   4.943 -1.4676 -0.1989  2.6334
 4450TIP3    H234766   5.231   3.720   5.033  1.8579  0.5104 -1.0679
 4451TIP3   OH234767   2.862   3.850   0.311  0.0028 -0.1322  0.0897
 4451TIP3    H134768   2.912   3.769   0.312 -0.1292 -0.2148  0.4641
 4451TIP3    H234769   2.817   3.851   0.227  0.3680 -0.2216 -0.1048
 4452TIP3   OH234770   6.071   2.537  17.204 -0.1973  0.1352  0.2099
 4452TIP3    H134771   6.024   2.539  17.121 -0.4502  1.2162  0.3624
 4452TIP3    H234772   6.061   2.447  17.236 -0.0373 -0.3067 -0.9491
 4453TIP3   OH234773   5.041   1.892   4.307 -0.0837 -0.0878 -0.6049
 4453TIP3    H134774   4.984   1.865   4.235 -1.7665 -1.2575  1.0960
 4453TIP3    H234775   5.058   1.812   4.357  0.8988  0.7200  0.4138
 4454TIP3   OH234776   4.923   3.002  10.934 -0.2288 -0.2346  0.2944
 4454TIP3    H134777   4.841   3.009  10.984 -0.1745  0.1111  0.3391
 4454TIP3    H234778   4.938   2.908  10.926 -0.4679 -0.2978  0.5537
 4455TIP3   OH234779   0.349   2.627   6.055 -0.5272  0.0071 -0.8176
 4455TIP3    H134780   0.294   2.696   6.093  0.1410  0.1399 -0.0716
 4455TIP3    H234781   0.339   2.553   6.114 -0.2767 -0.1276 -0.9424
 4456TIP3   OH234782   6.345   3.127   5.316 -0.7855  0.2499 -0.1365
 4456TIP3    H134783   6.275   3.159   5.260 -0.2644  0.3750 -0.7351
 4456TIP3    H234784   6.399   3.204   5.333  0.6754 -0.3186 -1.8784
 4457TIP3   OH234785   0.427   5.336   4.252  0.1302  0.2908  0.0166
 4457TIP3    H134786   0.408   5.429   4.262 -0.5660  0.2826 -1.0726
 4457TIP3    H234787   0.385   5.295   4.327 -1.8762  0.5924 -0.8840
 4458TIP3   OH234788   0.679   3.331   6.377  0.2706 -0.3679  0.2309
 4458TIP3    H134789   0.639   3.293   6.454 -0.0782 -0.6820 -0.1016
 4458TIP3    H234790   0.757   3.278   6.361 -0.7750 -1.6594 -0.8527
 4459TIP3   OH234791   1.413   4.068  12.672  0.1820 -0.5787 -0.1132
 4459TIP3    H134792   1.325   4.047  12.703 -0.4161 -2.2364 -2.6389
 4459TIP3    H234793   1.439   4.144  12.725 -2.4890 -0.3932  1.1284
 4460TIP3   OH234794   1.238   4.518   4.918 -0.7839 -0.5239  0.0263
 4460TIP3    H134795   1.229   4.423   4.914 -0.3204 -0.5626 -0.0639
 4460TIP3    H234796   1.270   4.536   5.007 -2.9394 -0.2811  0.8242
 4461TIP3   OH234797   3.292   2.105   3.128  0.5630  0.2323 -0.3076
 4461TIP3    H134798   3.316   2.190   3.090 -0.6048  0.8962  0.3802
 4461TIP3    H234799   3.229   2.068   3.065  1.5082 -0.4207 -0.9044
 4462TIP3   OH234800   0.406   6.502   5.633  0.2072 -0.4477 -0.0335
 4462TIP3    H134801   0.446   6.588   5.642  0.1687 -0.3331 -0.8480
 4462TIP3    H234802   0.402   6.467   5.722 -1.7706  1.2958  0.6513
 4463TIP3   OH234803   4.107   4.746   0.211  0.4263  0.7112  0.6301
 4463TIP3    H134804   4.082   4.830   0.173 -1.5245  0.6371  1.6114
 4463TIP3    H234805   4.095   4.758   0.305 -0.3787 -0.8076  0.7495
 4464TIP3   OH234806   3.432   0.884   2.072  0.0715  0.1468  0.3047
 4464TIP3    H134807   3.417   0.798   2.111 -0.8192 -0.9966 -2.3524
 4464TIP3    H234808   3.418   0.946   2.144  1.4657 -1.8970  2.4942
 4465TIP3   OH234809   4.634   4.578  13.529 -0.0068 -0.6537 -0.2396
 4465TIP3    H134810   4.720   4.540  13.546  0.6165  1.0272  0.6539
 4465TIP3    H234811   4.653   4.656  13.476 -0.9569 -0.1837  0.0969
 4466TIP3   OH234812   0.628   6.244  15.747 -0.0165 -0.5791  0.1228
 4466TIP3    H134813   0.571   6.318  15.772 -0.4908 -0.9650  0.2042
 4466TIP3    H234814   0.659   6.209  15.831  1.1470  0.2393  0.0516
 4467TIP3   OH234815   2.429   2.252  14.654 -0.1295 -0.9948  0.0485
 4467TIP3    H134816   2.511   2.215  14.687 -0.9298 -2.4999  0.4226
 4467TIP3    H234817   2.454   2.298  14.574  0.8597 -2.7706 -0.7136
 4468TIP3   OH234818   4.988   1.338   2.483  0.0926  0.1281 -0.0277
 4468TIP3    H134819   5.012   1.326   2.391  0.1948 -1.4447  0.1767
 4468TIP3    H234820   4.899   1.372   2.480  0.5014  1.2121 -0.7063
 4469TIP3   OH234821   5.450   0.608   3.242 -0.3002  0.3143  0.2961
 4469TIP3    H134822   5.467   0.701   3.227 -0.5331  0.1439 -1.1480
 4469TIP3    H234823   5.437   0.601   3.336 -1.0167  1.8726  0.3341
 4470TIP3   OH234824   3.473   5.507   2.789  0.0925 -0.0915 -0.6007
 4470TIP3    H134825   3.380   5.521   2.769 -0.4162 -1.0756  0.9377
 4470TIP3    H234826   3.479   5.516   2.884  1.5786 -0.0445 -0.6820
 4471TIP3   OH234827   6.749   5.515  14.368 -0.4257 -0.1861 -0.6470
 4471TIP3    H134828   6.771   5.476  14.284  3.1678 -1.5596  0.7447
 4471TIP3    H234829   6.800   5.595  14.372  1.6630 -1.4991  1.1779
 4472TIP3   OH234830   5.727   5.938  14.185  0.3624  0.2304  0.1996
 4472TIP3    H134831   5.700   6.028  14.171 -0.7075  0.2280  1.9429
 4472TIP3    H234832   5.713   5.922  14.279 -0.1969 -1.9576 -0.1831
 4473TIP3   OH234833   3.520   5.427   1.612 -0.3531 -0.2798 -0.4326
 4473TIP3    H134834   3.546   5.458   1.699  0.9614  0.5285 -1.0778
 4473TIP3    H234835   3.445   5.370   1.629 -0.6974  0.5519  1.1487
 4474TIP3   OH234836   2.342   1.043  17.254  0.3206 -0.3052 -0.8442
 4474TIP3    H134837   2.409   1.058  17.188  0.7361  2.7865  0.1472
 4474TIP3    H234838   2.262   1.081  17.217  0.0157 -0.5727 -0.4748
 4475TIP3   OH234839   6.147   1.473   5.544  0.2421 -0.3475  0.6618
 4475TIP3    H134840   6.106   1.389   5.525  0.6318  0.0183 -2.2739
 4475TIP3    H234841   6.100   1.535   5.488  0.0226  1.4299  2.6718
 4476TIP3   OH234842   6.179   3.855  14.339 -0.1964  0.3464 -0.2785
 4476TIP3    H134843   6.127   3.925  14.378  0.4940  0.4053  0.5680
 4476TIP3    H234844   6.125   3.776  14.349 -0.8541  0.6961 -0.9860
 4477TIP3   OH234845   2.847   6.563  12.169 -0.1715  0.4449 -0.1545
 4477TIP3    H134846   2.877   6.633  12.226  1.8588 -0.4140 -0.1064
 4477TIP3    H234847   2.755   6.585  12.151  0.5594  3.4852 -0.7367
 4478TIP3   OH234848   1.667   0.620  11.801 -0.3602 -0.0302 -0.1745
 4478TIP3    H134849   1.646   0.537  11.758 -0.7758 -0.1927  0.3266
 4478TIP3    H234850   1.610   0.621  11.878  0.2607  0.3304  0.2809
 4479TIP3   OH234851   6.214   5.561   2.078  0.5955 -0.7616 -0.4710
 4479TIP3    H134852   6.253   5.576   1.992  0.5558 -0.9656 -0.5230
 4479TIP3    H234853   6.289   5.541   2.134  0.6615 -0.2803 -0.3794
 4480TIP3   OH234854   1.141   5.284   5.485 -0.0557 -0.2420  0.2037
 4480TIP3    H134855   1.149   5.279   5.580 -0.4597 -1.4487  0.1981
 4480TIP3    H234856   1.107   5.198   5.459  0.4723 -0.0949 -1.0790
 4481TIP3   OH234857   1.172   3.659   5.420 -0.1645  0.3266  0.2073
 4481TIP3    H134858   1.218   3.673   5.337 -1.4848  1.2172 -0.4137
 4481TIP3    H234859   1.079   3.664   5.397 -0.7789 -3.8408  0.9639
 4482TIP3   OH234860   3.940   2.738   6.209  0.7103  0.3402 -0.5229
 4482TIP3    H134861   3.909   2.647   6.209  0.6032  0.3744 -0.1559
 4482TIP3    H234862   4.006   2.741   6.139 -1.1993  0.6410 -2.3972
 4483TIP3   OH234863   3.049   2.688   1.742  0.2884  0.1384 -0.3791
 4483TIP3    H134864   3.141   2.662   1.751 -0.0288 -1.5211 -1.6244
 4483TIP3    H234865   3.006   2.650   1.819  0.6402  1.0205  0.2709
 4484TIP3   OH234866   6.238   0.503  12.284  0.3859  0.6745  0.6888
 4484TIP3    H134867   6.316   0.543  12.322 -0.1662  0.6444  1.9125
 4484TIP3    H234868   6.165   0.556  12.317 -0.4191 -1.5004  2.7375
 4485TIP3   OH234869   0.025   1.785   4.182  0.1676 -0.3009 -0.4858
 4485TIP3    H134870  -0.047   1.814   4.126 -0.7108  0.0287  0.7790
 4485TIP3    H234871   0.036   1.855   4.246 -0.0161 -1.4279  0.8186
 4486TIP3   OH234872   0.497   3.994   0.917  0.5045 -0.4711 -0.3659
 4486TIP3    H134873   0.408   3.972   0.888 -0.3997  2.1158  0.1528
 4486TIP3    H234874   0.519   3.926   0.980  0.2370 -2.9726 -2.7844
 4487TIP3   OH234875   1.416   0.350   5.606  0.1185 -0.3710  0.4909
 4487TIP3    H134876   1.506   0.330   5.580  0.5287  0.3903  1.2332
 4487TIP3    H234877   1.406   0.443   5.586  0.2617  0.1036  2.4145
 4488TIP3   OH234878   4.735   1.702   3.135  0.1614  0.3431  0.0505
 4488TIP3    H134879   4.831   1.709   3.134  0.1903 -0.0188 -1.3111
 4488TIP3    H234880   4.707   1.772   3.194  1.2371  0.9815 -0.1609
 4489TIP3   OH234881   3.263   0.424   3.427 -0.2145 -0.0921 -0.1194
 4489TIP3    H134882   3.214   0.342   3.419 -0.8827  0.2359  0.5436
 4489TIP3    H234883   3.354   0.399   3.409 -0.0926 -1.3696  2.0038
 4490TIP3   OH234884   3.977   2.673   1.219 -0.6006  0.2195  0.0810
 4490TIP3    H134885   4.007   2.626   1.297 -2.9934 -2.0677 -0.2403
 4490TIP3    H234886   3.977   2.607   1.149 -2.5436  1.0871 -0.8139
 4491TIP3   OH234887   0.034   0.351   4.341  0.1168  0.1947 -0.6763
 4491TIP3    H134888   0.044   0.294   4.265  0.4484 -1.1291  0.3170
 4491TIP3    H234889   0.010   0.436   4.305 -0.1304 -0.5043 -2.2230
 4492TIP3   OH234890   4.520   2.282   4.196 -0.7726 -0.0495 -0.6027
 4492TIP3    H134891   4.502   2.233   4.277 -1.8224  0.9595 -0.1960
 4492TIP3    H234892   4.448   2.257   4.138 -0.3878 -0.2528 -0.9923
 4493TIP3   OH234893   5.703   0.824  14.105 -0.2356  0.5440  0.0328
 4493TIP3    H134894   5.710   0.755  14.171  1.2089  0.6533  0.0290
 4493TIP3    H234895   5.729   0.782  14.023  0.2234  0.9642 -0.0465
 4494TIP3   OH234896   2.278   1.626  12.216 -0.1518  0.6976  0.3020
 4494TIP3    H134897   2.258   1.702  12.161 -2.6065 -0.5391 -0.6289
 4494TIP3    H234898   2.266   1.657  12.305 -3.0930  0.9960 -0.1106
 4495TIP3   OH234899   0.645   5.546   5.705  0.5057  0.1215  0.0424
 4495TIP3    H134900   0.630   5.477   5.640  2.6527 -0.7009  0.3460
 4495TIP3    H234901   0.655   5.625   5.653 -0.7865  0.0355 -0.3895
 4496TIP3   OH234902   5.950   5.728  14.345 -0.2494  0.1848 -0.3750
 4496TIP3    H134903   5.896   5.704  14.269 -1.3211  0.7474  0.1906
 4496TIP3    H234904   5.888   5.767  14.407  0.6540 -0.0460  0.6948
 4497TIP3   OH234905   1.888   4.027  12.554 -0.0388  0.8503  0.3752
 4497TIP3    H134906   1.837   3.973  12.494  0.4852  2.2887 -1.4943
 4497TIP3    H234907   1.953   3.967  12.591  0.3705  0.1101 -1.4302
 4498TIP3   OH234908   1.176   4.496  16.553  0.2818  0.0803  0.6967
 4498TIP3    H134909   1.191   4.408  16.587  3.0629  0.2916  0.2611
 4498TIP3    H234910   1.192   4.554  16.628 -0.6107  0.2784  0.7464
 4499TIP3   OH234911   1.260   0.845   0.577 -0.4118 -0.0957 -0.0315
 4499TIP3    H134912   1.305   0.916   0.531 -0.3213 -0.0701  0.0947
 4499TIP3    H234913   1.237   0.783   0.508  0.5935 -0.5240  0.0053
 4500TIP3   OH234914   1.379   2.484  13.772  0.1178 -0.0757  0.3919
 4500TIP3    H134915   1.341   2.564  13.734  1.7014  0.4391 -0.1756
 4500TIP3    H234916   1.328   2.413  13.734 -0.2169  0.5839 -0.4237
 4501TIP3   OH234917   2.517   2.856   2.202  0.1029 -0.1777  0.1981
 4501TIP3    H134918   2.600   2.827   2.166 -0.5124 -0.8260 -0.7611
 4501TIP3    H234919   2.451   2.810   2.149 -0.8508 -0.1213  1.3042
 4502TIP3   OH234920   0.642   3.112  15.938  0.2730  0.3646  0.0284
 4502TIP3    H134921   0.678   3.024  15.932 -0.2609 -0.0552  2.0476
 4502TIP3    H234922   0.713   3.170  15.910  0.3340 -0.7178 -2.1731
 4503TIP3   OH234923   1.849   0.074  16.883  0.3375 -0.5847 -0.8030
 4503TIP3    H134924   1.904  -0.004  16.894 -0.2691 -0.7990  1.2086
 4503TIP3    H234925   1.842   0.110  16.971 -0.4440  1.0486 -1.4973
 4504TIP3   OH234926   5.086   3.625  11.355  0.4623  0.0531 -0.5530
 4504TIP3    H134927   5.146   3.635  11.429  0.8172  0.5714 -0.8963
 4504TIP3    H234928   5.129   3.559  11.299 -0.8700 -1.9975  0.7245
 4505TIP3   OH234929   4.063   5.133  13.904  0.7518  0.2309 -0.0420
 4505TIP3    H134930   4.080   5.227  13.896 -0.8884  0.4637 -1.4246
 4505TIP3    H234931   4.060   5.117  13.998 -2.7217  2.3735  0.3850
 4506TIP3   OH234932   2.267   5.623   4.606 -0.6658  0.1741 -0.3374
 4506TIP3    H134933   2.307   5.536   4.600  0.1051  0.3123  1.8209
 4506TIP3    H234934   2.173   5.606   4.602 -0.6157 -1.0227  1.8422
 4507TIP3   OH234935   2.448   3.599   0.436  0.6095  0.3693 -0.1602
 4507TIP3    H134936   2.357   3.569   0.444  0.8316 -0.3421 -0.2504
 4507TIP3    H234937   2.447   3.661   0.363  0.4931 -0.8662 -1.2419
 4508TIP3   OH234938   2.272   4.776  13.851 -0.1852  0.4317  0.7981
 4508TIP3    H134939   2.348   4.810  13.804 -0.2569 -0.6360 -0.1447
 4508TIP3    H234940   2.222   4.728  13.784  0.1894 -1.9423  2.1084
 4509TIP3   OH234941   3.811   5.416   0.248  0.0626  0.2254 -0.1511
 4509TIP3    H134942   3.905   5.405   0.266  0.3884 -0.3219 -2.0187
 4509TIP3    H234943   3.803   5.506   0.216 -0.1389  0.4313  0.4659
 4510TIP3   OH234944   0.286   0.453   3.410  0.7252  0.1046 -0.3274
 4510TIP3    H134945   0.291   0.378   3.470  1.2342  0.1194 -0.3454
 4510TIP3    H234946   0.352   0.435   3.343 -0.1169 -0.1009 -1.1127
 4511TIP3   OH234947   1.637   5.746  15.226  0.4385  0.5318  0.0623
 4511TIP3    H134948   1.623   5.710  15.138 -0.6672  1.7344 -0.2782
 4511TIP3    H234949   1.709   5.694  15.262  1.7445  0.7956 -2.0091
 4512TIP3   OH234950   2.412   5.902   5.204 -0.4199  0.3355 -0.0860
 4512TIP3    H134951   2.437   5.993   5.221  0.3665  0.3412 -1.1223
 4512TIP3    H234952   2.331   5.908   5.154  0.5657  0.5794 -1.7447
 4513TIP3   OH234953   3.797   0.356   5.878 -0.4017 -0.4416  0.0769
 4513TIP3    H134954   3.795   0.391   5.968 -0.6302  0.9633 -0.4541
 4513TIP3    H234955   3.839   0.270   5.888  1.2159  0.4174  1.3054
 4514TIP3   OH234956   4.653   4.509  16.933  0.2914  0.2540  0.1874
 4514TIP3    H134957   4.569   4.527  16.976 -0.3876  2.2454 -1.7809
 4514TIP3    H234958   4.665   4.582  16.872  2.1955 -1.3392 -1.4893
 4515TIP3   OH234959   0.318   1.442   3.775 -0.4393 -0.2067  0.2023
 4515TIP3    H134960   0.254   1.391   3.726 -0.9664 -0.4834  1.1555
 4515TIP3    H234961   0.278   1.528   3.786 -0.1523 -0.0209 -0.1928
 4516TIP3   OH234962   3.512   1.797  15.716  0.4370  0.1707  0.0784
 4516TIP3    H134963   3.551   1.866  15.769  0.6682 -1.5505  2.2972
 4516TIP3    H234964   3.419   1.817  15.714  0.4999  0.5526  0.7172
 4517TIP3   OH234965   2.886   4.490  12.133 -0.1523  0.3398  0.6068
 4517TIP3    H134966   2.973   4.451  12.119  0.1350  1.3559 -0.5311
 4517TIP3    H234967   2.885   4.512  12.226 -0.5109 -2.7436  1.4606
 4518TIP3   OH234968   6.033   0.871   6.780 -0.3171 -0.3565  0.2506
 4518TIP3    H134969   6.079   0.803   6.828 -0.0373 -0.6182 -0.3746
 4518TIP3    H234970   5.949   0.881   6.825 -0.2177 -0.8652  0.5498
 4519TIP3   OH234971   3.427   3.327   1.465  0.3010  0.5190  0.1381
 4519TIP3    H134972   3.496   3.369   1.517 -0.0049  0.8334  0.2983
 4519TIP3    H234973   3.346   3.358   1.505  0.0568  0.9322 -0.6500
 4520TIP3   OH234974   0.934   6.298   6.583 -0.3934  0.4752 -0.6378
 4520TIP3    H134975   1.010   6.255   6.544 -0.3540 -0.1207  0.0928
 4520TIP3    H234976   0.963   6.325   6.670 -1.1123 -0.0616 -0.2177
 4521TIP3   OH234977   1.602   4.587  12.187  0.4291 -0.7121 -0.2613
 4521TIP3    H134978   1.563   4.644  12.253  2.1534  0.9491 -0.5662
 4521TIP3    H234979   1.542   4.591  12.113 -1.3090 -2.2581  0.9598
 4522TIP3   OH234980   6.407   6.741   4.914 -0.0111 -0.5229  0.0441
 4522TIP3    H134981   6.356   6.659   4.909  0.5635 -0.8780 -0.0916
 4522TIP3    H234982   6.341   6.809   4.928 -0.6115 -0.8682 -0.9881
 4523TIP3   OH234983   4.669   5.237  15.557  0.3344  0.5397  0.3839
 4523TIP3    H134984   4.591   5.245  15.501 -1.0266 -0.7458  2.0037
 4523TIP3    H234985   4.711   5.156  15.527  0.8668  1.0429 -0.2501
 4524TIP3   OH234986   0.004   6.338   0.474 -0.2318  0.5374  0.5107
 4524TIP3    H134987   0.039   6.426   0.463 -0.0248  0.4037  0.0675
 4524TIP3    H234988  -0.023   6.334   0.566 -2.2828  1.8061  0.0110
 4525TIP3   OH234989   0.988   5.171  16.693 -0.2946 -0.0885 -0.5735
 4525TIP3    H134990   0.901   5.130  16.692 -0.5008  0.2587  1.2743
 4525TIP3    H234991   1.015   5.168  16.784  0.8081  1.5711 -0.8132
 4526TIP3   OH234992   4.804   6.104  17.180 -0.4602 -0.0301 -0.6973
 4526TIP3    H134993   4.759   6.165  17.238  0.4339  1.0878 -1.1466
 4526TIP3    H234994   4.867   6.158  17.132 -0.4087 -1.1083 -1.9121
 4527TIP3   OH234995   2.808   4.165  16.078  0.1765 -0.0539  0.2951
 4527TIP3    H134996   2.755   4.166  16.158  1.6398  1.6889  1.3009
 4527TIP3    H234997   2.896   4.144  16.108  0.6008 -0.2156 -0.9910
 4528TIP3   OH234998   0.271   3.447   2.293 -0.3453  0.1949 -0.0397
 4528TIP3    H134999   0.217   3.524   2.274 -0.3554  0.0471 -0.6315
 4528TIP3    H235000   0.241   3.418   2.379 -1.5257 -0.1475 -0.5405
 4529TIP3   OH235001   2.430   1.990  11.246  0.3015 -0.2570  0.7713
 4529TIP3    H135002   2.401   1.942  11.168 -1.9427  1.5785  0.3661
 4529TIP3    H235003   2.486   1.928  11.292 -0.2974 -2.2906 -1.0384
 4530TIP3   OH235004   4.942   1.246  15.940  0.1683  0.2494 -0.1084
 4530TIP3    H135005   5.029   1.232  15.977 -0.5692  1.4639  2.2536
 4530TIP3    H235006   4.954   1.318  15.878  0.8588  0.3481  0.1286
 4531TIP3   OH235007   6.496   0.963   3.554 -0.0860 -0.5510 -0.3065
 4531TIP3    H135008   6.453   0.944   3.638 -1.2149  0.0035 -0.7348
 4531TIP3    H235009   6.548   0.885   3.536 -1.7061 -1.7228 -0.2147
 4532TIP3   OH235010   1.303   5.034   5.378 -0.7808  0.1467 -0.2703
 4532TIP3    H135011   1.345   5.118   5.398  0.9279 -0.8222  0.4199
 4532TIP3    H235012   1.283   5.039   5.285  0.8757  0.7063 -0.6407
 4533TIP3   OH235013   6.208   3.210   6.569 -0.2800 -0.1681 -0.2011
 4533TIP3    H135014   6.287   3.211   6.515  0.8776 -0.0562  1.4293
 4533TIP3    H235015   6.178   3.119   6.565 -0.1961 -0.1706 -0.9814
 4534TIP3   OH235016   3.759   1.547  15.893 -0.0031 -0.2712  0.1634
 4534TIP3    H135017   3.672   1.581  15.912  0.2737 -0.7362  2.5997
 4534TIP3    H235018   3.743   1.473  15.834 -1.5654 -1.8050  2.3564
 4535TIP3   OH235019   0.794   2.135  16.374 -0.0979 -0.5247 -0.0704
 4535TIP3    H135020   0.800   2.148  16.280  1.5024 -0.0342  0.0683
 4535TIP3    H235021   0.700   2.128  16.392 -0.3724 -1.9533 -1.8503
 4536TIP3   OH235022   5.480   6.002   4.156  0.4713 -0.0009 -0.1160
 4536TIP3    H135023   5.549   5.953   4.110 -0.4499 -0.3837 -1.1296
 4536TIP3    H235024   5.437   6.053   4.087 -0.9186 -0.5582  0.3016
 4537TIP3   OH235025   5.274   3.941   3.679  0.3880 -0.5969 -0.1903
 4537TIP3    H135026   5.327   3.934   3.758 -0.4552 -0.7787  0.3634
 4537TIP3    H235027   5.184   3.938   3.709  0.0518 -0.9236 -1.1799
 4538TIP3   OH235028   2.813   4.354   2.556 -0.5701 -0.1079  0.6513
 4538TIP3    H135029   2.861   4.357   2.639 -0.6047 -0.6452  0.6968
 4538TIP3    H235030   2.801   4.445   2.532  2.1693  0.1051 -0.3286
 4539TIP3   OH235031   3.211   3.049   0.210  0.0662  0.1224  0.1499
 4539TIP3    H135032   3.295   3.004   0.205 -0.0414 -0.2449  1.3845
 4539TIP3    H235033   3.166   3.009   0.284 -1.4588 -0.1069 -0.8341
 4540TIP3   OH235034   5.031   2.679   5.412 -0.2810 -0.0949  0.5615
 4540TIP3    H135035   4.981   2.643   5.486 -1.5030 -0.3835 -0.3602
 4540TIP3    H235036   4.976   2.750   5.379 -0.3133 -0.7076 -0.7627
 4541TIP3   OH235037   0.853   6.476  13.258 -0.3377  0.3980  0.7017
 4541TIP3    H135038   0.784   6.418  13.289  1.3883 -1.5689  1.0470
 4541TIP3    H235039   0.833   6.489  13.165 -1.4513  0.3435  0.9173
 4542TIP3   OH235040   1.255   4.190  14.730  0.2319 -0.1749 -0.1159
 4542TIP3    H135041   1.288   4.242  14.656  0.5380 -0.7578 -0.3913
 4542TIP3    H235042   1.328   4.135  14.755 -0.0586 -0.3951  0.2509
 4543TIP3   OH235043   4.109   2.997  11.443  0.3073 -0.2095 -0.1789
 4543TIP3    H135044   4.149   2.911  11.453 -0.4083 -0.5694 -0.3554
 4543TIP3    H235045   4.021   2.987  11.480  0.6567  0.7994  1.0308
 4544TIP3   OH235046   5.855   3.146  13.889 -0.2662  0.4105 -0.5408
 4544TIP3    H135047   5.801   3.216  13.925 -0.8808  0.1022 -0.8502
 4544TIP3    H235048   5.933   3.144  13.945 -1.4800 -0.4918  1.1979
 4545TIP3   OH235049   0.679   3.695   5.363 -0.1584  0.1818 -0.2728
 4545TIP3    H135050   0.681   3.789   5.350  1.5612  0.4941  1.7716
 4545TIP3    H235051   0.737   3.659   5.296  0.8467  0.8007  0.2462
 4546TIP3   OH235052   5.683   4.158   3.227  0.0166  0.0652 -0.2348
 4546TIP3    H135053   5.624   4.194   3.161  1.1036  0.4155 -1.0428
 4546TIP3    H235054   5.766   4.148   3.182  0.1436 -2.1251  0.3765
 4547TIP3   OH235055   1.828   4.096   1.955  0.3302  0.0013  0.2357
 4547TIP3    H135056   1.898   4.141   2.003 -0.0603  2.2627 -1.1427
 4547TIP3    H235057   1.748   4.140   1.983 -0.1563 -0.2714 -0.6917
 4548TIP3   OH235058   4.495   4.663   1.155  0.2257  0.6077 -0.6303
 4548TIP3    H135059   4.565   4.696   1.212 -0.9184  1.5524  0.2698
 4548TIP3    H235060   4.493   4.568   1.173  0.6005  0.7231  0.0963
 4549TIP3   OH235061   2.449   1.724  16.204  0.1270 -0.4740 -0.5629
 4549TIP3    H135062   2.535   1.715  16.244  0.6341 -0.2448 -1.5707
 4549TIP3    H235063   2.423   1.635  16.182  0.8472 -0.4112 -1.7418
 4550TIP3   OH235064   5.936   6.470  12.547 -0.4635  0.3097  0.5874
 4550TIP3    H135065   5.862   6.521  12.513 -0.8646  0.1009  1.1195
 4550TIP3    H235066   6.006   6.484  12.484 -1.0086  0.3857 -0.0178
 4551TIP3   OH235067   3.012   4.208  17.188 -0.1038 -0.2272 -0.3208
 4551TIP3    H135068   2.969   4.290  17.165 -3.0592 -1.3612  0.7121
 4551TIP3    H235069   3.038   4.169  17.104  0.5426  1.3105 -0.8653
 4552TIP3   OH235070   4.322   5.017   4.917  0.2554 -0.5463 -0.6578
 4552TIP3    H135071   4.327   5.071   4.996 -0.8096  0.6198 -1.3474
 4552TIP3    H235072   4.350   5.074   4.846 -0.8156 -0.9133 -1.4004
 4553TIP3   OH235073   6.011   3.975   2.585  0.1918  0.6522  0.2421
 4553TIP3    H135074   5.933   3.919   2.577  0.9388 -0.4040  0.1771
 4553TIP3    H235075   6.010   4.027   2.504 -1.3595  1.8866  1.0079
 4554TIP3   OH235076   6.055   1.046   6.338 -0.5401  0.5197 -0.0633
 4554TIP3    H135077   6.138   1.044   6.290 -1.3770  0.0957 -1.5592
 4554TIP3    H235078   6.038   1.139   6.352 -1.5593  0.8894 -3.0250
 4555TIP3   OH235079   0.751   3.864  16.543 -0.3399  0.3340 -0.4742
 4555TIP3    H135080   0.660   3.835  16.546  0.0323 -0.7885  1.3844
 4555TIP3    H235081   0.801   3.789  16.574  1.3807  0.4897 -2.6441
 4556TIP3   OH235082   2.593   5.443  13.071 -0.1361 -0.3413 -0.4125
 4556TIP3    H135083   2.617   5.380  13.002 -1.2261 -0.5400 -0.6330
 4556TIP3    H235084   2.504   5.471  13.048 -0.2190  0.1801  0.4917
 4557TIP3   OH235085   1.576   4.075   4.799 -0.7034  0.1254  0.1585
 4557TIP3    H135086   1.497   4.041   4.759 -0.7753 -1.1455  1.3104
 4557TIP3    H235087   1.552   4.090   4.890  0.4131 -0.4383  0.5611
 4558TIP3   OH235088   5.906   3.579   1.293  0.1855  0.3138 -0.0115
 4558TIP3    H135089   5.985   3.527   1.307  0.5090  0.9669  0.6673
 4558TIP3    H235090   5.858   3.532   1.225 -0.1255 -1.5194  1.3950
 4559TIP3   OH235091   2.804   2.181   6.529  0.1535 -0.0440 -0.4151
 4559TIP3    H135092   2.893   2.196   6.561  0.5658 -0.9158 -1.1032
 4559TIP3    H235093   2.797   2.235   6.450 -0.3200  0.8857  0.2512
 4560TIP3   OH235094   1.649   1.332  13.366  0.9274  0.0476  0.1594
 4560TIP3    H135095   1.644   1.387  13.445 -1.7813 -1.6656  1.3481
 4560TIP3    H235096   1.707   1.260  13.390  0.3871 -0.2844  0.4961
 4561TIP3   OH235097   1.578   4.462   4.293 -0.2284  0.0146 -0.4723
 4561TIP3    H135098   1.643   4.393   4.308  1.0763  1.0444 -1.1326
 4561TIP3    H235099   1.600   4.529   4.358  0.6868  1.2307 -1.9581
 4562TIP3   OH235100   5.656   1.395  13.140  0.2928 -0.0123  0.1758
 4562TIP3    H135101   5.579   1.393  13.197  0.7493  0.5473  0.8330
 4562TIP3    H235102   5.720   1.448  13.189  0.3355  1.3886 -1.3134
 4563TIP3   OH235103   1.319   5.901   6.219 -0.6489  0.3113  0.4314
 4563TIP3    H135104   1.352   5.978   6.267 -1.4075  2.2588 -1.9507
 4563TIP3    H235105   1.229   5.923   6.198 -0.1549 -0.0578 -2.4571
 4564TIP3   OH235106   2.241   6.500   1.927  0.2787 -0.5346 -0.0029
 4564TIP3    H135107   2.195   6.416   1.937  1.6574 -1.4411 -0.9051
 4564TIP3    H235108   2.257   6.508   1.833 -1.4961  1.7103 -0.1855
 4565TIP3   OH235109   3.357   1.776  11.684  0.2014 -0.1242  0.2590
 4565TIP3    H135110   3.387   1.724  11.609  1.9221  2.1160 -0.7210
 4565TIP3    H235111   3.272   1.809  11.657  1.8488  2.7423 -1.9761
 4566TIP3   OH235112   0.824   4.507   3.566  0.0500  0.1346  0.2543
 4566TIP3    H135113   0.915   4.501   3.537 -0.4454 -0.3304 -1.2894
 4566TIP3    H235114   0.812   4.431   3.622  0.3066 -0.4089 -0.4218
 4567TIP3   OH235115   3.660   4.436  11.308 -0.4080  0.2248 -0.5405
 4567TIP3    H135116   3.696   4.455  11.394 -0.4440  1.0731 -0.7094
 4567TIP3    H235117   3.568   4.414  11.325 -0.8446  1.9740 -0.5144
 4568TIP3   OH235118   4.026   0.789   1.659 -0.1676  0.1090 -0.1355
 4568TIP3    H135119   4.007   0.701   1.627 -1.7546  0.5779 -0.6044
 4568TIP3    H235120   3.951   0.842   1.629  0.2526  1.4052  0.9869
 4569TIP3   OH235121   0.905   1.527   6.021  0.8735  0.6931  0.8085
 4569TIP3    H135122   0.851   1.452   6.047 -2.4568  2.9716  1.1067
 4569TIP3    H235123   0.964   1.541   6.095  0.7732 -0.9117  1.2294
 4570TIP3   OH235124   3.519   3.245   1.190  0.3468  0.1883  0.0729
 4570TIP3    H135125   3.505   3.338   1.204 -0.9119  0.2904 -1.6512
 4570TIP3    H235126   3.445   3.202   1.233 -0.6442  0.1903 -1.5641
 4571TIP3   OH235127   2.875   5.238   2.447 -0.3756 -0.5807  0.3130
 4571TIP3    H135128   2.831   5.245   2.362 -0.0256 -0.4078  0.1430
 4571TIP3    H235129   2.871   5.327   2.483 -1.7674 -0.9458  1.1121
 4572TIP3   OH235130   0.069   0.241  11.309  0.1099  0.2755 -0.4106
 4572TIP3    H135131   0.147   0.192  11.282 -0.8580 -0.4364 -2.1160
 4572TIP3    H235132  -0.000   0.175  11.314 -0.7471  1.1376 -0.6134
 4573TIP3   OH235133   4.714   0.053   5.107  0.1276  0.2684 -0.1362
 4573TIP3    H135134   4.809   0.044   5.097  0.1827  1.4077 -0.7037
 4573TIP3    H235135   4.703   0.114   5.180 -0.1534  0.9059 -0.7051
 4574TIP3   OH235136   0.790   4.162  15.144 -0.1187 -0.1692 -0.1502
 4574TIP3    H135137   0.793   4.099  15.217 -0.1088 -1.0146 -0.8659
 4574TIP3    H235138   0.784   4.107  15.066 -0.5788  0.7397 -0.7632
 4575TIP3   OH235139   1.319   3.470  16.957  0.0477 -0.1553  0.1629
 4575TIP3    H135140   1.370   3.550  16.942 -1.0815  0.9095  1.7080
 4575TIP3    H235141   1.291   3.443  16.869  0.0720  1.4074 -0.3679
 4576TIP3   OH235142   1.766   0.308  13.946  0.1967  0.2547 -0.1491
 4576TIP3    H135143   1.725   0.270  13.868 -0.8788 -0.9874  0.9523
 4576TIP3    H235144   1.763   0.402  13.932 -0.9601  0.0957 -1.1315
 4577TIP3   OH235145   4.267   6.229  13.463  0.9112  0.1942 -0.1007
 4577TIP3    H135146   4.332   6.295  13.439  0.1519  1.1582  0.4218
 4577TIP3    H235147   4.314   6.146  13.456  2.2080  0.8606  0.3325
 4578TIP3   OH235148   1.791   4.363  15.326  0.0882 -0.1395  0.3727
 4578TIP3    H135149   1.864   4.421  15.346  0.3457  0.0752 -1.0711
 4578TIP3    H235150   1.797   4.293  15.391  0.5283  0.7753  1.3438
 4579TIP3   OH235151   5.682   4.430   1.548  0.5879 -0.2318 -0.4139
 4579TIP3    H135152   5.751   4.438   1.482  0.2531  1.3005 -0.6190
 4579TIP3    H235153   5.697   4.503   1.608 -2.9433  2.6144 -2.5281
 4580TIP3   OH235154   0.696   5.629  11.696  0.0504  0.1142 -0.2934
 4580TIP3    H135155   0.788   5.625  11.724 -0.0419  1.0209  0.1803
 4580TIP3    H235156   0.670   5.720  11.712 -0.1054  0.6268 -3.0360
 4581TIP3   OH235157   6.666   4.734   0.596 -0.7871 -0.3210 -0.2256
 4581TIP3    H135158   6.701   4.707   0.511 -0.4532 -0.6389  0.0142
 4581TIP3    H235159   6.652   4.653   0.644 -0.0181 -0.0904  0.4041
 4582TIP3   OH235160   4.652   4.511  15.090  0.1338 -0.3984  0.4519
 4582TIP3    H135161   4.621   4.601  15.090  0.8128 -0.1475 -0.4943
 4582TIP3    H235162   4.721   4.509  15.024  0.6992 -1.4184  1.0322
 4583TIP3   OH235163   2.195   3.536   6.291  0.2250 -0.2136  0.1132
 4583TIP3    H135164   2.276   3.571   6.254  0.2482  1.4259  1.5950
 4583TIP3    H235165   2.132   3.541   6.219  1.0643 -0.1136 -0.6275
 4584TIP3   OH235166   1.342   3.421  11.657  0.6593  0.5900 -0.8918
 4584TIP3    H135167   1.365   3.483  11.588 -0.8400  1.1846 -0.9056
 4584TIP3    H235168   1.250   3.442  11.678  0.0090 -1.8142 -1.0905
 4585TIP3   OH235169   0.365   6.437  12.774  0.1666 -0.2835 -0.4931
 4585TIP3    H135170   0.343   6.492  12.700  1.3492  0.9892  0.0670
 4585TIP3    H235171   0.281   6.419  12.817 -0.3304  0.2971 -1.2145
 4586TIP3   OH235172   5.502   1.577   1.292 -0.1174 -0.4513 -0.5670
 4586TIP3    H135173   5.536   1.666   1.284 -0.6037 -0.1767  0.2542
 4586TIP3    H235174   5.531   1.533   1.212  0.2915  0.3868 -0.8965
 4587TIP3   OH235175   3.634   0.499   4.862  0.0944 -0.7984  0.2633
 4587TIP3    H135176   3.651   0.585   4.824  0.4938 -1.6318 -1.5587
 4587TIP3    H235177   3.710   0.481   4.916  1.5627 -1.3023 -1.8659
 4588TIP3   OH235178   1.679   3.712   5.918  0.4886  0.4725 -0.2362
 4588TIP3    H135179   1.640   3.777   5.859  0.0840  0.9948  0.5961
 4588TIP3    H235180   1.610   3.690   5.980  0.6270 -0.7472 -0.4741
 4589TIP3   OH235181   3.196   2.410  11.808  0.1140  0.6587 -0.4003
 4589TIP3    H135182   3.176   2.317  11.814 -0.1935  0.7677  0.5177
 4589TIP3    H235183   3.268   2.423  11.870  0.6450  0.9104 -1.0555
 4590TIP3   OH235184   6.391   5.493  12.315 -0.2493 -0.2350 -0.2049
 4590TIP3    H135185   6.324   5.433  12.282 -0.5590  1.1599 -2.3188
 4590TIP3    H235186   6.355   5.580  12.300  1.4906  0.5241 -0.1922
 4591TIP3   OH235187   5.728   4.394  14.176 -0.4569  1.2605  0.4793
 4591TIP3    H135188   5.711   4.301  14.192 -0.7974  1.2264 -0.0529
 4591TIP3    H235189   5.659   4.421  14.114  1.7662  0.9277 -2.3825
 4592TIP3   OH235190   0.740   0.826  11.498 -0.9674 -0.3757 -0.2481
 4592TIP3    H135191   0.833   0.837  11.519 -0.8390  0.4088 -1.1588
 4592TIP3    H235192   0.697   0.902  11.538 -1.2965 -0.9644  0.5487
 4593TIP3   OH235193   6.017   5.006  15.786  0.2252 -0.4704 -0.4901
 4593TIP3    H135194   5.936   5.028  15.738 -0.2873 -0.1913  0.4848
 4593TIP3    H235195   5.988   4.986  15.875  1.5297  3.5238  1.0530
 4594TIP3   OH235196   2.396   0.694  16.140 -0.0286 -0.6064 -0.9269
 4594TIP3    H135197   2.300   0.686  16.140 -0.1978 -0.3896  2.8574
 4594TIP3    H235198   2.428   0.604  16.131 -0.5060 -0.6402 -2.6447
 4595TIP3   OH235199   6.199   2.026  16.825  0.4274  0.1048 -0.8389
 4595TIP3    H135200   6.104   2.015  16.831  0.0519  3.1230  0.4462
 4595TIP3    H235201   6.212   2.092  16.757  1.4799  0.5916 -0.1943
 4596TIP3   OH235202   6.064   3.432   2.878  0.0981  0.9148 -0.6981
 4596TIP3    H135203   6.116   3.491   2.932  0.5494  0.3553 -0.5118
 4596TIP3    H235204   6.110   3.431   2.793  0.7319 -0.0148 -0.3611
 4597TIP3   OH235205   4.422   0.800   0.757 -0.2006 -0.1069  0.0428
 4597TIP3    H135206   4.356   0.782   0.690  0.1771  1.2689 -0.7393
 4597TIP3    H235207   4.493   0.738   0.738 -0.3513 -0.1327 -0.4371
 4598TIP3   OH235208   2.187   6.249   6.254  0.4433 -0.4566  0.0999
 4598TIP3    H135209   2.213   6.179   6.314  3.0979 -0.2913 -0.7202
 4598TIP3    H235210   2.229   6.226   6.171  0.4938  1.5447 -0.4773
 4599TIP3   OH235211   0.458   4.915   4.706  0.2846  0.9359  0.0025
 4599TIP3    H135212   0.520   4.845   4.726  0.2854  1.0600  0.4665
 4599TIP3    H235213   0.434   4.950   4.792  1.2511  2.3302 -0.2482
 4600TIP3   OH235214   3.943   2.565  15.935 -0.4324 -0.3778  0.0976
 4600TIP3    H135215   4.031   2.551  15.969 -0.8803 -2.0177  0.7093
 4600TIP3    H235216   3.915   2.648  15.973 -0.0452 -1.0306  1.9189
 4601TIP3   OH235217   0.639   3.806   3.022  0.1003  0.2964  0.3330
 4601TIP3    H135218   0.708   3.776   3.080  1.5388  1.1692 -0.8713
 4601TIP3    H235219   0.666   3.778   2.935  0.2170  2.7474 -0.5006
 4602TIP3   OH235220   6.181   6.406  14.879  0.3717  0.1099 -0.4959
 4602TIP3    H135221   6.247   6.439  14.940  1.1545  1.7845 -2.1565
 4602TIP3    H235222   6.141   6.331  14.925  1.2945  0.9349  1.7968
 4603TIP3   OH235223   1.493   5.158  15.240  0.1544  0.1315 -0.5780
 4603TIP3    H135224   1.560   5.096  15.211  0.1565 -1.7644  2.8750
 4603TIP3    H235225   1.413   5.128  15.199  0.4092 -1.4387 -0.0099
 4604TIP3   OH235226   0.643   4.618  13.583 -0.4178 -0.4246  0.1205
 4604TIP3    H135227   0.695   4.698  13.576 -2.5198  0.8988 -1.3195
 4604TIP3    H235228   0.701   4.549  13.549  0.3210  1.0598 -1.8516
 4605TIP3   OH235229   2.437   4.648  12.582 -0.1258 -0.9344 -0.2670
 4605TIP3    H135230   2.431   4.739  12.554 -0.0010 -0.5708  0.8189
 4605TIP3    H235231   2.453   4.653  12.677  1.5432 -2.0479 -0.4379
 4606TIP3   OH235232   4.380   5.792  11.297 -0.2256  0.1346 -0.5826
 4606TIP3    H135233   4.307   5.729  11.304  0.9280 -1.3110 -1.0120
 4606TIP3    H235234   4.337   5.877  11.286 -1.8576 -0.7518 -1.4812
 4607TIP3   OH235235   4.172   1.648  16.006  0.1940  0.1156 -0.6207
 4607TIP3    H135236   4.233   1.603  16.065 -0.2594 -1.0732 -1.0097
 4607TIP3    H235237   4.226   1.708  15.956  1.6935 -2.9876 -3.0471
 4608TIP3   OH235238   5.861   4.149  16.970 -0.7945 -0.3754 -0.1060
 4608TIP3    H135239   5.886   4.145  17.062  0.3826  0.8300 -0.3384
 4608TIP3    H235240   5.883   4.063  16.935  0.9366 -0.1110  0.2446
 4609TIP3   OH235241   1.627   3.821   2.177 -0.3915 -0.3721  0.4049
 4609TIP3    H135242   1.558   3.755   2.178 -0.9518  0.2081  0.2829
 4609TIP3    H235243   1.630   3.854   2.267 -1.5660  0.9144  0.0143
 4610TIP3   OH235244   2.125   6.494  16.051 -0.4420  0.8509  0.2249
 4610TIP3    H135245   2.180   6.471  15.976 -0.9786  0.0766  0.0669
 4610TIP3    H235246   2.076   6.571  16.022 -0.0914  1.0109  0.0533
 4611TIP3   OH235247   3.019   4.608   0.169  0.5134 -0.4599 -0.2083
 4611TIP3    H135248   2.981   4.647   0.248 -0.9287  0.7089 -1.4285
 4611TIP3    H235249   3.052   4.683   0.119  0.4599 -1.0928 -1.2120
 4612TIP3   OH235250   2.103   0.264  17.138  0.1720  0.0076 -0.2738
 4612TIP3    H135251   2.119   0.179  17.177 -0.5776 -1.2132 -2.4065
 4612TIP3    H235252   2.015   0.256  17.100  0.2962  1.5324 -0.9611
 4613TIP3   OH235253   2.700   4.643  15.796  0.2942  0.2945  0.1654
 4613TIP3    H135254   2.690   4.716  15.857 -2.2879 -0.1801  0.4146
 4613TIP3    H235255   2.613   4.604  15.790  1.1805 -1.6425 -1.3985
 4614TIP3   OH235256   2.625   2.330  17.188 -0.0954  0.1268 -0.3102
 4614TIP3    H135257   2.570   2.402  17.156 -1.8638 -0.7215  0.6321
 4614TIP3    H235258   2.609   2.328  17.283 -1.4672 -2.5057 -0.4840
 4615TIP3   OH235259   3.542   5.364  12.427  0.2024 -0.2927 -0.4828
 4615TIP3    H135260   3.558   5.458  12.437  1.5872 -0.6418  0.9356
 4615TIP3    H235261   3.502   5.338  12.510 -2.0274 -0.6508 -1.5865
 4616TIP3   OH235262   4.266   4.107   6.147  0.0868 -0.0096 -0.5814
 4616TIP3    H135263   4.339   4.164   6.172  1.0882 -0.9750 -1.2074
 4616TIP3    H235264   4.197   4.128   6.209  1.1154  0.4964  0.4284
 4617TIP3   OH235265   0.264   1.374  15.504 -0.1111  0.0556 -0.3143
 4617TIP3    H135266   0.297   1.458  15.535  0.0935  0.2521 -1.0473
 4617TIP3    H235267   0.222   1.394  15.420  0.4389 -0.6624 -0.7796
 4618TIP3   OH235268   1.814   4.703  14.965 -0.5353 -0.0731 -0.1026
 4618TIP3    H135269   1.802   4.611  14.990 -0.1297  0.0038  0.3992
 4618TIP3    H235270   1.896   4.704  14.916 -1.4475 -0.2592 -1.6876
 4619TIP3   OH235271   1.275   6.137  14.230  0.2124 -0.0176  0.1545
 4619TIP3    H135272   1.319   6.177  14.304 -0.6900  2.7015 -0.6470
 4619TIP3    H235273   1.188   6.114  14.262  0.4587 -0.6265  0.4022
 4620TIP3   OH235274   0.497   5.317   3.302 -0.1693  0.0014  0.4963
 4620TIP3    H135275   0.544   5.390   3.261 -1.2303  1.7820  2.2416
 4620TIP3    H235276   0.456   5.270   3.229  1.7161  0.2568 -0.7898
 4621TIP3   OH235277   4.514   3.155  14.587 -0.2052  0.2695  0.0927
 4621TIP3    H135278   4.607   3.136  14.572 -0.7174 -1.0982 -1.5007
 4621TIP3    H235279   4.473   3.070  14.595 -1.5608  0.8345 -0.6443
 4622TIP3   OH235280   5.950   3.419   1.947 -0.7421 -0.1087  0.2403
 4622TIP3    H135281   5.966   3.428   1.853  1.5310  0.0648  0.5806
 4622TIP3    H235282   5.919   3.506   1.974  0.1320  0.3326 -0.1110
 4623TIP3   OH235283   0.537   1.814   0.992  0.6576  0.5700 -0.2541
 4623TIP3    H135284   0.564   1.873   1.061  0.5831  1.5050 -1.0008
 4623TIP3    H235285   0.523   1.730   1.036  0.4318  1.1851  0.8857
 4624TIP3   OH235286   4.411   4.123  16.259  0.4006 -0.1240 -0.6904
 4624TIP3    H135287   4.389   4.125  16.166 -1.1512  0.1578 -0.3391
 4624TIP3    H235288   4.507   4.118  16.260  0.5052  0.7060 -2.2897
 4625TIP3   OH235289   3.552   6.160  14.347  0.0645  1.0013 -0.4789
 4625TIP3    H135290   3.606   6.199  14.417 -0.6799  1.0195  0.0961
 4625TIP3    H235291   3.462   6.185  14.369 -0.5111 -1.4645  0.2127
 4626TIP3   OH235292   5.371   2.279   2.146  0.3682  0.9063 -0.6031
 4626TIP3    H135293   5.299   2.223   2.176  0.5215  0.9661 -0.1194
 4626TIP3    H235294   5.450   2.226   2.160  0.5026  1.1926 -0.2710
 4627TIP3   OH235295   4.325   3.642  10.612 -0.3705  0.0655 -0.4566
 4627TIP3    H135296   4.249   3.688  10.576 -1.3587 -1.1100  0.0428
 4627TIP3    H235297   4.398   3.702  10.598 -1.7033  2.1406  0.9006
 4628TIP3   OH235298   1.145   2.031   3.387  0.2208 -0.3836 -0.3729
 4628TIP3    H135299   1.055   2.009   3.410 -0.3357  1.0019 -1.0705
 4628TIP3    H235300   1.197   1.958   3.419 -1.1769 -1.3226 -0.1647
 4629TIP3   OH235301   6.360   4.269  12.714  0.3975 -0.4746  0.2591
 4629TIP3    H135302   6.426   4.202  12.734  1.1971  0.3283  0.3869
 4629TIP3    H235303   6.411   4.343  12.680 -0.5506 -0.2526 -0.7292
 4630TIP3   OH235304   1.503   5.376   2.416  0.3041  0.2328  0.0970
 4630TIP3    H135305   1.444   5.439   2.457  0.9559  0.9384 -0.0315
 4630TIP3    H235306   1.553   5.427   2.352  1.3353 -0.2496  0.4892
 4631TIP3   OH235307   0.711   2.017  15.197  0.8669 -0.3892  0.0111
 4631TIP3    H135308   0.649   2.017  15.269  0.6142  0.0489 -0.2037
 4631TIP3    H235309   0.756   1.932  15.204 -0.3299 -1.0738 -0.3238
 4632TIP3   OH235310   6.471   3.869   2.432  0.4675  0.2265  0.1943
 4632TIP3    H135311   6.518   3.916   2.501  0.3800 -0.6497  0.8727
 4632TIP3    H235312   6.527   3.875   2.355  1.4951 -0.4046  0.8671
 4633TIP3   OH235313   4.166   1.136  16.808  0.3564 -0.3486  0.1463
 4633TIP3    H135314   4.217   1.104  16.883 -1.3733  0.2430  1.6568
 4633TIP3    H235315   4.082   1.091  16.816 -1.5641  3.1530  1.3793
 4634TIP3   OH235316   5.796   0.463   2.222 -0.2169  0.4053  0.6006
 4634TIP3    H135317   5.746   0.544   2.211  1.3381  1.1778 -1.3710
 4634TIP3    H235318   5.828   0.443   2.134  3.9992  0.6713  1.8841
 4635TIP3   OH235319   5.792   5.364   4.742 -0.0058  0.3301  0.5536
 4635TIP3    H135320   5.703   5.398   4.747 -1.0701 -2.3269  1.2850
 4635TIP3    H235321   5.820   5.383   4.652 -0.5483  2.7816  0.8294
 4636TIP3   OH235322   1.449   2.186  12.428  0.1022  0.1732  0.3711
 4636TIP3    H135323   1.500   2.142  12.360  1.5135  0.7135  1.0320
 4636TIP3    H235324   1.471   2.139  12.509  0.2705  0.9744  0.8074
 4637TIP3   OH235325   1.956   2.974   6.599 -0.2058 -0.1279 -0.0000
 4637TIP3    H135326   1.945   3.045   6.663 -0.4727  1.0651 -1.3070
 4637TIP3    H235327   1.881   2.917   6.613  0.0984 -0.2677  1.1883
 4638TIP3   OH235328   5.281   3.623  16.224 -0.0636  0.0498  0.1446
 4638TIP3    H135329   5.322   3.538  16.241  1.4716  0.1000 -2.7023
 4638TIP3    H235330   5.351   3.687  16.239  0.3042  0.3384 -2.3778
 4639TIP3   OH235331   6.656   6.268   0.737 -0.6588  0.0378  0.4663
 4639TIP3    H135332   6.652   6.172   0.739 -1.4151  0.0639  0.6154
 4639TIP3    H235333   6.623   6.294   0.823 -2.2466  0.4680 -0.2462
 4640TIP3   OH235334   5.468   2.609   0.117 -0.3901 -0.3805 -0.1026
 4640TIP3    H135335   5.505   2.668   0.052 -0.7319 -1.5223 -1.3673
 4640TIP3    H235336   5.397   2.659   0.157  1.2508  1.1535  1.0477
 4641TIP3   OH235337   2.708   3.913  14.175  0.8779  0.4309 -0.0439
 4641TIP3    H135338   2.660   3.996  14.179 -0.3484 -0.2056 -0.8938
 4641TIP3    H235339   2.685   3.876  14.089  1.7368 -0.5907  0.1473
 4642TIP3   OH235340   2.487   3.717   3.480 -0.6866  0.5211  0.3065
 4642TIP3    H135341   2.513   3.630   3.510 -0.5267  0.6367  0.5008
 4642TIP3    H235342   2.568   3.767   3.476 -0.6848  0.4752 -0.4335
 4643TIP3   OH235343   4.983   2.664   3.858 -0.1417  0.0489  0.4592
 4643TIP3    H135344   4.945   2.595   3.912 -1.5245  0.5333  0.1358
 4643TIP3    H235345   5.025   2.723   3.920 -0.9779  0.1523  0.9388
 4644TIP3   OH235346   5.617   0.258  16.976  0.5359 -0.0555  0.2661
 4644TIP3    H135347   5.643   0.255  17.068  3.2953  0.8289 -0.3823
 4644TIP3    H235348   5.653   0.177  16.939 -0.0930 -0.1460 -0.1557
 4645TIP3   OH235349   6.231   1.752  17.267  0.4192  0.0498 -0.3158
 4645TIP3    H135350   6.220   1.838  17.308 -1.7621 -0.4470  0.2780
 4645TIP3    H235351   6.184   1.692  17.325 -0.9108 -1.0322 -2.3864
 4646TIP3   OH235352   2.435   4.452  16.310 -0.0819  0.2913 -0.0653
 4646TIP3    H135353   2.487   4.374  16.330 -1.1090 -0.2822  0.4603
 4646TIP3    H235354   2.435   4.457  16.214 -0.5932 -0.7732 -0.1317
 4647TIP3   OH235355   6.601   1.487   1.340  0.0665  0.2220  0.1503
 4647TIP3    H135356   6.662   1.550   1.301  0.8165  0.4861  1.6527
 4647TIP3    H235357   6.653   1.443   1.408 -0.5846 -1.7018 -0.5592
 4648TIP3   OH235358   5.927   5.082  17.350 -0.2574  0.2837 -0.1246
 4648TIP3    H135359   6.010   5.087  17.301 -1.5253 -1.7311 -2.7415
 4648TIP3    H235360   5.929   4.995  17.390 -1.6411 -0.3937 -1.4291
 4649TIP3   OH235361   4.204   6.611   3.123 -0.1899 -0.1836  0.6598
 4649TIP3    H135362   4.299   6.613   3.112 -0.1470 -0.1205  1.0137
 4649TIP3    H235363   4.170   6.654   3.046  0.1407  1.3446  1.3339
 4650TIP3   OH235364   5.269   1.396   1.151 -0.2694 -0.2172  0.2254
 4650TIP3    H135365   5.210   1.358   1.086 -0.1878 -0.8915  0.5427
 4650TIP3    H235366   5.222   1.472   1.185 -0.3812  0.0457 -0.4993
 4651TIP3   OH235367   4.868   2.993  16.199 -0.2649 -0.0121  0.0372
 4651TIP3    H135368   4.843   3.077  16.239 -1.3030 -0.5237  0.4974
 4651TIP3    H235369   4.922   3.018  16.124 -5.1777  1.4792 -3.5018
 4652TIP3   OH235370   3.540   4.540   4.569  0.3341  0.1146  0.5294
 4652TIP3    H135371   3.501   4.617   4.527 -0.7034 -0.6103  0.1194
 4652TIP3    H235372   3.534   4.558   4.663  0.4442  0.6944  0.4295
 4653TIP3   OH235373   2.553   0.915  13.727 -0.2593 -0.3299 -0.6804
 4653TIP3    H135374   2.548   0.823  13.701 -0.6570 -0.6563  0.5016
 4653TIP3    H235375   2.542   0.913  13.822  1.2797  0.8052 -0.4565
 4654TIP3   OH235376   0.498   6.057  14.038  0.0206 -0.0845  0.0386
 4654TIP3    H135377   0.567   5.997  14.065 -0.2143  0.3615  1.7341
 4654TIP3    H235378   0.419   6.003  14.032 -0.5754  0.2408  3.2472
 4655TIP3   OH235379   1.417   2.388   3.606 -0.2040  0.1658 -1.1060
 4655TIP3    H135380   1.433   2.339   3.686 -1.3652  1.0322 -0.3109
 4655TIP3    H235381   1.504   2.405   3.570  0.2891 -0.9370 -0.4697
 4656TIP3   OH235382   2.058   3.157   3.832  0.0986 -0.1488  0.4379
 4656TIP3    H135383   2.001   3.121   3.899  0.2540  0.0045  0.6522
 4656TIP3    H235384   2.071   3.248   3.858 -1.3027  0.4285 -0.7573
 4657TIP3   OH235385   4.648   0.236   2.210 -0.3125  0.0649  0.4330
 4657TIP3    H135386   4.708   0.176   2.255 -1.0108  0.7413  2.3450
 4657TIP3    H235387   4.671   0.227   2.117 -0.5034 -3.2819  0.5822
 4658TIP3   OH235388   2.202   5.352  10.904 -0.3265 -0.7427  0.1647
 4658TIP3    H135389   2.144   5.283  10.935 -0.1227 -0.3778  1.3984
 4658TIP3    H235390   2.285   5.309  10.886  0.3732 -0.5777  2.6736
 4659TIP3   OH235391   6.395   1.569  15.391 -0.5837 -0.0220  0.2909
 4659TIP3    H135392   6.314   1.528  15.421 -2.1416  1.9048 -1.0556
 4659TIP3    H235393   6.367   1.649  15.346  2.0204  0.3776 -0.8192
 4660TIP3   OH235394   0.926   2.586   5.510  0.3460 -0.0332  0.1503
 4660TIP3    H135395   0.935   2.530   5.433 -1.1472  0.0171 -0.0699
 4660TIP3    H235396   0.939   2.526   5.584 -0.9530 -0.6309 -0.0895
 4661TIP3   OH235397   2.182   4.608   4.794 -0.0574 -0.3667  0.2848
 4661TIP3    H135398   2.271   4.583   4.768  0.0263 -1.2096  1.2953
 4661TIP3    H235399   2.131   4.605   4.713  0.4490 -1.6863 -0.0098
 4662TIP3   OH235400   5.366   0.808   2.054  0.5076  0.0786 -0.1556
 4662TIP3    H135401   5.325   0.837   1.973  1.7940 -0.6263 -1.0867
 4662TIP3    H235402   5.302   0.830   2.122  0.1677  2.3226 -1.1246
 4663TIP3   OH235403   0.191   1.894   0.546  0.1023 -0.1084  0.5832
 4663TIP3    H135404   0.272   1.899   0.596  0.6610  0.7775 -0.3714
 4663TIP3    H235405   0.127   1.942   0.598  0.7961  1.2252  0.2684
 4664TIP3   OH235406   4.601   2.840  12.681  0.3377  0.1134 -0.0085
 4664TIP3    H135407   4.632   2.815  12.768  3.8085 -2.3300 -1.7477
 4664TIP3    H235408   4.512   2.804  12.676  0.2427 -0.1162  2.2910
 4665TIP3   OH235409   3.912   3.715  11.620  0.5532 -0.4295 -0.1381
 4665TIP3    H135410   3.861   3.634  11.625  2.2342 -1.5240  0.1009
 4665TIP3    H235411   3.914   3.737  11.527 -0.3632 -0.3460 -0.1456
 4666TIP3   OH235412   3.740   2.300   3.594 -0.2070  0.4196 -0.4421
 4666TIP3    H135413   3.680   2.235   3.557 -1.4247  0.7003  0.9749
 4666TIP3    H235414   3.826   2.258   3.588 -1.0420 -1.6807  1.1095
 4667TIP3   OH235415   0.948   4.199   3.408 -0.4117 -0.2702 -0.7065
 4667TIP3    H135416   0.882   4.131   3.391  1.3280 -1.7525 -1.8347
 4667TIP3    H235417   1.022   4.151   3.445  0.7306  1.0852 -1.1823
 4668TIP3   OH235418   1.883   6.427   4.029  0.0952  0.6179  0.0593
 4668TIP3    H135419   1.836   6.496   3.982 -1.3214 -1.4527 -1.7682
 4668TIP3    H235420   1.813   6.375   4.069  1.0085 -0.8047 -0.1655
 4669TIP3   OH235421   3.847   2.311  16.494  0.0331  0.5089  0.1351
 4669TIP3    H135422   3.866   2.365  16.571 -0.3960  0.9256 -0.0494
 4669TIP3    H235423   3.844   2.373  16.421 -2.1157  0.4914  0.1589
 4670TIP3   OH235424   2.587   5.158  11.164  0.2739  0.5793  0.8172
 4670TIP3    H135425   2.607   5.183  11.254  0.0507  0.1151  0.9967
 4670TIP3    H235426   2.500   5.119  11.169  0.6304 -0.2726  0.5514
 4671TIP3   OH235427   3.139   3.148   4.368  0.6052  0.3418 -1.0147
 4671TIP3    H135428   3.180   3.094   4.436  0.9321  0.5866 -1.0107
 4671TIP3    H235429   3.153   3.238   4.398  1.3104  0.4803 -1.7112
 4672TIP3   OH235430   2.987   2.031  13.414 -0.4397  0.0184  0.1937
 4672TIP3    H135431   3.057   1.978  13.376  1.0519  1.3003  0.9794
 4672TIP3    H235432   2.935   2.061  13.339  0.6627  0.1083 -0.5580
 4673TIP3   OH235433   6.723   0.515  13.934 -0.3533 -0.4196 -1.1098
 4673TIP3    H135434   6.696   0.438  13.883 -2.6011 -1.9239  2.0749
 4673TIP3    H235435   6.815   0.528  13.909 -0.2053 -3.4238 -2.6134
 4674TIP3   OH235436   2.490   4.463   3.351  0.0983  0.7589 -0.1388
 4674TIP3    H135437   2.501   4.510   3.269  1.2486  0.0745 -0.4084
 4674TIP3    H235438   2.552   4.390   3.345 -1.7958 -0.9464  0.1439
 4675TIP3   OH235439   4.544   5.546  13.541  0.3841  0.0143  0.0578
 4675TIP3    H135440   4.598   5.493  13.599 -0.2352 -0.2261  0.4312
 4675TIP3    H235441   4.457   5.545  13.582 -0.0201 -0.0070 -0.7855
 4676TIP3   OH235442   6.134   2.420   3.149  0.6805  0.6130 -0.3262
 4676TIP3    H135443   6.114   2.441   3.058 -0.4193  0.1548 -0.2072
 4676TIP3    H235444   6.183   2.496   3.181  3.2750 -0.2313 -1.9522
 4677TIP3   OH235445   1.646   0.297   3.985  0.0315 -0.1033 -0.6586
 4677TIP3    H135446   1.594   0.218   3.999 -0.9322  0.2327 -2.0673
 4677TIP3    H235447   1.684   0.317   4.070 -1.2393 -1.0194  0.1569
 4678TIP3   OH235448   1.792   2.636   2.582 -0.4602 -0.4835  1.0205
 4678TIP3    H135449   1.746   2.600   2.506  3.1071 -0.8439 -1.2261
 4678TIP3    H235450   1.813   2.726   2.557  2.0066 -1.0413  0.8370
 4679TIP3   OH235451   4.977   6.670   0.111 -0.1878  0.0346 -0.2608
 4679TIP3    H135452   4.924   6.739   0.073  0.3183  0.1150 -0.8414
 4679TIP3    H235453   5.055   6.715   0.144 -0.7982  0.0278  1.2667
 4680TIP3   OH235454   4.179   5.211  16.171  0.6595  0.8890 -0.2963
 4680TIP3    H135455   4.128   5.187  16.248 -0.2171  1.0720 -0.8058
 4680TIP3    H235456   4.174   5.307  16.167  0.5746  0.8707 -0.6646
 4681TIP3   OH235457   0.921   2.072   6.615  0.3108 -0.2524  0.1647
 4681TIP3    H135458   0.853   2.026   6.664 -0.2307 -0.1148 -0.4313
 4681TIP3    H235459   0.962   2.004   6.561  1.4801 -0.5664  1.3977
 4682TIP3   OH235460   3.290   5.536   1.232 -0.2109 -0.6490  0.1793
 4682TIP3    H135461   3.271   5.536   1.139 -0.1377  2.1982  0.0652
 4682TIP3    H235462   3.378   5.498   1.239 -1.0017 -2.7576 -0.6249
 4683TIP3   OH235463   4.742   1.128  17.189 -0.0003  0.1828  0.4297
 4683TIP3    H135464   4.766   1.156  17.100 -0.8727  0.7695  0.3691
 4683TIP3    H235465   4.808   1.062  17.212  0.8754  0.8014 -0.2311
 4684TIP3   OH235466   2.487   0.568   5.012 -1.0966  0.2095 -0.1014
 4684TIP3    H135467   2.430   0.516   4.956 -1.9751  0.3037  0.6972
 4684TIP3    H235468   2.463   0.544   5.101 -1.0342  1.4562  0.2712
 4685TIP3   OH235469   1.859   0.541   1.050 -0.1374  0.0802 -0.2664
 4685TIP3    H135470   1.941   0.512   1.008 -0.0434 -2.5898  1.4795
 4685TIP3    H235471   1.795   0.543   0.979  0.9571  0.0251 -1.2802
 4686TIP3   OH235472   6.659   4.765   5.046  0.6139  0.1232  0.1432
 4686TIP3    H135473   6.724   4.817   4.999  2.0495 -1.3034  0.4589
 4686TIP3    H235474   6.706   4.733   5.123 -0.9435  0.3163  1.2003
 4687TIP3   OH235475   4.402   5.963  15.808 -0.0662 -0.2384  0.6360
 4687TIP3    H135476   4.492   5.978  15.778 -1.0297  0.7285 -2.0679
 4687TIP3    H235477   4.412   5.930  15.897  3.0880 -2.7742 -0.4392
 4688TIP3   OH235478   1.196   1.683   3.503 -0.0201 -0.1062  0.0173
 4688TIP3    H135479   1.194   1.603   3.556  0.1846 -1.3069 -1.6958
 4688TIP3    H235480   1.289   1.695   3.482 -0.2780 -0.7565 -1.6208
 4689TIP3   OH235481   4.706   0.098  13.987 -0.3723 -0.1287  0.1098
 4689TIP3    H135482   4.622   0.143  14.000 -0.1144  0.2612  0.4429
 4689TIP3    H235483   4.684   0.023  13.931 -0.4501  1.6654 -2.4447
 4690TIP3   OH235484   3.353   1.593   6.421 -0.4026 -0.8045 -0.2253
 4690TIP3    H135485   3.314   1.582   6.507  2.0727  0.4897  1.1753
 4690TIP3    H235486   3.363   1.504   6.387 -0.6323 -1.3850  1.1805
 4691TIP3   OH235487   2.938   0.526  14.550 -0.0787 -0.3782  0.1560
 4691TIP3    H135488   3.025   0.536  14.513  0.0243  1.8605  0.8762
 4691TIP3    H235489   2.952   0.515  14.644 -0.5498 -0.7332  0.1911
 4692TIP3   OH235490   3.770   5.501  14.963  0.9274  0.0929  0.1904
 4692TIP3    H135491   3.792   5.588  14.929  1.7462 -0.2451 -0.1631
 4692TIP3    H235492   3.731   5.455  14.889  0.3624  0.1903  0.4153
 4693TIP3   OH235493   6.420   4.650   0.122 -0.1764  0.8133  0.1561
 4693TIP3    H135494   6.404   4.561   0.154  0.4087  0.2788 -0.9982
 4693TIP3    H235495   6.444   4.699   0.200 -1.4026  0.1921  0.9648
 4694TIP3   OH235496   3.110   2.360  13.008  0.6589 -0.1951 -0.8610
 4694TIP3    H135497   3.016   2.380  13.008  0.8835  1.1676  1.2057
 4694TIP3    H235498   3.116   2.276  13.053  0.3159 -1.4289 -2.9733
 4695TIP3   OH235499   1.389   0.770   3.540  0.5177  0.3028 -0.5635
 4695TIP3    H135500   1.354   0.729   3.461 -0.5769 -0.4536  0.2792
 4695TIP3    H235501   1.353   0.859   3.538  0.4344  0.2621 -0.8841
 4696TIP3   OH235502   0.479   5.243   5.628  0.0235  0.9487 -0.4411
 4696TIP3    H135503   0.489   5.222   5.721 -2.2236 -1.1467 -0.5583
 4696TIP3    H235504   0.390   5.278   5.621 -0.2094  0.1198 -1.9185
 4697TIP3   OH235505   2.957   2.221   1.517 -0.1152 -0.3261 -0.4947
 4697TIP3    H135506   2.972   2.259   1.604 -2.9120 -0.5976  0.2155
 4697TIP3    H235507   3.010   2.142   1.516 -0.4936 -0.6545  1.2800
 4698TIP3   OH235508   6.167   0.016   0.436 -0.2309  0.0944  0.0362
 4698TIP3    H135509   6.249  -0.022   0.468  0.3437  2.4783  1.6805
 4698TIP3    H235510   6.170   0.003   0.341  1.5259 -0.8180  0.1766
 4699TIP3   OH235511   4.907   6.106  11.261  0.8853 -0.4462  0.3565
 4699TIP3    H135512   4.954   6.073  11.184 -1.0389  0.2730 -1.2095
 4699TIP3    H235513   4.825   6.057  11.262  0.1986  0.6721  1.0206
 4700TIP3   OH235514   6.103   5.271   5.216  0.1919  0.0853  0.7781
 4700TIP3    H135515   6.114   5.229   5.301  0.6801 -2.1364 -0.2941
 4700TIP3    H235516   6.193   5.286   5.185  0.0223  0.6796  0.5652
 4701TIP3   OH235517   0.946   5.760  13.933  0.4408 -0.1327 -0.2873
 4701TIP3    H135518   0.991   5.799  14.008  0.5607  1.3934 -1.1308
 4701TIP3    H235519   0.914   5.676  13.966  1.8216 -0.1847  1.0247
 4702TIP3   OH235520   6.748   5.749  15.393 -0.1591  0.2179 -0.2523
 4702TIP3    H135521   6.710   5.808  15.458  1.9845 -0.0088  1.3411
 4702TIP3    H235522   6.776   5.672  15.444 -0.6178 -1.0627 -1.8687
 4703TIP3   OH235523   0.090   3.272  12.452 -0.2836 -0.2277 -0.5687
 4703TIP3    H135524   0.115   3.358  12.487 -0.8536  0.0231 -0.7623
 4703TIP3    H235525   0.132   3.267  12.367  1.0837 -0.8259  0.1008
 4704TIP3   OH235526   2.751   0.809   5.432  0.4330  0.3212  0.0927
 4704TIP3    H135527   2.696   0.772   5.362 -1.8781 -1.5949  2.6969
 4704TIP3    H235528   2.825   0.749   5.439  0.4884  0.3217 -0.4694
 4705TIP3   OH235529   4.015   2.715  12.627 -0.1485 -0.2368  0.0792
 4705TIP3    H135530   3.955   2.651  12.589  3.2233 -3.4622 -0.3725
 4705TIP3    H235531   4.064   2.666  12.693  4.3006  0.9789 -1.9296
 4706TIP3   OH235532   6.099   4.567  14.694 -0.1896  0.1609 -0.4478
 4706TIP3    H135533   6.075   4.558  14.787  0.7924 -1.3639 -0.3028
 4706TIP3    H235534   6.035   4.629  14.659 -0.7789  0.5303  1.1712
 4707TIP3   OH235535   4.888   0.985  15.632  0.4123  0.0153 -0.4117
 4707TIP3    H135536   4.886   1.080  15.631 -1.3708  0.0495  1.3468
 4707TIP3    H235537   4.973   0.964  15.671  0.6317  0.9063 -0.3814
 4708TIP3   OH235538   3.348   3.369  14.653 -0.3907  0.1485 -0.0413
 4708TIP3    H135539   3.265   3.407  14.682  0.0543  2.6182 -1.7483
 4708TIP3    H235540   3.403   3.370  14.731 -1.8809 -1.5824  1.1353
 4709TIP3   OH235541   5.171   1.603  11.779 -0.5254 -0.4035  0.6415
 4709TIP3    H135542   5.092   1.657  11.791 -0.0969  0.1083  1.2210
 4709TIP3    H235543   5.239   1.666  11.757 -0.6977 -1.0318 -2.0208
 4710TIP3   OH235544   0.879   3.824   3.215 -0.3303 -0.2116 -0.0763
 4710TIP3    H135545   0.908   3.909   3.183 -1.2231  0.1874  0.1309
 4710TIP3    H235546   0.947   3.796   3.275 -0.2915  0.6120  0.2701
 4711TIP3   OH235547   2.721   6.520  16.665 -0.1406  0.3005  0.1436
 4711TIP3    H135548   2.768   6.528  16.583 -0.4259  0.2608 -0.0246
 4711TIP3    H235549   2.775   6.463  16.719 -0.2046 -0.0812 -0.1973
 4712TIP3   OH235550   6.395   2.118  14.624 -0.1006 -0.4564  0.4444
 4712TIP3    H135551   6.420   2.164  14.544  0.8505 -1.8726 -0.1152
 4712TIP3    H235552   6.375   2.188  14.686  0.4601  0.6976 -0.6196
 4713TIP3   OH235553   4.380   0.127  16.849  0.4579 -0.2348 -0.7707
 4713TIP3    H135554   4.432   0.116  16.769 -0.2558 -2.7416 -0.9664
 4713TIP3    H235555   4.445   0.123  16.920  0.7281 -1.9737 -1.0714
 4714TIP3   OH235556   2.874   5.294  14.534 -0.0352  0.6682  0.2101
 4714TIP3    H135557   2.854   5.210  14.492  2.8458 -1.2040  2.2161
 4714TIP3    H235558   2.891   5.353  14.461 -0.4342 -0.9280 -1.2745
 4715TIP3   OH235559   5.783   1.886   1.691  0.1516 -0.5118  0.4388
 4715TIP3    H135560   5.805   1.815   1.631  0.2541  1.1728 -1.6330
 4715TIP3    H235561   5.867   1.927   1.711 -0.2378  1.7586 -2.0642
 4716TIP3   OH235562   3.241   6.708   6.127 -0.0262  0.5667  0.0873
 4716TIP3    H135563   3.294   6.673   6.055 -1.3710  0.4795 -0.9151
 4716TIP3    H235564   3.304   6.743   6.189  1.2546 -0.9977 -0.2652
 4717TIP3   OH235565   6.511   3.390   2.126 -0.6286 -0.1483 -0.0349
 4717TIP3    H135566   6.466   3.312   2.095  0.7051 -2.2523  2.8939
 4717TIP3    H235567   6.488   3.397   2.219  0.3455  2.2064  0.1210
 4718TIP3   OH235568   3.370   5.015  16.520  0.6584 -0.2779 -0.2132
 4718TIP3    H135569   3.342   5.011  16.612  1.1480 -0.5069 -0.0664
 4718TIP3    H235570   3.464   5.033  16.525  0.5267  0.5944 -0.6870
 4719TIP3   OH235571   4.156   5.844  13.755 -0.1441 -0.3057 -1.0645
 4719TIP3    H135572   4.237   5.852  13.806  0.5926 -1.6895 -1.9624
 4719TIP3    H235573   4.101   5.785  13.806 -0.1282 -0.2609 -0.9969
 4720TIP3   OH235574   5.351   6.389  11.304 -0.3391  0.6322  0.5689
 4720TIP3    H135575   5.282   6.322  11.309 -1.0206  1.3972  2.6394
 4720TIP3    H235576   5.348   6.432  11.389  1.4902  1.9302  0.0332
 4721TIP3   OH235577   1.491   6.515  12.053  0.2836  0.0168  0.0265
 4721TIP3    H135578   1.410   6.537  12.008  0.1118 -1.1559 -0.2595
 4721TIP3    H235579   1.463   6.465  12.130  0.6775  0.5344  0.5180
 4722TIP3   OH235580   1.888   2.131   0.308 -0.4128 -0.2628  0.0235
 4722TIP3    H135581   1.828   2.183   0.361 -1.4434 -0.7928 -0.5888
 4722TIP3    H235582   1.954   2.194   0.279 -1.2096  0.5545 -0.0804
 4723TIP3   OH235583   0.458   3.357  15.849 -0.3367  0.5907  0.1008
 4723TIP3    H135584   0.450   3.312  15.764  0.8189  2.1191 -0.8730
 4723TIP3    H235585   0.531   3.314  15.892 -1.7539 -1.0728  0.9424
 4724TIP3   OH235586   1.864   1.652   4.019 -0.3390  0.1265 -0.1705
 4724TIP3    H135587   1.896   1.742   4.016 -1.4363  0.6092  1.4720
 4724TIP3    H235588   1.852   1.627   3.927  0.3700  1.5051 -0.6500
 4725TIP3   OH235589   0.941   5.573  10.868  0.4380 -0.0021  0.1651
 4725TIP3    H135590   0.979   5.492  10.834 -0.1405  0.0391 -0.6101
 4725TIP3    H235591   0.994   5.642  10.829 -1.2284  0.1127 -2.0472
 4726TIP3   OH235592   6.034   1.111  15.583  0.1084  0.1429  0.5870
 4726TIP3    H135593   5.987   1.091  15.664  0.2238 -0.3715  0.5313
 4726TIP3    H235594   6.109   1.051  15.583 -0.9331 -1.2293 -0.8207
 4727TIP3   OH235595   4.558   5.908  12.174  1.3019 -0.3037  0.6929
 4727TIP3    H135596   4.535   5.840  12.111  1.3714 -0.3791  0.7493
 4727TIP3    H235597   4.578   5.860  12.255 -0.2017 -0.1254  1.1928
 4728TIP3   OH235598   3.292   0.185  16.609 -0.7289 -0.3908 -0.1458
 4728TIP3    H135599   3.295   0.106  16.663 -2.3756  2.1474  4.1200
 4728TIP3    H235600   3.384   0.205  16.591 -0.1439 -1.7765  1.0582
 4729TIP3   OH235601   6.699   4.060   4.838  0.2337  0.0557  0.2331
 4729TIP3    H135602   6.616   4.089   4.875 -0.1498 -2.0192  1.1894
 4729TIP3    H235603   6.692   4.076   4.744 -1.2961 -0.1687  0.2909
 4730TIP3   OH235604   2.031   4.634  16.711 -0.2737  0.1401 -0.1258
 4730TIP3    H135605   1.954   4.631  16.768  0.1841  1.1060  0.5496
 4730TIP3    H235606   2.019   4.559  16.652 -0.6166 -1.0512  1.3869
 4731TIP3   OH235607   5.025   3.221  12.726 -0.4537 -0.6122  0.2143
 4731TIP3    H135608   4.953   3.164  12.698 -0.8327  0.0965 -0.3005
 4731TIP3    H235609   5.081   3.228  12.649 -1.3582  1.1341 -0.3577
 4732TIP3   OH235610   2.269   1.945   3.451  0.3675  0.7049 -0.1064
 4732TIP3    H135611   2.285   2.032   3.413  1.0110 -0.3307 -2.3710
 4732TIP3    H235612   2.334   1.889   3.410  0.2204 -0.8087  1.6232
 4733TIP3   OH235613   2.298   5.149   5.071 -0.0814 -0.6974 -0.2089
 4733TIP3    H135614   2.382   5.173   5.032 -0.1882  0.0088 -0.0110
 4733TIP3    H235615   2.269   5.228   5.117 -1.8416 -0.2188 -1.9798
 4734TIP3   OH235616   0.552   0.515   6.357  0.1219 -0.1872 -0.0235
 4734TIP3    H135617   0.462   0.502   6.324 -0.2658 -1.3427  1.4068
 4734TIP3    H235618   0.606   0.462   6.299 -0.0086  0.9838 -1.2730
 4735TIP3   OH235619   0.936   1.342   4.721 -0.1667 -0.4904  0.2459
 4735TIP3    H135620   0.980   1.350   4.636 -2.7155  1.0596 -1.0464
 4735TIP3    H235621   1.001   1.373   4.785  1.7383 -1.4787 -1.1165
 4736TIP3   OH235622   4.790   0.639   5.675  0.3348 -0.0615 -0.2695
 4736TIP3    H135623   4.872   0.619   5.631 -0.0514 -0.2970 -0.8949
 4736TIP3    H235624   4.772   0.730   5.651  2.2765  1.3307  2.8665
 4737TIP3   OH235625   5.155   1.851   3.847  0.4908  0.0621  0.0206
 4737TIP3    H135626   5.188   1.874   3.760  1.6922 -1.3621  0.0566
 4737TIP3    H235627   5.071   1.897   3.854  0.6285  0.6410 -1.6619
 4738TIP3   OH235628   2.061   1.721   0.158 -0.4333  0.1787 -0.8961
 4738TIP3    H135629   2.133   1.688   0.105  1.0391  1.1910  0.4046
 4738TIP3    H235630   2.039   1.649   0.216  0.3742  0.2715 -0.4653
 4739TIP3   OH235631   5.361   3.799   5.151 -0.0810  0.7019 -0.0009
 4739TIP3    H135632   5.384   3.800   5.244 -2.0340  0.4806  0.5103
 4739TIP3    H235633   5.445   3.784   5.107  0.9617  1.2510  1.6755
 4740TIP3   OH235634   4.156   1.192   3.897  0.3987  0.2760  0.1501
 4740TIP3    H135635   4.228   1.158   3.950 -0.1790 -0.5249  0.4479
 4740TIP3    H235636   4.082   1.197   3.958 -0.1769 -0.2926 -0.4799
 4741TIP3   OH235637   1.812   1.215   1.172  0.5882 -0.0569 -0.1523
 4741TIP3    H135638   1.742   1.172   1.221  0.0368 -0.0080 -0.8785
 4741TIP3    H235639   1.830   1.296   1.220 -1.2060  0.8929 -0.9947
 4742TIP3   OH235640   4.039   1.948   1.645  0.1616  0.1283 -0.7700
 4742TIP3    H135641   4.086   1.928   1.726 -2.7783 -1.6131  0.6466
 4742TIP3    H235642   4.097   2.009   1.598  2.0005  1.2235  2.6058
 4743TIP3   OH235643   4.154   6.397  14.393  0.0528 -0.6032 -0.3747
 4743TIP3    H135644   4.198   6.389  14.308  0.6261  0.7990 -0.2397
 4743TIP3    H235645   4.224   6.385  14.457  0.2467  1.4436 -0.1540
 4744TIP3   OH235646   4.265   3.884  11.153  0.0702  0.0899 -0.1727
 4744TIP3    H135647   4.210   3.908  11.079 -2.4887 -0.7738  1.3103
 4744TIP3    H235648   4.310   3.965  11.177  0.9423  0.3797 -2.5892
 4745TIP3   OH235649   0.802   4.053   2.847  0.1896  0.6143 -0.3426
 4745TIP3    H135650   0.858   3.978   2.866  0.7646  0.8595 -1.0179
 4745TIP3    H235651   0.852   4.129   2.875  1.1132  0.9989 -2.7610
 4746TIP3   OH235652   0.666   5.047   0.142  0.3433  0.7936 -0.0215
 4746TIP3    H135653   0.643   5.085   0.057 -0.5979  0.7357  0.1864
 4746TIP3    H235654   0.590   5.067   0.198  1.2505  1.4565  1.0073
 4747TIP3   OH235655   2.285   2.264   0.128  0.0839 -0.2283  0.8255
 4747TIP3    H135656   2.324   2.233   0.210  2.4115 -0.9864 -0.5007
 4747TIP3    H235657   2.289   2.189   0.069 -1.8038  0.2251  0.0299
 4748TIP3   OH235658   6.492   3.935  14.854 -0.2718 -0.1438 -0.1270
 4748TIP3    H135659   6.454   3.862  14.806 -1.1078  0.5567 -0.5566
 4748TIP3    H235660   6.585   3.914  14.859 -0.6317 -1.7146  0.6210
 4749TIP3   OH235661   4.640   3.181  12.210  0.4908  0.3517 -0.4110
 4749TIP3    H135662   4.700   3.210  12.279 -1.0839 -0.3724  1.3349
 4749TIP3    H235663   4.607   3.097  12.241 -1.7666  0.9189 -1.0730
 4750TIP3   OH235664   0.862   2.844  12.447 -0.1807 -0.2622 -0.7833
 4750TIP3    H135665   0.845   2.824  12.539  0.5610  4.6456  0.6820
 4750TIP3    H235666   0.780   2.821  12.402 -0.6413 -2.5755  1.0115
 4751TIP3   OH235667   3.195   2.325   0.706 -0.2490 -0.1672  0.5926
 4751TIP3    H135668   3.288   2.327   0.729 -0.2716  1.2368  0.6285
 4751TIP3    H235669   3.149   2.333   0.789 -0.3655  0.9589  0.4391
 4752TIP3   OH235670   0.538   5.248   1.463 -0.0588  0.3787  0.6188
 4752TIP3    H135671   0.583   5.271   1.382 -1.5825 -1.7347 -0.9584
 4752TIP3    H235672   0.445   5.250   1.439 -0.5013 -1.1966  2.0474
 4753TIP3   OH235673   3.756   4.716   5.442 -0.6118 -0.1911  0.1304
 4753TIP3    H135674   3.835   4.751   5.400 -0.6722 -0.6634 -0.3864
 4753TIP3    H235675   3.786   4.634   5.483 -0.8592 -0.4406 -0.1819
 4754TIP3   OH235676   3.070   3.453  12.033 -0.3043  0.4810 -0.1732
 4754TIP3    H135677   3.054   3.400  12.112 -1.5254  0.7567 -0.2165
 4754TIP3    H235678   3.080   3.542  12.066  0.3596  0.4387 -0.2367
 4755TIP3   OH235679   3.824   5.826  13.570  0.1190  0.1767  0.1182
 4755TIP3    H135680   3.888   5.769  13.526  1.4025  1.0926  0.7261
 4755TIP3    H235681   3.769   5.766  13.621  1.3551 -0.5497  0.6481
 4756TIP3   OH235682   5.017   6.131  15.352  0.3158  0.3277 -0.1874
 4756TIP3    H135683   4.927   6.110  15.326 -0.6724  0.4002  2.8193
 4756TIP3    H235684   5.052   6.183  15.279 -1.8002 -0.2919 -1.7449
 4757TIP3   OH235685   1.513   3.532   5.738 -0.5217 -0.2806  0.2761
 4757TIP3    H135686   1.446   3.508   5.802 -1.8516  1.4042 -0.4305
 4757TIP3    H235687   1.587   3.474   5.759 -1.9693 -1.8239  1.4169
 4758TIP3   OH235688   4.878   6.431   5.514  0.2658  0.6156  0.0796
 4758TIP3    H135689   4.812   6.467   5.573 -0.4367  0.0440 -0.3345
 4758TIP3    H235690   4.890   6.498   5.446 -0.8115  0.2258 -0.5219
 4759TIP3   OH235691   4.069   6.398   2.551  0.3402  0.1238  0.2495
 4759TIP3    H135692   3.990   6.355   2.583  0.2570  0.1362  0.0553
 4759TIP3    H235693   4.132   6.326   2.539  0.2934  0.0896  0.2061
 4760TIP3   OH235694   5.162   6.069   2.688  0.4915 -0.4771  0.2234
 4760TIP3    H135695   5.208   6.000   2.735  0.6677 -0.3483  0.2393
 4760TIP3    H235696   5.220   6.092   2.616 -0.1447 -1.2773 -0.5823
 4761TIP3   OH235697   1.665   2.907  17.344 -0.4599 -0.0020 -0.5155
 4761TIP3    H135698   1.638   2.826  17.301  1.0623 -0.4354 -0.7416
 4761TIP3    H235699   1.676   2.883  17.436 -0.8947  0.1797 -0.4175
 4762TIP3   OH235700   6.145   2.366  12.440  0.1906  0.1471 -0.3468
 4762TIP3    H135701   6.069   2.409  12.401 -0.4561  0.0839  0.7980
 4762TIP3    H235702   6.168   2.297  12.377 -0.4999  0.3615 -0.8528
 4763TIP3   OH235703   5.137   0.347   4.660  0.1497  0.3564 -0.4907
 4763TIP3    H135704   5.179   0.267   4.627  1.7937  1.3823 -0.9962
 4763TIP3    H235705   5.044   0.333   4.643  0.1632 -2.1272  0.8943
 4764TIP3   OH235706   0.698   2.121   6.103 -0.1183  0.1657 -0.1578
 4764TIP3    H135707   0.655   2.157   6.181  0.9905 -1.0961  1.0913
 4764TIP3    H235708   0.776   2.176   6.092 -0.7781  0.9688 -1.0138
 4765TIP3   OH235709   1.306   4.700   5.124 -0.3211  0.6001  0.6399
 4765TIP3    H135710   1.360   4.724   5.048 -1.5983 -0.2338 -0.5952
 4765TIP3    H235711   1.285   4.784   5.165 -0.3814  1.1707 -0.5004
 4766TIP3   OH235712   6.079   1.895  10.991 -0.4083 -0.3414  0.8743
 4766TIP3    H135713   5.995   1.883  10.947  0.5443  0.7206 -1.3955
 4766TIP3    H235714   6.145   1.879  10.923  1.1579  1.1491  1.9465
 4767TIP3   OH235715   3.476   3.881   1.743  0.2706 -0.4150 -0.1930
 4767TIP3    H135716   3.446   3.872   1.652 -1.0446  1.7399 -0.0577
 4767TIP3    H235717   3.399   3.856   1.795  0.6836 -0.6434  0.3083
 4768TIP3   OH235718   2.804   4.308   3.021  0.3147  0.4527  0.1831
 4768TIP3    H135719   2.850   4.224   3.026 -0.5782  0.0039  1.3782
 4768TIP3    H235720   2.712   4.284   3.009  0.1494  1.2831 -0.2344
 4769TIP3   OH235721   6.246   0.394   0.610  0.6379 -0.2060 -0.2504
 4769TIP3    H135722   6.289   0.320   0.653  0.3328 -0.5016 -0.4388
 4769TIP3    H235723   6.246   0.370   0.517 -0.4426 -0.4973 -0.1945
 4770TIP3   OH235724   5.343   5.740   3.942 -0.4070 -0.1050  0.4724
 4770TIP3    H135725   5.327   5.683   4.017 -0.7564 -0.6483  0.0023
 4770TIP3    H235726   5.255   5.767   3.914 -0.2545  0.4888  0.5552
 4771TIP3   OH235727   0.574   3.239   6.592  0.2738 -0.1297  0.2970
 4771TIP3    H135728   0.615   3.162   6.632 -0.1854 -0.7471 -0.3807
 4771TIP3    H235729   0.609   3.313   6.640  1.0143 -0.7431  0.7231
 4772TIP3   OH235730   0.574   3.523  14.636 -0.0848  0.1133 -0.5837
 4772TIP3    H135731   0.568   3.570  14.719  3.2075 -0.7796  0.2813
 4772TIP3    H235732   0.542   3.435  14.656 -1.0547  0.3992 -0.8005
 4773TIP3   OH235733   2.458   4.647  13.126  0.3843 -0.9195  0.1959
 4773TIP3    H135734   2.460   4.690  13.211  1.8895  0.9501 -0.7146
 4773TIP3    H235735   2.473   4.554  13.146 -1.4507 -0.9053  2.0819
 4774TIP3   OH235736   2.236   3.515   2.852  0.0965  0.1945 -0.0933
 4774TIP3    H135737   2.325   3.482   2.842 -0.2296 -0.6287 -0.3724
 4774TIP3    H235738   2.237   3.563   2.934  1.1996  1.5758 -0.8675
 4775TIP3   OH235739   5.199   4.254  10.636  0.0430 -0.1670 -0.1920
 4775TIP3    H135740   5.118   4.279  10.681  0.4170 -0.2206  0.5446
 4775TIP3    H235741   5.178   4.171  10.593 -0.1310 -0.4864  0.4877
 4776TIP3   OH235742   5.070   0.577   5.659 -0.2252  0.2445 -0.5577
 4776TIP3    H135743   5.121   0.605   5.736 -0.2583 -2.2531  0.4673
 4776TIP3    H235744   5.135   0.572   5.589  0.1676  0.7946 -0.2507
 4777TIP3   OH235745   1.993   3.034   6.335 -0.3279  0.2271  0.2177
 4777TIP3    H135746   1.956   3.021   6.422 -2.9624  0.8616 -0.7074
 4777TIP3    H235747   1.974   3.125   6.314  1.8674  0.6002 -0.3633
 4778TIP3   OH235748   1.346   3.177  11.820 -0.2221 -0.5682  0.0039
 4778TIP3    H135749   1.344   3.258  11.769 -0.4051  0.4929  1.6415
 4778TIP3    H235750   1.283   3.120  11.776 -0.6758  0.4614 -0.7253
 4779TIP3   OH235751   2.008   2.019  13.766  0.1890 -0.1805  0.3722
 4779TIP3    H135752   1.948   1.948  13.789 -0.5250  0.3493  0.1980
 4779TIP3    H235753   2.033   2.002  13.675  1.1079 -0.9534  0.7577
 4780TIP3   OH235754   2.896   5.315   0.489 -0.5315  0.3980 -0.0593
 4780TIP3    H135755   2.812   5.275   0.471 -0.0888 -0.6764  0.1918
 4780TIP3    H235756   2.876   5.407   0.507 -1.8568 -0.2157  1.8043
 4781TIP3   OH235757   4.070   6.240  17.224  0.2131  0.0464  0.1757
 4781TIP3    H135758   4.115   6.323  17.209 -1.8332  1.3120  0.6415
 4781TIP3    H235759   3.977   6.261  17.214 -0.4922 -1.7628  2.2019
 4782TIP3   OH235760   0.884   5.295  10.571 -0.1077  0.4793  0.9994
 4782TIP3    H135761   0.806   5.261  10.528  1.2568  0.4253 -1.5948
 4782TIP3    H235762   0.871   5.390  10.571  0.0536  0.5082  0.0626
 4783TIP3   OH235763   2.682   6.097  12.092 -0.0175 -0.0884  0.0748
 4783TIP3    H135764   2.611   6.066  12.036  0.9530 -2.6786  0.1574
 4783TIP3    H235765   2.727   6.164  12.040 -0.4459 -0.8838 -1.3571
 4784TIP3   OH235766   5.401   0.803   0.116 -0.3225 -0.4074 -0.2715
 4784TIP3    H135767   5.417   0.849   0.199 -0.4881  4.3897 -2.5712
 4784TIP3    H235768   5.488   0.782   0.082 -0.1032  0.3458 -0.1964
 4785TIP3   OH235769   6.309   2.500  13.606 -0.1070  0.0424  0.3894
 4785TIP3    H135770   6.231   2.497  13.550 -0.3866 -1.3661  0.8015
 4785TIP3    H235771   6.381   2.522  13.548 -0.7115  0.6657 -0.1293
 4786TIP3   OH235772   4.201   5.794  14.365 -0.1672 -0.4476  0.1722
 4786TIP3    H135773   4.295   5.780  14.357  0.2390  0.6421  2.2629
 4786TIP3    H235774   4.169   5.718  14.413  0.9193  2.0003  5.5090
 4787TIP3   OH235775   3.876   0.999   1.228 -0.0696  0.4899  0.0428
 4787TIP3    H135776   3.947   0.958   1.178  0.5074  2.3442 -0.7557
 4787TIP3    H235777   3.802   1.002   1.167  0.0978  1.2213 -0.1246
 4788TIP3   OH235778   1.444   2.965  13.436  0.1337 -0.0940  0.4034
 4788TIP3    H135779   1.508   2.977  13.506 -0.1029 -0.7288  0.7340
 4788TIP3    H235780   1.496   2.971  13.355  0.3574  0.9319  0.6142
 4789TIP3   OH235781   5.560   2.854  15.832 -0.2423 -0.0991  0.5388
 4789TIP3    H135782   5.510   2.854  15.750  0.3781  2.5795  0.0764
 4789TIP3    H235783   5.651   2.858  15.803 -0.0138  0.7707  1.3601
 4790TIP3   OH235784   0.961   1.677  14.332  0.0509  0.1202 -0.4166
 4790TIP3    H135785   0.875   1.664  14.291  0.0131  0.5176 -0.4708
 4790TIP3    H235786   0.982   1.769  14.314  1.1881 -0.3563 -1.7514
 4791TIP3   OH235787   0.250   5.286   0.509 -0.2116 -0.5801 -0.0576
 4791TIP3    H135788   0.318   5.271   0.574 -0.8955 -0.6785  0.6406
 4791TIP3    H235789   0.276   5.368   0.466 -0.9313  0.7303  1.8843
 4792TIP3   OH235790   4.832   4.691   2.213 -0.3572  0.8868 -0.3239
 4792TIP3    H135791   4.810   4.683   2.306  1.8292  1.2386  0.2863
 4792TIP3    H235792   4.811   4.782   2.191  0.8705  1.3677  0.3785
 4793TIP3   OH235793   3.566   5.774  12.218  0.9060 -0.4723 -0.4161
 4793TIP3    H135794   3.570   5.851  12.274 -0.8670 -0.7410  0.1213
 4793TIP3    H235795   3.604   5.803  12.135  0.4820  0.9040 -0.1507
 4794TIP3   OH235796   6.103   3.289   5.172  0.1405 -0.2314 -0.2290
 4794TIP3    H135797   6.051   3.219   5.210 -0.8851  1.0534  0.8740
 4794TIP3    H235798   6.144   3.251   5.095 -1.3537 -1.6827 -0.3506
 4795TIP3   OH235799   2.624   0.403  16.677 -0.5326 -0.0982 -0.1206
 4795TIP3    H135800   2.693   0.462  16.648  0.3852 -0.6170  0.9205
 4795TIP3    H235801   2.547   0.428  16.626  0.7016 -0.2477 -2.1277
 4796TIP3   OH235802   5.002   3.867  16.244  0.6859 -0.6068 -0.5166
 4796TIP3    H135803   4.918   3.880  16.201  1.2632  1.3598 -1.1467
 4796TIP3    H235804   5.002   3.774  16.268 -2.0108 -0.4950  0.2989
 4797TIP3   OH235805   0.947   0.425   4.887 -0.0092  0.0647  0.3320
 4797TIP3    H135806   1.038   0.454   4.888  0.6486 -1.8355  0.1731
 4797TIP3    H235807   0.911   0.463   4.806  1.9075 -2.4932 -1.9241
 4798TIP3   OH235808   0.650   4.711   4.782  0.2944  0.0832 -0.0215
 4798TIP3    H135809   0.690   4.677   4.702  1.6328  0.2548  0.5557
 4798TIP3    H235810   0.593   4.639   4.813 -0.5296  0.1580 -1.3023
 4799TIP3   OH235811   0.463   5.103  11.428  0.5778  0.3911 -0.7766
 4799TIP3    H135812   0.524   5.033  11.451  1.1654  0.8412 -0.9556
 4799TIP3    H235813   0.383   5.057  11.401  0.1389 -0.1688  1.3439
 4800TIP3   OH235814   3.109   5.679  10.893  0.0811 -0.3886  0.0790
 4800TIP3    H135815   3.079   5.765  10.922  2.0975 -0.2260  1.9178
 4800TIP3    H235816   3.028   5.632  10.870 -1.3201  1.0228  1.8093
 4801TIP3   OH235817   0.624   3.828   4.982 -0.1480  0.2106  0.3272
 4801TIP3    H135818   0.549   3.863   4.934 -0.3530 -2.1966 -1.3399
 4801TIP3    H235819   0.664   3.904   5.024 -1.7916  2.0062 -1.1618
 4802TIP3   OH235820   4.841   2.527   5.627  0.0839  0.4167 -1.3510
 4802TIP3    H135821   4.754   2.498   5.598 -0.8275 -0.0283  1.4978
 4802TIP3    H235822   4.824   2.613   5.668  0.8407  0.0386 -0.2081
 4803TIP3   OH235823   5.692   2.349   2.094 -0.1160  0.2769 -0.4924
 4803TIP3    H135824   5.693   2.436   2.054 -1.2368  1.1452  1.2576
 4803TIP3    H235825   5.642   2.360   2.175  0.2032 -1.8818  0.0617
 4804TIP3   OH235826   4.370   1.850   3.229 -0.2799  0.0124 -0.4085
 4804TIP3    H135827   4.401   1.856   3.138 -0.0911 -0.3932 -0.3756
 4804TIP3    H235828   4.320   1.930   3.243  2.0827  1.4760  0.0472
 4805TIP3   OH235829   4.965   2.968   3.203  0.3818  0.2978  0.4272
 4805TIP3    H135830   4.992   3.059   3.190  1.9972 -0.3218 -0.9963
 4805TIP3    H235831   5.045   2.917   3.192 -0.8956 -1.4877 -1.5223
 4806TIP3   OH235832   0.546   1.828   3.588  0.0820 -0.0176 -0.6871
 4806TIP3    H135833   0.631   1.857   3.620 -0.6964  1.4268  0.1713
 4806TIP3    H235834   0.535   1.741   3.626  0.6835  0.2556  0.1366
 4807TIP3   OH235835   5.868   1.184   5.658  0.1379  0.1377 -0.3513
 4807TIP3    H135836   5.892   1.209   5.748  0.6538 -0.8875 -0.1905
 4807TIP3    H235837   5.777   1.157   5.664 -0.6595  2.5055 -0.6530
 4808TIP3   OH235838   4.447   5.106   5.437  0.1703 -0.2506 -0.0822
 4808TIP3    H135839   4.501   5.122   5.359  1.1015 -0.4400  0.5143
 4808TIP3    H235840   4.379   5.173   5.432  0.3663 -0.0995 -0.9270
 4809TIP3   OH235841   3.065   3.117   5.156 -0.4707  0.1402 -0.4633
 4809TIP3    H135842   3.101   3.201   5.187 -1.7119  1.3045 -1.9917
 4809TIP3    H235843   2.986   3.105   5.208  0.3259 -0.7383  0.5925
 4810TIP3   OH235844   5.361   2.159   1.286 -0.6177 -0.1476  0.1308
 4810TIP3    H135845   5.348   2.087   1.348  1.2818 -2.5390 -2.0401
 4810TIP3    H235846   5.283   2.157   1.231 -1.1323  0.2847  0.8358
 4811TIP3   OH235847   0.445   1.487   0.157 -0.5625  0.0166 -0.6700
 4811TIP3    H135848   0.454   1.432   0.235 -0.0138 -0.8544 -1.3331
 4811TIP3    H235849   0.515   1.458   0.099  1.3453  3.0834 -0.1072
 4812TIP3   OH235850   4.022   0.120  15.443  0.3225 -0.4612  0.5125
 4812TIP3    H135851   4.012   0.091  15.534 -0.9651 -2.1784 -0.1163
 4812TIP3    H235852   3.975   0.203  15.439 -0.3654 -0.7979  1.2384
 4813TIP3   OH235853   1.943   3.743  13.268  0.5018 -0.4108  0.4163
 4813TIP3    H135854   1.962   3.678  13.201  1.1390 -0.7274  0.8951
 4813TIP3    H235855   1.936   3.825  13.220 -0.1595 -0.8033 -0.1716
 4814TIP3   OH235856   6.619   6.258   3.142 -0.4917 -0.2166  0.3427
 4814TIP3    H135857   6.633   6.175   3.188  0.9956  0.1972  0.6844
 4814TIP3    H235858   6.627   6.236   3.049 -2.1674 -0.8070  0.3053
 4815TIP3   OH235859   1.217   6.566  14.353 -0.7405 -0.7597 -0.5676
 4815TIP3    H135860   1.178   6.544  14.268 -0.3483  0.0180 -0.9559
 4815TIP3    H235861   1.309   6.542  14.343 -0.1655  1.4978 -1.1998
 4816TIP3   OH235862   5.445   1.075  12.665  0.3642 -0.5490 -0.0555
 4816TIP3    H135863   5.441   1.031  12.580  1.3577 -1.4030  0.3152
 4816TIP3    H235864   5.537   1.100  12.675 -0.4886  3.8228 -1.2826
 4817TIP3   OH235865   3.343   0.493  13.689  0.0934 -0.0886  0.0864
 4817TIP3    H135866   3.248   0.500  13.698  0.0207  2.6476 -1.5393
 4817TIP3    H235867   3.377   0.567  13.741  1.1862  0.0107 -0.7312
 4818TIP3   OH235868   1.164   4.508   1.317  0.0505  0.0788  0.2294
 4818TIP3    H135869   1.111   4.564   1.260 -0.2652  0.6555  1.0736
 4818TIP3    H235870   1.207   4.569   1.377  1.4140 -0.4112 -0.2186
 4819TIP3   OH235871   5.563   6.259   4.097  0.4771 -0.0237  0.2241
 4819TIP3    H135872   5.590   6.259   4.005 -2.2027  0.3112 -0.6482
 4819TIP3    H235873   5.552   6.166   4.118 -2.5134 -0.0549 -1.0543
 4820TIP3   OH235874   5.633   2.069  16.617  0.1258  0.2112 -0.3112
 4820TIP3    H135875   5.682   2.151  16.611 -1.7745  1.6182  1.6666
 4820TIP3    H235876   5.588   2.062  16.532 -1.0567  2.2066  0.0891
 4821TIP3   OH235877   1.681   6.265  11.058  0.0472  0.1224 -0.4517
 4821TIP3    H135878   1.642   6.324  10.993  1.4445  2.3735  0.6380
 4821TIP3    H235879   1.689   6.181  11.012 -2.1927  0.6754 -2.0097
 4822TIP3   OH235880   2.097   5.639   2.432 -0.1977  0.1738 -0.4323
 4822TIP3    H135881   2.113   5.711   2.494 -0.2809 -0.7523  0.7153
 4822TIP3    H235882   2.167   5.646   2.368  0.9493  0.1282  0.7700
 4823TIP3   OH235883   3.302   2.759  15.909 -0.2601 -0.0755 -0.6436
 4823TIP3    H135884   3.294   2.734  15.817 -1.7366  0.0723 -0.5703
 4823TIP3    H235885   3.372   2.702  15.943 -0.7618 -1.2197 -1.4810
 4824TIP3   OH235886   2.911   1.744  12.001 -0.4357  0.5363 -0.7302
 4824TIP3    H135887   2.933   1.833  12.029  2.6765 -0.4021  0.2120
 4824TIP3    H235888   2.880   1.755  11.911 -1.0384  2.6459 -0.3297
 4825TIP3   OH235889   3.928   1.143   1.668  0.2048  0.4278  0.4908
 4825TIP3    H135890   3.938   1.189   1.584 -0.8105 -0.0921  0.0617
 4825TIP3    H235891   3.888   1.208   1.726  0.1089  0.5341  0.3102
 4826TIP3   OH235892   0.395   3.022   0.339 -0.7503  0.0992  0.1054
 4826TIP3    H135893   0.438   3.066   0.265  0.5037 -0.7860  0.2775
 4826TIP3    H235894   0.435   3.062   0.416 -0.5323 -0.4368  0.2739
 4827TIP3   OH235895   1.195   5.624   2.097  0.2640 -0.0642 -0.3563
 4827TIP3    H135896   1.248   5.703   2.103 -0.8312  0.6824 -0.0859
 4827TIP3    H235897   1.215   5.587   2.012  1.4728 -0.0049 -0.1146
 4828TIP3   OH235898   3.106   2.946  15.282 -0.0928 -0.3338 -0.3165
 4828TIP3    H135899   3.200   2.965  15.277 -0.0443 -0.4258  0.2013
 4828TIP3    H235900   3.091   2.877  15.218  0.2654 -0.6035 -0.1064
 4829TIP3   OH235901   5.089   5.252   4.410 -0.2046 -0.3680  0.0571
 4829TIP3    H135902   5.157   5.311   4.442 -0.6262 -0.0066  0.2883
 4829TIP3    H235903   5.102   5.249   4.315 -1.4356  1.7061 -0.2326
 4830TIP3   OH235904   2.338   6.224   5.656  0.2089 -0.3690 -0.0691
 4830TIP3    H135905   2.411   6.265   5.703  0.7295  0.2113 -1.3269
 4830TIP3    H235906   2.335   6.271   5.573  0.0054 -2.0858 -1.0627
 4831TIP3   OH235907   6.349   1.814   2.226 -1.1049 -0.0238  0.1059
 4831TIP3    H135908   6.428   1.865   2.211 -1.6246  0.9542  0.5797
 4831TIP3    H235909   6.323   1.836   2.316 -1.2074 -1.3187  0.4027
 4832TIP3   OH235910   6.257   2.008  17.082  0.6943  0.3410  0.0589
 4832TIP3    H135911   6.224   1.925  17.117 -0.5749  1.0774  0.6511
 4832TIP3    H235912   6.205   2.023  17.003  0.8789  0.6074 -0.0118
 4833TIP3   OH235913   3.430   5.240  11.091  0.0448  0.0840  0.2992
 4833TIP3    H135914   3.364   5.171  11.102  0.3208 -0.2237  0.0286
 4833TIP3    H235915   3.393   5.298  11.024 -1.1132  1.3275  1.9274
 4834TIP3   OH235916   5.306   1.758   6.038  0.1325  0.4321  0.0189
 4834TIP3    H135917   5.283   1.668   6.062  0.7210  0.2094 -0.2417
 4834TIP3    H235918   5.233   1.788   5.985 -1.2957  0.9800  2.1433
 4835TIP3   OH235919   5.424   1.300   5.522 -0.2938 -0.5141  0.5997
 4835TIP3    H135920   5.489   1.318   5.590  1.4716 -0.2373 -1.0609
 4835TIP3    H235921   5.437   1.208   5.501 -0.8252 -0.5940  0.6057
 4836TIP3   OH235922   3.760   6.667  12.472 -0.4153 -0.0416 -0.1101
 4836TIP3    H135923   3.773   6.642  12.564 -2.8670  0.5232  0.4839
 4836TIP3    H235924   3.820   6.612  12.423  0.3941 -0.9309  1.7852
 4837TIP3   OH235925   1.187   5.831  14.370 -0.1504 -0.0203 -0.0621
 4837TIP3    H135926   1.169   5.752  14.420 -1.2759  0.1375 -0.1914
 4837TIP3    H235927   1.233   5.889  14.431  0.5084 -0.6867  0.0896
 4838TIP3   OH235928   1.368   3.120   6.201  0.2006  0.1343 -0.0650
 4838TIP3    H135929   1.396   3.209   6.181  0.3423  0.0868 -0.0775
 4838TIP3    H235930   1.289   3.132   6.254 -0.5821  0.2535 -1.2238
 4839TIP3   OH235931   0.271   2.969  12.987 -0.1535 -0.1579  0.3514
 4839TIP3    H135932   0.203   3.019  13.031  0.3923 -1.0209  2.2486
 4839TIP3    H235933   0.342   3.031  12.972  0.5322 -0.3124  2.7010
 4840TIP3   OH235934   5.840   2.838   1.980  0.5275  0.5949  0.1060
 4840TIP3    H135935   5.856   2.749   1.949  0.7665  1.3969 -2.2786
 4840TIP3    H235936   5.909   2.853   2.045  0.4365 -0.9582  0.5993
 4841TIP3   OH235937   1.062   1.849  11.700  0.4050 -0.1055  0.1713
 4841TIP3    H135938   1.135   1.822  11.756  0.3883 -1.0075 -0.2250
 4841TIP3    H235939   1.035   1.769  11.655 -0.5783  0.2935  0.0182
 4842TIP3   OH235940   2.040   4.861  13.572 -0.0443  0.0382  0.0355
 4842TIP3    H135941   2.012   4.947  13.539  0.1551 -0.2332 -0.8824
 4842TIP3    H235942   1.970   4.833  13.630 -0.5473  0.4066 -0.3880
 4843TIP3   OH235943   2.598   6.602   0.758 -0.6206 -0.0757 -0.6050
 4843TIP3    H135944   2.653   6.653   0.816 -0.3969 -1.1868  0.2017
 4843TIP3    H235945   2.542   6.666   0.714 -2.6194  0.6845  2.7097
 4844TIP3   OH235946   4.750   0.960   0.956 -0.7593  0.3073  0.3363
 4844TIP3    H135947   4.665   0.917   0.960 -0.6852  0.2358  1.6584
 4844TIP3    H235948   4.784   0.939   0.869 -2.1160  0.4077 -0.2404
 4845TIP3   OH235949   3.784   5.295   5.067 -0.2435 -0.2635 -0.1974
 4845TIP3    H135950   3.730   5.339   5.001 -0.7830 -1.0509 -0.2856
 4845TIP3    H235951   3.731   5.295   5.146 -0.7065 -1.7065 -0.4801
 4846TIP3   OH235952   2.947   1.949   6.447 -0.3972 -0.3883 -0.0866
 4846TIP3    H135953   2.897   2.024   6.479 -0.3962 -0.2799 -0.3362
 4846TIP3    H235954   2.949   1.888   6.520  2.3172  1.1798  1.3356
 4847TIP3   OH235955   2.952   4.231  14.602  0.1979  0.3228  0.2280
 4847TIP3    H135956   3.003   4.308  14.578 -0.0213  0.5409  0.4674
 4847TIP3    H235957   2.914   4.200  14.520 -1.4951  1.7293  0.4236
 4848TIP3   OH235958   6.414   4.555  14.798  0.1628  0.2663  0.7391
 4848TIP3    H135959   6.341   4.565  14.737  0.5435  0.7475  0.3522
 4848TIP3    H235960   6.428   4.642  14.835  1.5528  0.5769 -0.3934
 4849TIP3   OH235961   4.631   5.477  11.846  0.2581  0.0950 -0.1305
 4849TIP3    H135962   4.576   5.526  11.785 -1.4277 -1.3618  0.1283
 4849TIP3    H235963   4.642   5.391  11.805  1.2092 -0.0946  0.4847
 4850TIP3   OH235964   3.096   1.987   1.533  0.2294 -0.3193  0.1041
 4850TIP3    H135965   3.099   1.951   1.621 -1.5910 -1.6052 -0.2821
 4850TIP3    H235966   3.044   1.924   1.483 -0.6843  1.4446 -1.3393
 4851TIP3   OH235967   0.155   4.778   1.799  0.4668  0.4573 -0.2983
 4851TIP3    H135968   0.131   4.863   1.762 -1.5358  0.0869  0.0576
 4851TIP3    H235969   0.122   4.780   1.889  0.6463 -0.5930 -0.1973
 4852TIP3   OH235970   4.021   5.803  14.133 -0.4371  0.4600 -0.2993
 4852TIP3    H135971   4.086   5.782  14.200  0.1108  0.1125 -0.9112
 4852TIP3    H235972   3.951   5.848  14.179  0.5469  1.4533  0.2759
 4853TIP3   OH235973   5.372   5.221   1.900 -0.4699  0.1092 -0.2462
 4853TIP3    H135974   5.327   5.146   1.861 -1.3506  0.9366 -0.8923
 4853TIP3    H235975   5.458   5.221   1.859 -0.7450 -0.1049 -0.8454
 4854TIP3   OH235976   3.472   3.108  11.320  0.0408  0.4370 -0.5398
 4854TIP3    H135977   3.522   3.097  11.402  0.8090 -0.0922 -1.0671
 4854TIP3    H235978   3.520   3.057  11.256 -2.6989 -2.5068 -0.5083
 4855TIP3   OH235979   5.372   4.821   2.906 -0.7300 -0.3811  0.1823
 4855TIP3    H135980   5.414   4.881   2.845  0.6830  0.2306  1.6784
 4855TIP3    H235981   5.332   4.878   2.972 -0.3313 -1.0543  1.0187
 4856TIP3   OH235982   5.861   1.957  11.750  0.4537  0.4216  0.1084
 4856TIP3    H135983   5.864   1.969  11.655 -0.8260 -0.3554 -0.0634
 4856TIP3    H235984   5.952   1.957  11.778  1.0168 -1.7055 -1.4571
 4857TIP3   OH235985   2.175   2.944   2.089 -0.3161 -0.2944 -0.1251
 4857TIP3    H135986   2.156   2.975   2.178  1.3991  1.5348 -0.3351
 4857TIP3    H235987   2.107   2.879   2.072 -2.5654  1.5185  1.3503
 4858TIP3   OH235988   2.069   1.888   1.305  0.0010 -0.0076  0.3311
 4858TIP3    H135989   2.012   1.936   1.364  0.9891 -0.5495  1.7771
 4858TIP3    H235990   2.123   1.833   1.362  1.6077  0.0969 -1.0013
 4859TIP3   OH235991   3.366   1.246   5.301  0.4269  0.0761 -0.5610
 4859TIP3    H135992   3.297   1.290   5.252  0.7331  1.9773  0.5950
 4859TIP3    H235993   3.328   1.232   5.388  0.9745 -0.3167 -0.3802
 4860TIP3   OH235994   4.505   1.071   2.460  0.1177  0.7415  0.1968
 4860TIP3    H135995   4.549   1.013   2.398  1.2303 -0.3916  1.9679
 4860TIP3    H235996   4.473   1.013   2.529  1.1459  2.1800  1.9576
 4861TIP3   OH235997   0.292   1.741   1.835  0.5155 -0.3145  0.7181
 4861TIP3    H135998   0.233   1.809   1.804  0.8206  0.2260  1.3110
 4861TIP3    H235999   0.321   1.771   1.921  3.2587  0.4619 -0.3648
 4862TIP3   OH236000   2.811   3.532  15.569 -0.2270 -0.5238  0.0071
 4862TIP3    H136001   2.836   3.453  15.617  1.4295  0.9528  1.7470
 4862TIP3    H236002   2.767   3.587  15.634  1.0618  1.0700 -0.3939
 4863TIP3   OH236003   6.639   3.525  11.313 -0.2016  0.5519 -0.4182
 4863TIP3    H136004   6.641   3.599  11.252  0.1261 -0.4720 -1.6984
 4863TIP3    H236005   6.628   3.565  11.399 -2.1888  1.9682 -1.2571
 4864TIP3   OH236006   3.320   1.539   3.291  0.3328  0.2892 -0.2523
 4864TIP3    H136007   3.389   1.473   3.298  0.0244 -0.0537 -0.3989
 4864TIP3    H236008   3.359   1.619   3.327 -0.4479 -0.7956  3.3033
 4865TIP3   OH236009   0.671   3.929  10.765 -0.3565 -0.1450 -0.6646
 4865TIP3    H136010   0.583   3.902  10.794  0.0251 -0.7329 -0.0112
 4865TIP3    H236011   0.656   3.981  10.687 -1.3166  0.0527 -0.3586
 4866TIP3   OH236012   4.606   0.363  14.343  0.2205  0.2552  0.3018
 4866TIP3    H136013   4.639   0.335  14.257  0.1894 -1.8757  0.9415
 4866TIP3    H236014   4.537   0.427  14.322  0.2001 -0.2243 -1.2489
 4867TIP3   OH236015   0.803   0.058  11.264 -0.2252  0.1775 -0.0532
 4867TIP3    H136016   0.747   0.130  11.295  0.3667  0.0940  1.2727
 4867TIP3    H236017   0.882   0.064  11.318  0.3048 -0.7973 -0.6875
 4868TIP3   OH236018   1.912   5.515   1.292  0.5577 -0.0524 -0.3299
 4868TIP3    H136019   1.900   5.552   1.379  0.8809 -0.3275 -0.1640
 4868TIP3    H236020   1.841   5.452   1.282 -0.9436  1.6924 -1.2282
 4869TIP3   OH236021   4.531   1.020   1.756 -0.0095 -0.6510  0.5017
 4869TIP3    H136022   4.451   0.976   1.785 -1.1501  0.6852 -0.4835
 4869TIP3    H236023   4.560   1.068   1.834 -0.7802 -0.2997  0.5869
 4870TIP3   OH236024   4.835   0.151   6.187  0.4642 -0.0932  0.0832
 4870TIP3    H136025   4.814   0.119   6.275  0.0178  2.8670  1.2033
 4870TIP3    H236026   4.908   0.211   6.201 -0.9219  2.0141 -1.1552
 4871TIP3   OH236027   2.052   5.353   2.374  0.5132 -0.2196 -0.2819
 4871TIP3    H136028   2.123   5.324   2.432  0.3695  0.2005  0.1058
 4871TIP3    H236029   2.071   5.445   2.357  0.0466 -0.0978 -0.1554
 4872TIP3   OH236030   4.132   2.153  13.804 -0.0199  0.3540 -0.4672
 4872TIP3    H136031   4.151   2.195  13.888  1.3997 -0.2892 -0.4314
 4872TIP3    H236032   4.050   2.106  13.819 -0.3651  1.1617  0.2128
 4873TIP3   OH236033   1.612   2.819   2.747 -0.2957 -0.4405 -0.4824
 4873TIP3    H136034   1.646   2.853   2.665  1.3431 -0.7008  0.0453
 4873TIP3    H236035   1.622   2.724   2.739 -0.5420 -0.4947 -0.1607
 4874TIP3   OH236036   1.182   0.234  14.588  0.2069  0.1360 -0.0549
 4874TIP3    H136037   1.265   0.280  14.598  0.6090 -0.5304 -0.3011
 4874TIP3    H236038   1.192   0.182  14.509  0.4136 -1.7368  1.1485
 4875TIP3   OH236039   3.406   4.490  13.428  0.0301 -0.2405  0.4220
 4875TIP3    H136040   3.328   4.521  13.475  0.0089  0.7223 -0.2094
 4875TIP3    H236041   3.461   4.451  13.496 -0.1242  0.8610  1.2065
 4876TIP3   OH236042   4.748   5.370  11.404  0.0826  0.1461 -0.2979
 4876TIP3    H136043   4.753   5.339  11.313 -0.5568 -4.0474  0.8752
 4876TIP3    H236044   4.839   5.387  11.428  0.4357 -0.2622 -1.2872
 4877TIP3   OH236045   4.522   2.034  11.635  0.0319  0.2888 -0.0363
 4877TIP3    H136046   4.477   1.994  11.561  1.6085 -1.1737 -0.2691
 4877TIP3    H236047   4.453   2.055  11.698 -1.0316 -1.2191 -0.6642
 4878TIP3   OH236048   1.504   4.799  17.203 -0.5353  0.3410  0.0520
 4878TIP3    H136049   1.471   4.884  17.230 -3.0528  0.1591 -2.0745
 4878TIP3    H236050   1.590   4.818  17.164 -0.8316  1.8456  0.0623
 4879TIP3   OH236051   0.920   2.209  11.859 -0.0395  0.4631 -0.5691
 4879TIP3    H136052   0.900   2.115  11.857 -0.4397  0.5403 -2.7937
 4879TIP3    H236053   1.000   2.215  11.911  0.0295 -1.1235 -0.4324
 4880TIP3   OH236054   0.700   6.670   3.840 -0.1599 -0.0990 -0.4693
 4880TIP3    H136055   0.609   6.669   3.812 -0.4266 -0.7173  0.3820
 4880TIP3    H236056   0.696   6.680   3.935  0.5415 -2.6621 -0.0822
 4881TIP3   OH236057   0.569   3.428   0.017  0.0664 -0.4469  0.8295
 4881TIP3    H136058   0.611   3.347  -0.010 -1.9920 -0.7972 -1.7488
 4881TIP3    H236059   0.477   3.416  -0.007 -0.1245  3.0610 -0.8254
 4882TIP3   OH236060   0.963   3.969   0.112 -0.5655 -0.4858 -0.4908
 4882TIP3    H136061   0.890   3.917   0.145 -1.0466 -0.4195 -1.4173
 4882TIP3    H236062   0.942   3.984   0.020  1.1884 -1.4670 -1.1001
 4883TIP3   OH236063   3.551   6.222  12.015 -0.0487 -0.0385  0.7332
 4883TIP3    H136064   3.478   6.161  12.021 -0.3015  0.1758 -0.1125
 4883TIP3    H236065   3.605   6.189  11.944 -0.4902  1.0150 -0.1357
 4884TIP3   OH236066   0.528   3.072   3.870 -0.0631  0.3796  0.1832
 4884TIP3    H136067   0.493   3.118   3.947  1.7132  2.1467  0.0236
 4884TIP3    H236068   0.623   3.079   3.880  0.2353  1.0020 -2.3333
 4885TIP3   OH236069   2.170   2.674   0.020  0.0431  0.1591  0.2211
 4885TIP3    H136070   2.157   2.761  -0.019  2.8218 -0.3914 -2.3288
 4885TIP3    H236071   2.238   2.688   0.086  0.6113 -0.0667 -0.3066
 4886TIP3   OH236072   2.522   4.833  13.721  0.0677 -0.6821  0.1158
 4886TIP3    H136073   2.581   4.836  13.796  0.4023 -0.4210 -0.1575
 4886TIP3    H236074   2.546   4.752  13.675  2.6940  1.1323 -1.9898
 4887TIP3   OH236075   4.582   3.344  11.298  0.3680 -0.3843 -0.6544
 4887TIP3    H136076   4.641   3.412  11.331 -0.8794  0.2256  0.4127
 4887TIP3    H236077   4.626   3.311  11.219  1.6971  0.6486 -0.3938
 4888TIP3   OH236078   3.674   0.668  16.447  0.0562  0.1255 -0.2441
 4888TIP3    H136079   3.753   0.701  16.489 -0.6305  0.6302  0.6857
 4888TIP3    H236080   3.605   0.678  16.513 -0.9214  0.3180 -1.2597
 4889TIP3   OH236081   6.095   3.872  12.599  0.0690  0.3185 -0.3585
 4889TIP3    H136082   6.168   3.812  12.583  0.3329  0.5491 -0.0427
 4889TIP3    H236083   6.123   3.955  12.559  0.1785  0.5340  0.1583
 4890TIP3   OH236084   2.320   0.525   0.646 -0.0260 -0.1779  0.0281
 4890TIP3    H136085   2.263   0.455   0.613 -0.2688 -0.1412  0.3606
 4890TIP3    H236086   2.259   0.589   0.683  0.1660  0.4875 -0.7966
 4891TIP3   OH236087   5.566   4.775  16.688  0.0594 -0.1283 -0.1488
 4891TIP3    H136088   5.538   4.820  16.608 -1.6338  0.7426  0.8773
 4891TIP3    H236089   5.651   4.737  16.666  0.0218  0.8093 -2.0826
 4892TIP3   OH236090   0.854   5.419   5.914  0.4749 -0.3685 -0.4759
 4892TIP3    H136091   0.806   5.398   5.994  1.0550 -1.7753 -0.4705
 4892TIP3    H236092   0.786   5.445   5.852 -0.3047 -2.1806 -0.4278
 4893TIP3   OH236093   6.006   4.383  17.315 -0.1076  0.5465  0.6500
 4893TIP3    H136094   5.928   4.330  17.329  0.8406 -1.1048 -0.0286
 4893TIP3    H236095   6.012   4.438  17.393 -1.0078 -0.5169  1.4939
 4894TIP3   OH236096   3.459   3.546   3.201  0.0591 -0.1786  0.1866
 4894TIP3    H136097   3.516   3.608   3.245 -0.1004 -0.9763  1.5920
 4894TIP3    H236098   3.494   3.540   3.112  2.5482 -1.0537  1.1353
 4895TIP3   OH236099   4.128   1.635  14.481  0.3787  0.4062  0.4394
 4895TIP3    H136100   4.120   1.618  14.387  0.9270  0.7646  0.3273
 4895TIP3    H236101   4.079   1.563  14.522  1.2013 -0.4788 -0.0758
 4896TIP3   OH236102   0.376   3.791  13.489 -0.1018  0.5649  0.5647
 4896TIP3    H136103   0.435   3.811  13.417 -2.4254 -0.4067 -1.7680
 4896TIP3    H236104   0.423   3.820  13.568  2.6897  1.3724 -1.2567
 4897TIP3   OH236105   0.728   4.105  12.046 -0.3254 -0.3242  0.2045
 4897TIP3    H136106   0.779   4.025  12.036 -0.7536 -0.4517 -1.0344
 4897TIP3    H236107   0.705   4.107  12.139 -2.1683 -2.7889 -0.1026
 4898TIP3   OH236108   2.498   4.680   5.775  0.3057  0.4930  0.6385
 4898TIP3    H136109   2.413   4.722   5.759 -0.0727 -0.4608 -0.0104
 4898TIP3    H236110   2.553   4.749   5.812  0.0949  1.8921 -1.4876
 4899TIP3   OH236111   3.282   0.637   6.741  0.7185 -0.0096 -0.4036
 4899TIP3    H136112   3.214   0.637   6.808  1.1302  0.9248  0.0337
 4899TIP3    H236113   3.234   0.646   6.659  0.2612 -0.3452 -0.1762
 4900TIP3   OH236114   4.995   2.144   0.563  0.7488 -0.1314 -0.1845
 4900TIP3    H136115   4.975   2.068   0.618  0.0630 -0.6341 -1.0991
 4900TIP3    H236116   4.977   2.220   0.619  0.7191 -0.6269  0.4949
 4901TIP3   OH236117   3.670   6.426  16.332  0.7188 -0.1635 -0.2161
 4901TIP3    H136118   3.701   6.428  16.241 -0.5196  0.4269 -0.6514
 4901TIP3    H236119   3.575   6.440  16.325  0.8656  2.0856  1.2805
 4902TIP3   OH236120   4.446   4.628  14.251 -0.7521  0.3794  0.1715
 4902TIP3    H136121   4.500   4.653  14.326 -0.6912 -0.6206  0.4781
 4902TIP3    H236122   4.360   4.611  14.287 -0.9848  0.8713 -0.1443
 4903TIP3   OH236123   1.050   3.631   2.417  0.3078 -0.0450  0.4728
 4903TIP3    H136124   0.987   3.677   2.473 -0.0696 -0.6753  0.5823
 4903TIP3    H236125   1.045   3.540   2.446 -0.6731 -0.5958 -1.2732
 4904TIP3   OH236126   0.225   4.839  13.069  0.1117  0.3131 -0.7478
 4904TIP3    H136127   0.143   4.858  13.115  0.8745  1.3450  0.2287
 4904TIP3    H236128   0.230   4.744  13.068  0.8444  0.2008  2.7990
 4905TIP3   OH236129   4.675   6.575   4.950 -0.3317  0.1319  0.2191
 4905TIP3    H136130   4.592   6.605   4.912 -0.1532 -1.1978 -1.3347
 4905TIP3    H236131   4.715   6.655   4.986 -1.7431  0.9929 -0.0303
 4906TIP3   OH236132   3.288   5.763   4.541 -0.0034 -0.2824  0.3553
 4906TIP3    H136133   3.355   5.698   4.561  1.1648  0.3158 -1.3615
 4906TIP3    H236134   3.295   5.776   4.446 -2.5590 -0.1679  0.1088
 4907TIP3   OH236135   2.365   1.723  12.810  0.2825 -0.0463 -0.3995
 4907TIP3    H136136   2.331   1.807  12.778  0.5303  0.1132 -0.2429
 4907TIP3    H236137   2.295   1.690  12.867  0.3017  0.1858 -0.2396
 4908TIP3   OH236138   6.491   1.141   0.610  0.0199  0.1495 -0.3533
 4908TIP3    H136139   6.520   1.187   0.688  0.3705  1.0843 -1.0156
 4908TIP3    H236140   6.499   1.206   0.539 -3.0901  0.3162 -0.7079
 4909TIP3   OH236141   0.781   4.907   1.489  0.1806 -0.4711  0.2539
 4909TIP3    H136142   0.690   4.878   1.482  1.0095 -2.9485 -1.4546
 4909TIP3    H236143   0.825   4.837   1.535  1.2804  0.6360  0.9235
 4910TIP3   OH236144   0.132   5.471   3.398 -0.1777  0.1033 -0.3226
 4910TIP3    H136145   0.111   5.407   3.330 -0.7930 -1.3749  1.1988
 4910TIP3    H236146   0.222   5.451   3.423 -0.2014  0.1541 -0.1942
 4911TIP3   OH236147   5.033   0.288   1.267 -0.2484 -0.1534  0.3148
 4911TIP3    H136148   4.983   0.270   1.346 -0.3958 -0.2338  0.2027
 4911TIP3    H236149   5.065   0.377   1.279 -0.7535  0.0458  0.2082
 4912TIP3   OH236150   6.301   0.207  14.716 -0.2901  0.7544 -0.3176
 4912TIP3    H136151   6.262   0.185  14.632  0.7200  0.2904 -0.6783
 4912TIP3    H236152   6.349   0.288  14.701  1.2167 -0.1630 -0.6237
 4913TIP3   OH236153   1.416   6.227   2.372 -0.1353  0.2485  0.1656
 4913TIP3    H136154   1.381   6.308   2.410  2.0239  1.5541 -0.4731
 4913TIP3    H236155   1.451   6.178   2.446  1.3654  1.3967  0.2533
 4914TIP3   OH236156   1.464   1.375  15.745  1.2795 -0.7559 -0.3899
 4914TIP3    H136157   1.520   1.428  15.802  1.5760 -0.5436 -0.8727
 4914TIP3    H236158   1.388   1.355  15.799  0.4446  1.4267 -0.6584
 4915TIP3   OH236159   0.875   0.203  14.399  0.5116  0.1658  0.6302
 4915TIP3    H136160   0.963   0.203  14.362  0.0359 -1.7131 -0.6543
 4915TIP3    H236161   0.817   0.213  14.324 -0.4094 -0.1090  1.2819
 4916TIP3   OH236162   1.289   3.656   5.940 -0.5073 -0.0415 -0.4769
 4916TIP3    H136163   1.228   3.584   5.949 -0.3071 -0.3562 -1.5494
 4916TIP3    H236164   1.356   3.640   6.007 -1.3573  0.0835  0.4195
 4917TIP3   OH236165   5.978   3.451   4.284 -0.3649  1.0357  0.0885
 4917TIP3    H136166   5.952   3.515   4.350 -0.1992  1.3159 -0.1131
 4917TIP3    H236167   5.988   3.502   4.204 -0.4951  0.7096 -0.1368
 4918TIP3   OH236168   4.264   6.200  15.150  0.2542 -0.7168 -0.1144
 4918TIP3    H136169   4.230   6.171  15.235  1.4786 -1.1450  0.2338
 4918TIP3    H236170   4.238   6.132  15.089 -0.5994 -0.4254 -0.1006
 4919TIP3   OH236171   3.782   0.669   5.156  0.0250  0.0645  0.6606
 4919TIP3    H136172   3.789   0.600   5.223 -1.0444 -0.6954  0.0076
 4919TIP3    H236173   3.708   0.722   5.184 -0.0442  0.1051  0.4022
 4920TIP3   OH236174   0.859   3.788   2.517 -0.6649 -0.4913  0.1183
 4920TIP3    H136175   0.829   3.801   2.607 -0.6540 -1.2442  0.2429
 4920TIP3    H236176   0.795   3.728   2.479 -2.2509  1.9427 -1.2782
 4921TIP3   OH236177   0.326   0.068  16.383  0.3031  0.0497  0.4964
 4921TIP3    H136178   0.404   0.088  16.435 -0.1156  0.4905  0.9681
 4921TIP3    H236179   0.294  -0.015  16.420  0.0923  0.2836  0.8392
 4922TIP3   OH236180   6.013   0.099   5.524  0.1176  0.0040 -0.0563
 4922TIP3    H136181   5.955   0.173   5.506  0.7710  0.3584 -0.7521
 4922TIP3    H236182   5.954   0.024   5.530 -0.5808  0.5969  0.8450
 4923TIP3   OH236183   2.512   2.709  11.608 -0.3897 -0.2988 -0.3279
 4923TIP3    H136184   2.441   2.689  11.668 -2.0457  1.1103 -1.7051
 4923TIP3    H236185   2.564   2.629  11.606 -1.4105 -1.0685  1.4126
 4924TIP3   OH236186   3.285   6.036   1.591  0.3796  0.0271  0.0819
 4924TIP3    H136187   3.263   6.057   1.682 -1.0557 -1.7919  0.2200
 4924TIP3    H236188   3.210   6.068   1.541  0.4315 -0.3651 -0.2550
 4925TIP3   OH236189   0.684   1.181   5.348 -0.4265  0.0341 -0.3131
 4925TIP3    H136190   0.754   1.116   5.351  0.1089  0.5948 -0.5652
 4925TIP3    H236191   0.612   1.141   5.397  1.0271  0.6045  2.5164
 4926TIP3   OH236192   4.685   4.125   1.611  0.2063  0.3937  0.0795
 4926TIP3    H136193   4.742   4.121   1.687 -0.0238  0.4459  0.2545
 4926TIP3    H236194   4.729   4.071   1.545 -1.4490 -3.0052  1.4616
 4927TIP3   OH236195   1.653   5.281   4.270 -0.6876  0.5867  0.2085
 4927TIP3    H136196   1.558   5.292   4.258 -0.9011 -0.1883  1.0726
 4927TIP3    H236197   1.661   5.201   4.322  0.3920  1.1998  1.0205
 4928TIP3   OH236198   1.171   6.252   5.322 -0.4625  0.3428 -0.3423
 4928TIP3    H136199   1.178   6.322   5.257  1.1943 -0.0834 -0.6680
 4928TIP3    H236200   1.139   6.296   5.401 -0.9071  1.1743 -0.9717
 4929TIP3   OH236201   5.993   6.267  11.978 -0.4523  0.4154 -0.3805
 4929TIP3    H136202   6.003   6.176  11.950 -0.3806  0.2069  0.2891
 4929TIP3    H236203   5.898   6.280  11.979 -0.7404 -0.8289  2.9578
 4930TIP3   OH236204   0.689   6.109   5.409 -0.2296  0.2129 -0.1112
 4930TIP3    H136205   0.664   6.140   5.496 -0.2267  0.1406 -0.0840
 4930TIP3    H236206   0.774   6.068   5.422 -0.7733 -0.8863  0.0913
 4931TIP3   OH236207   5.803   1.379  16.301 -0.6171 -0.6297  0.1093
 4931TIP3    H136208   5.778   1.460  16.347  0.7276  0.6411 -1.3034
 4931TIP3    H236209   5.888   1.356  16.337 -0.3011 -0.5366 -0.5569
 4932TIP3   OH236210   0.518   3.598   4.839  0.3903  0.6143 -1.0451
 4932TIP3    H136211   0.570   3.668   4.880  3.0160 -1.9870  0.4872
 4932TIP3    H236212   0.557   3.588   4.752 -0.7970  1.7392 -1.7542
 4933TIP3   OH236213   1.611   6.660   3.742 -0.0116  0.0369  0.6687
 4933TIP3    H136214   1.648   6.677   3.828 -0.4990  0.8518  0.7276
 4933TIP3    H236215   1.519   6.639   3.759  0.4635 -2.4615  0.5720
 4934TIP3   OH236216   6.161   1.567   5.098 -0.2834 -0.2303  0.7241
 4934TIP3    H136217   6.252   1.564   5.069 -0.6050  1.2042 -0.6129
 4934TIP3    H236218   6.111   1.551   5.018 -1.2213 -0.8659  1.4162
 4935TIP3   OH236219   2.014   3.686  12.773 -0.5646  0.2008 -0.7593
 4935TIP3    H136220   2.046   3.767  12.734 -1.4136  0.0869 -1.7324
 4935TIP3    H236221   1.938   3.713  12.825  0.0392  0.2293  0.1190
 4936TIP3   OH236222   1.511   4.289  13.244 -0.3540  0.0289 -0.0261
 4936TIP3    H136223   1.433   4.295  13.299  0.2972  0.2665  0.8809
 4936TIP3    H236224   1.485   4.232  13.172 -1.8076  1.2299 -0.5060
 4937TIP3   OH236225   1.632   1.163   1.378 -0.1238  0.1916  0.6585
 4937TIP3    H136226   1.544   1.140   1.348 -0.1498  1.4105 -0.2791
 4937TIP3    H236227   1.657   1.091   1.437 -1.5665 -0.3826  0.6108
 4938TIP3   OH236228   0.334   2.114  15.812  0.0638 -0.3134  0.3770
 4938TIP3    H136229   0.380   2.132  15.730 -0.7777  0.8298  0.1255
 4938TIP3    H236230   0.347   2.193  15.865  0.4278 -0.9627  1.2759
 4939TIP3   OH236231   4.814   2.670   1.139 -0.6457  0.2138 -0.3242
 4939TIP3    H136232   4.728   2.631   1.153 -1.2926  2.3712  2.9192
 4939TIP3    H236233   4.875   2.609   1.182 -0.9621  0.1492  0.0436
 4940TIP3   OH236234   2.083   3.405   2.625  0.0581  0.0193 -0.5042
 4940TIP3    H136235   2.084   3.491   2.584  0.4272  0.6276  0.7356
 4940TIP3    H236236   2.103   3.421   2.717 -1.5157 -1.1954  0.1223
 4941TIP3   OH236237   5.214   0.741   6.182  0.2699 -0.2782 -0.3670
 4941TIP3    H136238   5.255   0.704   6.261  0.5103 -1.0156 -0.8304
 4941TIP3    H236239   5.173   0.822   6.213  1.9176  0.4129  0.1580
 4942TIP3   OH236240   0.850   1.563   2.993  0.1959 -0.4983  0.5640
 4942TIP3    H136241   0.765   1.578   3.033 -0.0236 -2.5923  1.0101
 4942TIP3    H236242   0.831   1.516   2.912  0.7431  2.3324 -1.3655
 4943TIP3   OH236243   4.011   5.509  13.577 -0.0084 -0.6111 -0.6071
 4943TIP3    H136244   4.013   5.428  13.526  1.5456  0.7138 -2.8006
 4943TIP3    H236245   4.012   5.579  13.512  0.3491  1.1759  1.2261
 4944TIP3   OH236246   1.535   1.273   3.093  0.5919 -0.7115 -0.1189
 4944TIP3    H136247   1.555   1.247   3.184  0.1237 -2.3065 -0.4363
 4944TIP3    H236248   1.606   1.234   3.042  0.7164 -0.0261 -0.4664
 4945TIP3   OH236249   2.588   4.429   4.287  0.2192 -0.1348 -0.0315
 4945TIP3    H136250   2.567   4.480   4.209  0.3513 -0.5576 -0.3520
 4945TIP3    H236251   2.562   4.339   4.264 -1.5679  0.0304  1.1200
 4946TIP3   OH236252   1.295   0.974  11.473 -0.1690 -0.2644 -0.0635
 4946TIP3    H136253   1.362   0.994  11.539  1.7624 -0.1677 -1.9693
 4946TIP3    H236254   1.213   0.974  11.523  1.0566  0.9075  2.1381
 4947TIP3   OH236255   0.268   0.347  12.060 -0.2301 -0.2895  0.1885
 4947TIP3    H136256   0.209   0.316  11.991  0.3405  0.2132 -0.5365
 4947TIP3    H236257   0.217   0.340  12.140 -0.7232 -1.3966 -0.2065
 4948TIP3   OH236258   5.742   2.118   4.055  0.2528 -1.0178  0.0252
 4948TIP3    H136259   5.691   2.197   4.073  0.7578 -0.8640  0.8337
 4948TIP3    H236260   5.774   2.131   3.965  1.7298  0.5308  0.7020
 4949TIP3   OH236261   2.082   0.005   0.816 -0.2557  0.2758  0.0430
 4949TIP3    H136262   2.151   0.029   0.755  0.2268  1.1085  0.8862
 4949TIP3    H236263   2.091   0.067   0.889 -0.6324 -0.8556  1.1009
 4950TIP3   OH236264   1.217   5.085   3.723  0.2194  0.1542 -0.1125
 4950TIP3    H136265   1.226   5.172   3.686 -2.2594  0.4085 -0.3321
 4950TIP3    H236266   1.251   5.026   3.655 -2.1685  0.7457 -1.9838
 4951TIP3   OH236267   4.747   6.401  15.278 -0.0768 -0.1011 -0.0815
 4951TIP3    H136268   4.713   6.400  15.368 -1.0457  0.8754 -0.4270
 4951TIP3    H236269   4.677   6.363  15.225 -0.3279  1.1683 -0.6886
 4952TIP3   OH236270   6.380   2.203  15.485 -0.0574 -0.3631 -0.4219
 4952TIP3    H136271   6.334   2.270  15.435 -1.3283  0.0694  1.2187
 4952TIP3    H236272   6.315   2.135  15.499  0.7113 -1.1544 -0.5841
 4953TIP3   OH236273   0.934   3.549   2.156  0.7146 -0.1727 -0.5156
 4953TIP3    H136274   0.906   3.575   2.244  2.7295 -0.3578  0.2205
 4953TIP3    H236275   0.931   3.629   2.105 -1.3423 -0.2308 -0.5618
 4954TIP3   OH236276   1.467   4.889   5.685  0.0292  0.1118 -0.6705
 4954TIP3    H136277   1.402   4.959   5.676  0.0706  0.4357  1.1242
 4954TIP3    H236278   1.516   4.912   5.764  1.5197 -0.7898 -1.2882
 4955TIP3   OH236279   3.523   1.688   3.084  0.2721  0.2325 -0.1989
 4955TIP3    H136280   3.481   1.721   3.004  1.3834 -1.3368 -1.5074
 4955TIP3    H236281   3.507   1.593   3.081  0.2999  0.1467  1.4950
 4956TIP3   OH236282   4.329   5.351   1.266  0.2484  0.0707 -0.7355
 4956TIP3    H136283   4.285   5.376   1.185  0.0923 -0.2747 -0.7640
 4956TIP3    H236284   4.317   5.256   1.270 -0.2532  0.1537 -0.0186
 4957TIP3   OH236285   4.031   0.459   4.607 -0.3469 -0.1492 -0.2379
 4957TIP3    H136286   4.032   0.497   4.695 -1.4429 -1.0751  0.2006
 4957TIP3    H236287   3.939   0.441   4.590 -0.0342 -0.9309 -1.1642
 4958TIP3   OH236288   3.702   2.884  16.911  0.1360  0.3688  0.3875
 4958TIP3    H136289   3.691   2.892  17.006  1.4362  2.2148  0.4373
 4958TIP3    H236290   3.792   2.853  16.900  0.5456  1.7253 -0.2439
 4959TIP3   OH236291   2.557   3.399   3.637 -0.5726  0.1677  0.4575
 4959TIP3    H136292   2.510   3.383   3.719 -0.2998  0.4773  0.6754
 4959TIP3    H236293   2.627   3.334   3.635 -1.6077 -0.9723 -0.3546
 4960TIP3   OH236294   1.776   6.374  11.711  0.0127  0.2682  0.5357
 4960TIP3    H136295   1.835   6.404  11.642  1.3366  2.4284  2.4504
 4960TIP3    H236296   1.699   6.431  11.703 -0.5336 -0.5377 -0.0936
 4961TIP3   OH236297   0.346   1.131  13.669 -0.1180  0.1267  0.0710
 4961TIP3    H136298   0.305   1.045  13.680 -0.2515  0.0662 -0.8263
 4961TIP3    H236299   0.296   1.173  13.599 -1.1205  1.6228  1.6303
 4962TIP3   OH236300   5.381   3.314  12.172  0.9409  0.8177  0.3289
 4962TIP3    H136301   5.420   3.398  12.146  3.5525 -0.8404 -1.5980
 4962TIP3    H236302   5.342   3.281  12.091  3.1263 -1.3679  0.0725
 4963TIP3   OH236303   2.140   1.820   4.386  0.1184  0.1156 -0.4223
 4963TIP3    H136304   2.056   1.810   4.340 -0.7358 -0.8528  1.2403
 4963TIP3    H236305   2.181   1.897   4.346 -2.0237  1.2396 -0.5829
 4964TIP3   OH236306   1.125   0.238   3.803  0.1263 -0.1824  0.3443
 4964TIP3    H136307   1.175   0.276   3.876  1.5450 -1.0262 -0.1412
 4964TIP3    H236308   1.105   0.149   3.832 -1.2924  0.2005  0.6019
 4965TIP3   OH236309   3.052   1.870  15.176  0.2391 -0.5298 -0.5038
 4965TIP3    H136310   3.108   1.805  15.218  0.4065  0.0085  0.1206
 4965TIP3    H236311   2.966   1.857  15.217  0.1850 -0.6025 -0.6415
 4966TIP3   OH236312   5.554   1.408   5.758 -0.0321  0.0840  0.4600
 4966TIP3    H136313   5.521   1.486   5.803  2.5681  0.9681  1.0307
 4966TIP3    H236314   5.559   1.341   5.827 -3.7924 -1.2391 -0.3500
 4967TIP3   OH236315   1.357   5.604   5.943 -0.1158 -0.2500  0.2313
 4967TIP3    H136316   1.385   5.694   5.960 -1.5910  0.6793 -1.8312
 4967TIP3    H236317   1.429   5.550   5.974  2.2698  1.8048 -1.3502
 4968TIP3   OH236318   0.171   5.197  15.425  0.0395 -0.0200  0.4142
 4968TIP3    H136319   0.232   5.246  15.480  1.6519 -0.5469 -0.8164
 4968TIP3    H236320   0.199   5.216  15.336 -0.8335 -1.2410 -0.1432
 4969TIP3   OH236321   6.565   1.844   5.303 -0.3826  0.4951  0.0600
 4969TIP3    H136322   6.526   1.821   5.219 -1.8729 -1.5671  1.2166
 4969TIP3    H236323   6.500   1.817   5.368  2.5162 -2.3177  2.1014
 4970TIP3   OH236324   3.536   6.038  13.074  0.3053 -0.0498  0.1105
 4970TIP3    H136325   3.513   6.122  13.114  3.5854  1.0424 -0.0488
 4970TIP3    H236326   3.484   5.974  13.123 -1.5578  1.9118  0.8875
 4971TIP3   OH236327   0.909   5.824   4.827  0.0141  0.3944 -0.4491
 4971TIP3    H136328   0.843   5.891   4.813  0.1281  0.3607 -1.2000
 4971TIP3    H236329   0.951   5.814   4.741  1.0534  0.4802  0.0378
 4972TIP3   OH236330   4.140   5.740   0.733  0.2286 -0.1583 -0.0130
 4972TIP3    H136331   4.054   5.714   0.699  0.8306 -2.1445 -0.1447
 4972TIP3    H236332   4.122   5.818   0.786 -1.7461 -0.8037  0.3745
 4973TIP3   OH236333   1.973   2.612   3.197 -0.4877 -0.5442  0.7645
 4973TIP3    H136334   2.001   2.697   3.231 -0.8229  0.3477 -1.0684
 4973TIP3    H236335   2.002   2.612   3.105 -0.8135 -2.2631  0.6282
 4974TIP3   OH236336   5.458   4.895  16.439  0.1397 -0.0125 -0.1001
 4974TIP3    H136337   5.464   4.809  16.397  0.7191  0.3600 -0.7778
 4974TIP3    H236338   5.371   4.927  16.415  0.0094 -0.3023 -0.0300
 4975TIP3   OH236339   4.960   3.811   0.475 -0.1360  0.1243 -0.1829
 4975TIP3    H136340   4.954   3.727   0.521  0.3094 -1.0573 -2.1422
 4975TIP3    H236341   4.999   3.789   0.391  1.3367  2.5342 -0.2329
 4976TIP3   OH236342   5.379   0.909  15.583  0.2805 -0.0489  0.3431
 4976TIP3    H136343   5.393   1.000  15.557 -2.5745 -0.0080 -1.4390
 4976TIP3    H236344   5.295   0.909  15.628  0.4258 -1.7725  0.6995
 4977TIP3   OH236345   1.993   5.682   4.525 -0.3451 -0.7766  0.5706
 4977TIP3    H136346   1.913   5.663   4.475  1.1901 -1.7426 -1.6959
 4977TIP3    H236347   1.962   5.720   4.607 -3.0718  0.4271 -0.8945
 4978TIP3   OH236348   5.931   2.007  17.063 -0.5780  0.6321  0.3875
 4978TIP3    H136349   5.857   1.974  17.013 -1.1328  0.2418  1.4390
 4978TIP3    H236350   5.933   1.952  17.142  0.9048  0.5486  0.3203
 4979TIP3   OH236351   3.344   2.677   2.828 -0.4897  0.6167 -0.4739
 4979TIP3    H136352   3.423   2.655   2.877 -0.9176  0.5872  0.2197
 4979TIP3    H236353   3.352   2.771   2.810  0.1375  0.4209 -1.2132
 4980TIP3   OH236354   4.301   6.711  13.423 -0.4839  0.1134  0.8779
 4980TIP3    H136355   4.224   6.683  13.473 -0.3175 -0.5546  0.7722
 4980TIP3    H236356   4.271   6.788  13.375 -1.3172 -0.5660  0.2633
 4981TIP3   OH236357   3.791   2.583   5.330 -0.3851 -0.0697 -0.3399
 4981TIP3    H136358   3.729   2.540   5.390 -1.6856  2.3467  0.1760
 4981TIP3    H236359   3.874   2.583   5.378 -1.3806  1.7813  1.5554
 4982TIP3   OH236360   5.740   0.345  12.496 -0.1987 -0.1726 -0.5133
 4982TIP3    H136361   5.779   0.328  12.411 -1.3358 -1.1663 -0.8604
 4982TIP3    H236362   5.670   0.408  12.478 -1.1460 -1.2019 -0.5100
 4983TIP3   OH236363   5.309   0.081  12.123  0.6480 -0.2439  0.1385
 4983TIP3    H136364   5.304  -0.014  12.111  1.2357 -0.0374 -2.3711
 4983TIP3    H236365   5.240   0.101  12.186  0.6479 -2.3463  0.8875
 4984TIP3   OH236366   6.273   0.613   4.334  0.2412 -0.1313  0.0506
 4984TIP3    H136367   6.327   0.608   4.413 -1.3831 -1.5986  1.1204
 4984TIP3    H236368   6.224   0.695   4.345 -0.2435 -0.5049  0.7572
 4985TIP3   OH236369   4.745   0.434  16.459  0.9212 -0.7343 -0.1190
 4985TIP3    H136370   4.727   0.523  16.488  0.2283 -0.3609 -1.6085
 4985TIP3    H236371   4.715   0.379  16.531  1.3213  0.2111  0.8055
 4986TIP3   OH236372   4.881   1.861   5.663 -0.2999 -0.0640  0.1757
 4986TIP3    H136373   4.871   1.915   5.742 -0.1923  0.6549 -0.2891
 4986TIP3    H236374   4.871   1.923   5.591  2.4888 -0.1699 -0.3923
 4987TIP3   OH236375   0.213   0.168  11.813  0.0504 -0.1587  0.4163
 4987TIP3    H136376   0.158   0.117  11.873 -0.4809 -0.4498 -0.3104
 4987TIP3    H236377   0.180   0.147  11.726  0.6158  0.5008  0.0329
 4988TIP3   OH236378   6.157   4.925   0.245 -0.2845 -0.7507  0.0956
 4988TIP3    H136379   6.184   4.863   0.177 -1.3523 -1.5479  0.3570
 4988TIP3    H236380   6.065   4.903   0.261 -0.1017 -0.4746  1.6709
 4989TIP3   OH236381   6.066   2.359  15.044 -0.6635  0.2863 -0.1858
 4989TIP3    H136382   6.095   2.376  14.954  0.5381 -0.0765  0.1003
 4989TIP3    H236383   6.088   2.439  15.092  0.0840 -0.0678  0.0783
 4990TIP3   OH236384   1.440   2.633   4.383  0.0879 -0.3024 -0.0817
 4990TIP3    H136385   1.436   2.654   4.476 -0.5824  0.9361 -0.3711
 4990TIP3    H236386   1.481   2.709   4.343 -0.0324 -0.6375 -0.8554
 4991TIP3   OH236387   5.734   6.694   2.796  0.3232  0.2233 -0.0338
 4991TIP3    H136388   5.720   6.599   2.801  1.3657  0.0617  0.0769
 4991TIP3    H236389   5.649   6.730   2.774 -0.3997 -0.6315  1.2321
 4992TIP3   OH236390   0.079   0.634  15.363 -0.0039 -0.0129  0.4620
 4992TIP3    H136391   0.038   0.674  15.286  0.5336  2.2965  1.2836
 4992TIP3    H236392   0.151   0.582  15.327  0.0537  0.7752 -0.6242
 4993TIP3   OH236393   4.414   4.932  15.515 -0.2051 -0.1120  0.4285
 4993TIP3    H136394   4.361   4.957  15.439 -0.6935 -1.0534  0.4470
 4993TIP3    H236395   4.391   4.996  15.582  0.7346  1.1454 -0.4055
 4994TIP3   OH236396   5.970   4.662   0.854 -0.2378  0.3498 -0.3189
 4994TIP3    H136397   5.952   4.571   0.833 -2.0723  0.9962 -1.7735
 4994TIP3    H236398   5.904   4.686   0.919  0.9679  0.3550  0.9515
 4995TIP3   OH236399   2.742   2.392  13.261 -0.3767 -0.2185 -0.0505
 4995TIP3    H136400   2.833   2.367  13.277 -0.7321 -2.5587 -1.1933
 4995TIP3    H236401   2.747   2.483  13.231  1.8378 -0.9059 -2.1073
 4996TIP3   OH236402   2.490   5.348  11.968  0.8240 -0.1304 -0.1239
 4996TIP3    H136403   2.548   5.304  12.030  1.2771  0.2109 -0.2931
 4996TIP3    H236404   2.536   5.430  11.948 -1.0196  1.5291  1.9040
 4997TIP3   OH236405   3.720   5.380  13.591  0.4536 -0.0086  0.1678
 4997TIP3    H136406   3.731   5.303  13.647  1.2336 -0.5138 -0.6343
 4997TIP3    H236407   3.800   5.430  13.604  0.9111 -0.4271 -0.9012
 4998TIP3   OH236408   2.289   1.114  14.013  0.2843  0.1461  0.0551
 4998TIP3    H136409   2.359   1.056  13.980 -1.1573 -0.7109 -1.6692
 4998TIP3    H236410   2.264   1.075  14.096  1.3941  0.0801  0.3793
 4999TIP3   OH236411   0.625   0.488  13.272 -0.2484 -0.3577 -0.4542
 4999TIP3    H136412   0.557   0.421  13.272 -0.1123 -0.6354  2.6274
 4999TIP3    H236413   0.586   0.563  13.318  0.4104  0.8166 -1.7166
 5000TIP3   OH236414   1.307   0.917  16.277 -0.3929  0.0615  0.2571
 5000TIP3    H136415   1.330   0.907  16.184 -0.9390 -0.1580  0.1370
 5000TIP3    H236416   1.235   0.980  16.276 -0.0385  0.4706  0.5855
 5001TIP3   OH236417   3.276   1.529  16.163  0.3213  0.1195  0.0570
 5001TIP3    H136418   3.239   1.553  16.248  0.5533 -0.5084  0.3452
 5001TIP3    H236419   3.271   1.609  16.111 -0.5298  0.3082  0.4133
 5002TIP3   OH236420   0.740   3.022  13.284  0.3768  0.5785  0.4132
 5002TIP3    H136421   0.834   3.006  13.294  0.5463  0.9255 -0.5555
 5002TIP3    H236422   0.728   3.113  13.309 -0.0617 -0.0180  2.6153
 5003TIP3   OH236423   0.493   3.314  12.655 -0.5253  0.1704  0.2215
 5003TIP3    H136424   0.587   3.331  12.654 -0.4511 -0.2337 -0.7769
 5003TIP3    H236425   0.484   3.229  12.698 -0.3631 -0.1165 -0.2973
 5004TIP3   OH236426   5.050   5.794   3.399 -0.7082 -0.0728  0.4234
 5004TIP3    H136427   5.012   5.710   3.376  1.3497 -1.2251  0.9972
 5004TIP3    H236428   5.130   5.800   3.346 -1.0482  1.7686  0.0233
 5005TIP3   OH236429   5.401   1.976   3.303  0.6578 -0.3223  0.6021
 5005TIP3    H136430   5.435   1.923   3.230  0.0467 -0.5406  0.4709
 5005TIP3    H236431   5.429   1.929   3.381  2.0250  0.3358  0.5573
 5006TIP3   OH236432   3.481   3.813   4.549  0.0370 -0.4280 -0.1292
 5006TIP3    H136433   3.398   3.847   4.581  0.1224 -0.8013  0.5029
 5006TIP3    H236434   3.463   3.722   4.526 -0.0859 -0.0981 -1.4027
 5007TIP3   OH236435   5.005   1.939   0.406 -0.2866  0.2756 -0.3719
 5007TIP3    H136436   4.996   2.028   0.441  0.0121  0.0205  0.3630
 5007TIP3    H236437   4.923   1.895   0.429  0.6904 -0.5100  1.8573
 5008TIP3   OH236438   3.484   4.623   4.857 -0.4820 -0.2315 -0.2418
 5008TIP3    H136439   3.425   4.548   4.868 -2.3630  1.1149 -0.5689
 5008TIP3    H236440   3.425   4.699   4.858  1.3565  1.2447  0.0685
 5009TIP3   OH236441   6.444   6.221  11.588 -0.3298  0.1494 -0.4698
 5009TIP3    H136442   6.469   6.254  11.674 -1.4747 -2.0854  0.8253
 5009TIP3    H236443   6.497   6.142  11.576  0.5176  0.9365 -2.2875
 5010TIP3   OH236444   5.563   2.591   3.969 -0.0235 -0.0267 -0.0222
 5010TIP3    H136445   5.501   2.642   4.020  0.3433  0.6754 -0.2526
 5010TIP3    H236446   5.640   2.582   4.025  0.8448  1.7664 -0.8255
 5011TIP3   OH236447   3.756   2.290   3.245 -0.4994 -0.3641 -0.0104
 5011TIP3    H136448   3.803   2.231   3.186  0.8036  0.4125  0.2112
 5011TIP3    H236449   3.698   2.233   3.296 -2.9745 -0.9146 -3.1116
 5012TIP3   OH236450   6.715   2.172   5.148 -0.4306 -0.2866  0.4170
 5012TIP3    H136451   6.668   2.201   5.226  0.2587 -0.2815  0.8305
 5012TIP3    H236452   6.650   2.178   5.078 -0.8906  0.2492  0.8838
 5013TIP3   OH236453   5.668   5.145   3.677  0.2188 -0.4557 -0.4672
 5013TIP3    H136454   5.740   5.082   3.677 -0.0317 -0.7660 -1.5712
 5013TIP3    H236455   5.591   5.093   3.651  0.1062  0.3941 -1.9210
 5014TIP3   OH236456   1.775   5.615  10.751  0.1339 -0.0179  0.0356
 5014TIP3    H136457   1.714   5.654  10.813 -0.5836  0.9010 -1.2180
 5014TIP3    H236458   1.727   5.544  10.709  0.3777 -0.1761  0.0169
 5015TIP3   OH236459   6.668   0.246  16.045  0.2712  0.5879 -0.2519
 5015TIP3    H136460   6.638   0.309  16.111 -3.2805  2.1209 -2.9925
 5015TIP3    H236461   6.702   0.301  15.974 -0.5527 -0.6534 -1.6674
 5016TIP3   OH236462   6.133   0.528  11.057  0.3177  0.2401 -0.4215
 5016TIP3    H136463   6.130   0.433  11.072 -1.4008  0.2223 -0.6029
 5016TIP3    H236464   6.161   0.537  10.966 -1.2561 -0.2130 -0.9939
 5017TIP3   OH236465   2.128   2.216   0.991  0.2049  0.3209  0.3514
 5017TIP3    H136466   2.160   2.129   0.967  0.4364  0.7432 -0.9919
 5017TIP3    H236467   2.107   2.256   0.907 -1.8078  0.8439  1.0612
 5018TIP3   OH236468   6.277   6.305   2.212  0.6894 -0.3197 -0.1200
 5018TIP3    H136469   6.328   6.245   2.158 -0.0612 -1.0306 -0.0629
 5018TIP3    H236470   6.245   6.371   2.150  1.5377  0.0465 -0.1770
 5019TIP3   OH236471   5.637   1.248  15.760  0.2859 -0.2233 -0.3449
 5019TIP3    H136472   5.552   1.239  15.718  0.6499 -1.5157 -0.8780
 5019TIP3    H236473   5.669   1.334  15.731  0.1455 -0.7092 -2.0572
 5020TIP3   OH236474   1.579   0.942   1.121 -0.4636  0.4499  0.6105
 5020TIP3    H136475   1.657   0.889   1.102 -0.6369  1.2145 -2.8837
 5020TIP3    H236476   1.506   0.883   1.102 -0.6865  0.8493  0.2216
 5021TIP3   OH236477   3.607   3.610  14.415  0.7309  0.2533  0.1141
 5021TIP3    H136478   3.511   3.609  14.404  0.7799 -0.5986 -0.3024
 5021TIP3    H236479   3.641   3.615  14.326  1.0854  1.6120  0.2947
 5022TIP3   OH236480   4.380   4.506   3.931  0.6103 -0.6501  0.1674
 5022TIP3    H136481   4.316   4.435   3.933 -1.3704  1.0495  0.3945
 5022TIP3    H236482   4.355   4.563   4.004  1.4320  0.8359 -0.6701
 5023TIP3   OH236483   1.818   2.345   4.414  0.0970 -0.2232  0.1686
 5023TIP3    H136484   1.878   2.275   4.390  1.0594  0.8610 -0.7001
 5023TIP3    H236485   1.874   2.415   4.448 -0.6292  0.8334 -0.7197
 5024TIP3   OH236486   4.540   2.765  10.998  0.0464  0.4534 -0.1362
 5024TIP3    H136487   4.535   2.700  11.068  0.0610 -0.2723 -0.7989
 5024TIP3    H236488   4.449   2.784  10.977  0.0418  0.6944  0.0958
 5025TIP3   OH236489   1.356   5.870   2.061  0.0889 -0.4187 -0.3051
 5025TIP3    H136490   1.361   5.884   1.966  1.7061 -0.6742 -0.2880
 5025TIP3    H236491   1.335   5.956   2.097  0.4205 -0.1071 -0.8383
 5026TIP3   OH236492   3.945   2.842   4.124 -0.3552 -0.6857  0.4249
 5026TIP3    H136493   4.038   2.818   4.124 -0.0686  0.3650  0.0183
 5026TIP3    H236494   3.916   2.827   4.214  1.6098  3.9536  2.1763
 5027TIP3   OH236495   4.842   3.918  15.291 -0.2503  0.3122  0.0066
 5027TIP3    H136496   4.861   3.995  15.239 -0.2895  0.6557  0.4966
 5027TIP3    H236497   4.749   3.900  15.274 -0.6074  1.1775  0.9221
 5028TIP3   OH236498   5.859   2.836   5.974 -0.3015 -0.0917 -0.0321
 5028TIP3    H136499   5.858   2.755   6.025 -1.1498 -0.0941 -0.0356
 5028TIP3    H236500   5.847   2.906   6.039  1.3023  0.1147  0.0798
 5029TIP3   OH236501   0.481   4.533  11.168  0.2260  0.0080 -0.0518
 5029TIP3    H136502   0.465   4.501  11.257  0.7686  1.1100  0.4582
 5029TIP3    H236503   0.519   4.620  11.180 -1.3107  0.9285 -1.3962
 5030TIP3   OH236504   1.727   5.887   1.793 -0.3000  0.0281 -0.5206
 5030TIP3    H136505   1.783   5.941   1.848 -1.5733  1.4970 -0.6108
 5030TIP3    H236506   1.765   5.799   1.800  1.3573  0.7554  0.2506
 5031TIP3   OH236507   0.092   0.202  12.678 -0.0726 -0.4837 -0.7123
 5031TIP3    H136508   0.008   0.248  12.680 -0.0150 -0.3920  1.2926
 5031TIP3    H236509   0.113   0.194  12.584 -1.2018  1.4996 -1.1854
 5032TIP3   OH236510   2.915   1.387  12.668  0.4841 -0.5020 -0.1641
 5032TIP3    H136511   3.011   1.379  12.667  0.4144 -1.5579  0.1381
 5032TIP3    H236512   2.885   1.307  12.623 -0.2491  0.0202 -0.6193
 5033TIP3   OH236513   3.598   3.579  13.857  0.1761  0.1035 -0.0787
 5033TIP3    H136514   3.520   3.628  13.881 -0.6025 -0.8814 -0.4933
 5033TIP3    H236515   3.643   3.634  13.793 -0.5095  0.4176 -0.2980
 5034TIP3   OH236516   4.352   3.036   4.086  0.1052 -1.0466 -0.1917
 5034TIP3    H136517   4.353   3.002   3.997  0.9403 -0.2904 -0.4846
 5034TIP3    H236518   4.378   2.961   4.140 -0.2392 -1.4646 -0.5945
 5035TIP3   OH236519   3.654   5.583  15.954  0.6471  0.6385  0.0261
 5035TIP3    H136520   3.622   5.497  15.980 -0.0925  0.5355 -1.1582
 5035TIP3    H236521   3.592   5.645  15.992 -0.7032  0.4681 -1.7531
 5036TIP3   OH236522   5.765   5.223   0.430  0.1367 -0.1254 -0.1069
 5036TIP3    H136523   5.678   5.261   0.424  0.0754 -0.3777 -1.0019
 5036TIP3    H236524   5.822   5.286   0.386  0.5265  0.3475  1.0293
 5037TIP3   OH236525   4.908   3.179  17.249 -0.2614 -0.4204  0.3585
 5037TIP3    H136526   4.951   3.167  17.333 -0.7977  2.3526  1.1193
 5037TIP3    H236527   4.818   3.149  17.264 -0.1491 -0.6939  0.5019
 5038TIP3   OH236528   6.022   3.076   2.391 -0.4361 -0.6943  0.4347
 5038TIP3    H136529   6.093   3.115   2.442 -1.0197 -0.7043  1.2625
 5038TIP3    H236530   6.056   2.989   2.367  0.4714 -0.0903 -0.5820
 5039TIP3   OH236531   5.000   0.940  16.873 -0.0646  0.4046  0.4429
 5039TIP3    H136532   5.049   0.871  16.918  0.7048  0.7511  0.1572
 5039TIP3    H236533   4.962   0.897  16.796  3.2329  0.9259 -1.7003
 5040TIP3   OH236534   1.376   1.092  14.117  0.2680 -0.3673 -0.3345
 5040TIP3    H136535   1.397   1.036  14.192 -1.9262 -1.0788 -0.1736
 5040TIP3    H236536   1.308   1.152  14.150 -0.5880 -0.5552 -1.6754
 5041TIP3   OH236537   1.301   2.338  16.869  0.4436  0.4693 -0.3922
 5041TIP3    H136538   1.253   2.420  16.855 -0.5708  0.0805  0.6309
 5041TIP3    H236539   1.381   2.364  16.915  0.6728  1.0036 -1.0833
 5042TIP3   OH236540   5.572   5.909   2.565 -0.2636  0.4513 -0.1549
 5042TIP3    H136541   5.514   5.961   2.509 -2.2336 -0.8212  0.5980
 5042TIP3    H236542   5.533   5.822   2.566  0.6207  0.0102  1.8688
 5043TIP3   OH236543   6.422   6.245   1.243 -0.3463 -0.4077 -0.3513
 5043TIP3    H136544   6.401   6.242   1.150 -1.1697  0.3135 -0.2040
 5043TIP3    H236545   6.392   6.332   1.272  1.5145  0.0856  0.2161
 5044TIP3   OH236546   2.891   3.445   2.854 -0.1613  0.2388 -0.0632
 5044TIP3    H136547   2.815   3.390   2.874 -0.7524  0.6785 -1.0500
 5044TIP3    H236548   2.912   3.423   2.763  0.2108  0.9370 -0.1461
 5045TIP3   OH236549   2.906   1.197  16.774 -0.0551 -0.0266  0.3131
 5045TIP3    H136550   2.943   1.282  16.796 -0.5998  0.2354  0.2271
 5045TIP3    H236551   2.905   1.196  16.678  4.1564 -1.9411  0.0493
 5046TIP3   OH236552   1.471   1.941   0.477  0.5013 -0.1161 -0.0959
 5046TIP3    H136553   1.526   1.865   0.499  0.0072 -1.0971 -2.0688
 5046TIP3    H236554   1.516   1.983   0.404  0.5068  1.2350  0.6662
 5047TIP3   OH236555   2.754   5.083  11.739 -0.3135  0.3737  0.1516
 5047TIP3    H136556   2.779   5.005  11.691 -0.0754  1.1970 -1.1038
 5047TIP3    H236557   2.668   5.108  11.703  0.9673  2.4250 -1.7571
 5048TIP3   OH236558   3.547   5.375  15.426 -0.0474  0.2495 -0.0223
 5048TIP3    H136559   3.490   5.362  15.501  2.6687  0.1839  2.1950
 5048TIP3    H236560   3.568   5.287  15.396  0.4107  0.1974  0.4339
 5049TIP3   OH236561   0.159   4.200   3.848 -0.0851 -0.3099  0.3528
 5049TIP3    H136562   0.155   4.222   3.755 -1.2006  0.5153  0.5696
 5049TIP3    H236563   0.082   4.243   3.886  1.6752  1.5556  2.0874
 5050TIP3   OH236564   5.040   1.672   5.132  1.1385  0.4620  0.2548
 5050TIP3    H136565   5.097   1.601   5.105  1.3149  0.6843  0.0358
 5050TIP3    H236566   4.990   1.694   5.053  2.4512  1.8705 -0.2304
 5051TIP3   OH236567   0.522   5.189  13.166  0.0771  0.1145  0.7362
 5051TIP3    H136568   0.508   5.108  13.115 -0.1571 -0.6933  2.0382
 5051TIP3    H236569   0.472   5.175  13.246  1.0147  1.0647  1.5023
 5052TIP3   OH236570   1.499   3.575  11.002 -0.0957  0.9782 -0.0688
 5052TIP3    H136571   1.544   3.538  10.926 -1.9303 -2.7782  0.4504
 5052TIP3    H236572   1.570   3.605  11.059  1.4661  0.6053 -1.7130
 5053TIP3   OH236573   3.904   3.405   6.394 -0.1152  0.0149 -0.3587
 5053TIP3    H136574   3.855   3.327   6.422  0.5134 -0.1832  0.2135
 5053TIP3    H236575   3.957   3.375   6.321 -1.4603  0.4378 -1.5695
 5054TIP3   OH236576   0.210   0.962   5.698 -0.2108 -0.3800  0.4587
 5054TIP3    H136577   0.215   0.918   5.613  0.6344  1.5058 -0.5143
 5054TIP3    H236578   0.146   1.032   5.686 -0.5502 -0.4828  1.5739
 5055TIP3   OH236579   2.847   1.958  16.866  0.3451 -0.1049 -0.0164
 5055TIP3    H136580   2.935   1.946  16.833  0.4588  0.4639  0.0668
 5055TIP3    H236581   2.815   2.037  16.822  0.2447  0.2569  0.6775
 5056TIP3   OH236582   4.056   5.348   1.862  0.3157  0.2900  0.0281
 5056TIP3    H136583   4.121   5.286   1.897  0.6196  0.5444 -0.0860
 5056TIP3    H236584   3.985   5.292   1.830  0.5913 -0.0025 -0.0817
 5057TIP3   OH236585   5.342   0.271   1.460  0.5541  0.3538 -0.2738
 5057TIP3    H136586   5.271   0.231   1.510 -0.7522  0.2158 -2.1232
 5057TIP3    H236587   5.329   0.365   1.469 -1.2186  0.3790 -2.2488
 5058TIP3   OH236588   0.336   2.374  16.455  0.6342 -0.0959  0.3063
 5058TIP3    H136589   0.371   2.445  16.401 -0.2511  0.3298  0.2760
 5058TIP3    H236590   0.287   2.419  16.525  2.2195 -0.6049  1.8237
 5059TIP3   OH236591   3.531   2.190   5.859 -0.4162  0.0095 -0.2733
 5059TIP3    H136592   3.493   2.277   5.852  1.1000  0.5991 -1.6719
 5059TIP3    H236593   3.576   2.176   5.776 -0.3983 -2.0118  0.0244
 5060TIP3   OH236594   2.454   3.819   4.593  0.4981 -0.6591 -0.0792
 5060TIP3    H136595   2.385   3.879   4.623  0.1072  0.7104 -3.2923
 5060TIP3    H236596   2.408   3.736   4.577  0.2871 -0.7373  0.8764
 5061TIP3   OH236597   1.514   5.170  12.347  0.4702  0.4992 -0.6122
 5061TIP3    H136598   1.607   5.190  12.344  0.9451 -1.3810 -0.2210
 5061TIP3    H236599   1.510   5.074  12.347 -1.2549  0.3892  2.8426
 5062TIP3   OH236600   2.850   4.908   2.167 -0.2067 -0.5345  0.0263
 5062TIP3    H136601   2.763   4.942   2.148 -0.5654 -1.4916 -0.0601
 5062TIP3    H236602   2.845   4.877   2.257  0.5748  1.0397  0.6592
 5063TIP3   OH236603   6.672   1.726  14.039  0.2759  0.1071  0.2546
 5063TIP3    H136604   6.767   1.732  14.025  0.1548 -0.1612 -0.7250
 5063TIP3    H236605   6.642   1.817  14.038  0.3505  0.1287 -0.7360
 5064TIP3   OH236606   1.808   4.545  12.875 -0.1748 -0.2220  0.0755
 5064TIP3    H136607   1.778   4.463  12.914  1.8105 -0.9301  0.2026
 5064TIP3    H236608   1.768   4.613  12.930  0.4183 -1.1665  1.7560
 5065TIP3   OH236609   5.336   6.167   3.341  0.4194 -1.0084 -0.1051
 5065TIP3    H136610   5.262   6.144   3.285 -0.9874 -0.6343  1.5174
 5065TIP3    H236611   5.412   6.128   3.298 -0.6564 -1.0834 -2.0263
 5066TIP3   OH236612   1.652   2.960   5.417  0.2183  0.5399 -0.0980
 5066TIP3    H136613   1.653   3.055   5.433 -0.9162  0.2562  2.0469
 5066TIP3    H236614   1.559   2.938   5.415  0.3574 -1.0348  3.4008
 5067TIP3   OH236615   2.243   1.498  15.742 -0.2351 -0.5321 -0.3938
 5067TIP3    H136616   2.326   1.524  15.782  0.7870 -2.4844 -1.1033
 5067TIP3    H236617   2.267   1.469  15.653 -1.9603  0.5958 -1.2746
 5068TIP3   OH236618   3.197   2.159  16.607 -0.4419 -0.2736  0.2150
 5068TIP3    H136619   3.271   2.167  16.668  0.8003  0.3683 -1.3155
 5068TIP3    H236620   3.148   2.241  16.619 -0.6096 -0.4616  0.8459
 5069TIP3   OH236621   3.770   5.177  13.785 -0.4950  0.3161 -0.8867
 5069TIP3    H136622   3.845   5.164  13.843 -0.3947 -1.5424 -1.3623
 5069TIP3    H236623   3.733   5.089  13.774 -2.4977  1.1316 -1.0069
 5070TIP3   OH236624   2.359   0.596   4.131  0.0185  0.5697 -0.3584
 5070TIP3    H136625   2.413   0.674   4.120 -0.6568  1.0776 -0.0911
 5070TIP3    H236626   2.406   0.544   4.196  1.1610  0.1126 -1.4994
 5071TIP3   OH236627   4.485   1.016  12.638  0.5033 -0.0609  0.2914
 5071TIP3    H136628   4.574   0.980  12.641  0.1407 -0.8842  1.5124
 5071TIP3    H236629   4.498   1.111  12.640  1.3349 -0.1784  0.8943
 5072TIP3   OH236630   0.278   5.593   2.167  0.3151 -0.3843  0.0603
 5072TIP3    H136631   0.242   5.576   2.254 -0.8115 -0.5021 -0.4192
 5072TIP3    H236632   0.267   5.511   2.119  1.9320 -0.6785  0.1159
 5073TIP3   OH236633   2.856   4.557  16.391 -0.3828  0.0120  0.4079
 5073TIP3    H136634   2.918   4.611  16.440  1.1276 -0.4133 -0.9387
 5073TIP3    H236635   2.849   4.476  16.442 -2.9165  1.4521  2.6176
 5074TIP3   OH236636   3.602   1.951   2.759  0.3669 -0.6608  0.1910
 5074TIP3    H136637   3.691   1.928   2.787  0.8351 -0.0679 -0.7727
 5074TIP3    H236638   3.613   2.030   2.706 -0.5622 -1.3976 -1.1529
 5075TIP3   OH236639   5.577   0.881   2.296 -0.2217 -0.0397 -0.1974
 5075TIP3    H136640   5.637   0.943   2.336 -0.1073  0.7044 -1.4797
 5075TIP3    H236641   5.630   0.836   2.230 -1.0280  0.5865 -1.3059
 5076TIP3   OH236642   0.299   0.383   1.265 -0.4130  0.1704  0.1028
 5076TIP3    H136643   0.374   0.369   1.323 -1.0115  0.0950  0.8743
 5076TIP3    H236644   0.284   0.477   1.267 -0.5907  0.1380  0.2629
 5077TIP3   OH236645   0.443   3.457  11.101  0.0586 -0.5653  0.6644
 5077TIP3    H136646   0.391   3.414  11.033  1.0695 -2.6832  1.1172
 5077TIP3    H236647   0.395   3.439  11.182  0.5507 -0.9474  0.8739
 5078TIP3   OH236648   2.390   2.556   2.857  0.6332 -0.2961 -0.3338
 5078TIP3    H136649   2.444   2.626   2.821 -0.0840  0.2545 -0.3465
 5078TIP3    H236650   2.432   2.534   2.940  0.1415  1.0150  0.2794
 5079TIP3   OH236651   3.044   1.085   2.452 -0.0460 -0.0168 -0.0403
 5079TIP3    H136652   3.058   1.029   2.375 -1.1142 -0.0962 -0.1965
 5079TIP3    H236653   3.014   1.168   2.416  0.0057  0.1351  0.2675
 5080TIP3   OH236654   0.775   1.598   4.117 -0.2467  0.1834  0.1870
 5080TIP3    H136655   0.861   1.640   4.105 -1.0603  1.9258  0.1983
 5080TIP3    H236656   0.785   1.549   4.199  0.7598  0.2875  0.1490
 5081TIP3   OH236657   5.237   5.730  13.755  0.2806  0.4543 -0.8064
 5081TIP3    H136658   5.291   5.742  13.677  1.0937  0.5956 -0.2400
 5081TIP3    H236659   5.279   5.659  13.802 -2.4720 -2.4856 -2.3947
 5082TIP3   OH236660   3.302   4.528   1.882 -0.0173  0.5098  0.1030
 5082TIP3    H136661   3.300   4.547   1.788  1.0299  0.3184  0.0324
 5082TIP3    H236662   3.253   4.446   1.890  1.0514 -0.2204 -0.4849
 5083TIP3   OH236663   3.673   3.684   1.743  0.1812 -0.4825  0.3667
 5083TIP3    H136664   3.688   3.686   1.838  1.6618  0.3039  0.1341
 5083TIP3    H236665   3.596   3.740   1.730 -0.5240 -1.2276  1.1586
 5084TIP3   OH236666   3.713   0.671   0.228  0.0477  0.2616 -0.4587
 5084TIP3    H136667   3.672   0.753   0.201 -0.4555 -0.1387 -0.9413
 5084TIP3    H236668   3.640   0.609   0.235  0.4642 -0.2347 -0.4458
 5085TIP3   OH236669   2.471   0.357   6.493 -0.4466 -0.4442  0.0815
 5085TIP3    H136670   2.396   0.387   6.442  0.0504 -0.5145 -0.7069
 5085TIP3    H236671   2.508   0.437   6.531 -0.8973 -0.4062  0.4466
 5086TIP3   OH236672   2.516   4.429   2.598 -0.3498 -0.4325 -0.1615
 5086TIP3    H136673   2.603   4.463   2.575 -0.4404 -0.9234 -1.3125
 5086TIP3    H236674   2.458   4.467   2.532 -1.1516  0.4448  0.9965
 5087TIP3   OH236675   4.627   0.821   2.856 -0.0650 -0.3775  0.6292
 5087TIP3    H136676   4.701   0.881   2.865 -1.0197  0.9182  0.1391
 5087TIP3    H236677   4.606   0.795   2.946 -0.0902  0.5851  0.9083
 5088TIP3   OH236678   5.147   5.222   2.644 -0.0698 -0.2568 -0.1828
 5088TIP3    H136679   5.143   5.202   2.550 -2.4470  0.0529 -0.2201
 5088TIP3    H236680   5.127   5.138   2.686 -0.5870 -0.0614 -0.0284
 5089TIP3   OH236681   1.901   2.076  16.267 -0.0790 -0.2714  0.4168
 5089TIP3    H136682   1.821   2.081  16.319  0.0944 -1.8610  0.8901
 5089TIP3    H236683   1.966   2.040  16.327  1.0548  1.1207  0.0823
 5090TIP3   OH236684   3.146   5.857   3.919 -0.1748  0.3153 -0.0920
 5090TIP3    H136685   3.235   5.839   3.888 -0.0754  1.5352 -0.5777
 5090TIP3    H236686   3.149   5.838   4.013  0.6487  0.4610 -0.0817
 5091TIP3   OH236687   5.010   4.098   4.514  0.1892  0.3074  0.0638
 5091TIP3    H136688   4.976   4.187   4.525 -0.3122  0.4262 -1.9972
 5091TIP3    H236689   4.967   4.066   4.435  1.3156 -1.3202  0.0643
 5092TIP3   OH236690   0.173   0.482  12.890  0.3634 -0.7624 -1.0952
 5092TIP3    H136691   0.192   0.391  12.915  0.9952 -0.2976  0.1929
 5092TIP3    H236692   0.189   0.484  12.795 -1.7208 -2.4834 -1.5527
 5093TIP3   OH236693   5.216   1.024   3.872  0.6480 -0.2359 -0.2149
 5093TIP3    H136694   5.121   1.037   3.876  0.9179  2.0340  0.2296
 5093TIP3    H236695   5.231   0.938   3.912 -0.9267  1.0545  3.5632
 5094TIP3   OH236696   1.843   1.813  13.818 -0.0023 -0.3645  0.1288
 5094TIP3    H136697   1.797   1.816  13.902  0.5702 -0.6412  0.4552
 5094TIP3    H236698   1.863   1.721  13.806  1.3319 -0.1326  0.4638
 5095TIP3   OH236699   5.136   0.238  13.900 -0.2193 -0.3532  0.5977
 5095TIP3    H136700   5.077   0.180  13.948 -0.5732  0.4417  1.1682
 5095TIP3    H236701   5.132   0.208  13.810 -1.5563 -0.2991  0.6119
 5096TIP3   OH236702   4.657   4.097  11.664 -0.5830  0.5828 -0.5610
 5096TIP3    H136703   4.675   4.188  11.688 -1.1185  0.5588 -0.0682
 5096TIP3    H236704   4.579   4.074  11.713  0.8561 -0.8929  1.1948
 5097TIP3   OH236705   1.933   1.303   3.431 -0.2327  0.2651 -0.2090
 5097TIP3    H136706   2.010   1.358   3.421  2.4972 -3.2547 -0.4519
 5097TIP3    H236707   1.959   1.236   3.493 -3.6625 -0.3427  0.7763
 5098TIP3   OH236708   4.794   4.675   2.481  0.0686 -0.3044 -0.6484
 5098TIP3    H136709   4.784   4.725   2.562 -1.0716  1.6612 -1.9197
 5098TIP3    H236710   4.815   4.586   2.510  0.5966  0.5314  1.7533
 5099TIP3   OH236711   0.329   4.928  13.772 -0.2617 -0.5234  0.3727
 5099TIP3    H136712   0.340   4.873  13.850 -0.9405 -0.0391  0.8236
 5099TIP3    H236713   0.241   4.964  13.781  0.1724  0.6342  0.0858
 5100TIP3   OH236714   1.729   0.595   1.770 -0.4148 -0.1262  0.1504
 5100TIP3    H136715   1.766   0.557   1.690  0.5188 -0.1438  0.5764
 5100TIP3    H236716   1.797   0.583   1.836 -2.0627 -2.3232  1.6044
 5101TIP3   OH236717   1.389   1.650   3.243  0.9918  0.1869  0.1244
 5101TIP3    H136718   1.331   1.574   3.233 -1.5814  1.8729  0.9825
 5101TIP3    H236719   1.381   1.697   3.160  0.8734  0.5741  0.3488
 5102TIP3   OH236720   4.906   3.495  11.842 -0.4147 -0.1974  0.4990
 5102TIP3    H136721   4.846   3.488  11.768  1.2149 -0.6801 -0.8480
 5102TIP3    H236722   4.865   3.558  11.900 -1.2624  1.0366 -1.3338
 5103TIP3   OH236723   2.313   3.160  11.407 -0.3957 -0.0759  0.2969
 5103TIP3    H136724   2.374   3.179  11.335 -0.0093  0.5529  0.7859
 5103TIP3    H236725   2.356   3.092  11.459  0.7074  1.5973  1.6356
 5104TIP3   OH236726   0.894   6.616  14.743  0.0748  0.1488  0.0965
 5104TIP3    H136727   0.933   6.639  14.827 -0.0750  0.2356  0.1424
 5104TIP3    H236728   0.851   6.696  14.713  1.4166  0.5590 -0.7880
 5105TIP3   OH236729   2.899   3.337   5.865  0.4157 -1.0102 -0.1198
 5105TIP3    H136730   2.959   3.396   5.820  0.4651 -0.1583  1.0008
 5105TIP3    H236731   2.903   3.365   5.957 -0.5316 -1.9366  0.2239
 5106TIP3   OH236732   6.399   5.909  16.490  0.1232 -0.1250 -0.3324
 5106TIP3    H136733   6.324   5.870  16.534  1.1639  0.5817  2.2626
 5106TIP3    H236734   6.419   5.987  16.541  1.9121  0.3609 -1.6584
 5107TIP3   OH236735   4.475   0.386  11.241 -0.4079 -0.1443  0.3746
 5107TIP3    H136736   4.403   0.346  11.291  0.4865 -0.0482  1.7870
 5107TIP3    H236737   4.440   0.470  11.211 -0.8961 -0.1111  1.0187
 5108TIP3   OH236738   5.861   4.582  14.393  0.5676  0.1186 -0.0490
 5108TIP3    H136739   5.810   4.530  14.331  1.2690 -0.0661 -0.4807
 5108TIP3    H236740   5.824   4.560  14.479 -1.7698  1.8882 -0.5051
 5109TIP3   OH236741   6.746   5.972   0.481 -0.0138  0.1721 -0.0784
 5109TIP3    H136742   6.705   5.950   0.565  0.2919  2.5569  0.7816
 5109TIP3    H236743   6.677   5.957   0.416 -0.8700  0.0397  0.8334
 5110TIP3   OH236744   4.530   4.479   2.973 -0.2880  0.1769 -0.0589
 5110TIP3    H136745   4.518   4.559   3.024  0.3714  1.6352 -2.1017
 5110TIP3    H236746   4.455   4.478   2.913  1.2257  0.8673 -2.0358
 5111TIP3   OH236747   3.920   2.468  16.723 -0.5951  0.2633  0.2373
 5111TIP3    H136748   3.880   2.525  16.789 -0.9376  0.9390 -0.5381
 5111TIP3    H236749   3.964   2.400  16.774 -1.2287  0.5142  1.1515
 5112TIP3   OH236750   6.495   5.835  14.360  0.6657  0.1896 -0.4077
 5112TIP3    H136751   6.482   5.921  14.319  0.9126 -0.0774 -1.0620
 5112TIP3    H236752   6.407   5.799  14.369  0.6856 -0.4148 -2.2007
 5113TIP3   OH236753   5.097   3.888  11.664 -0.1541  0.4130  0.3778
 5113TIP3    H136754   5.114   3.794  11.670  0.9746  0.6889  2.4466
 5113TIP3    H236755   5.006   3.898  11.691 -0.7311 -0.1897 -1.2516
 5114TIP3   OH236756   5.328   0.668  12.246 -0.3594 -0.2268 -0.5833
 5114TIP3    H136757   5.320   0.574  12.232 -2.0062 -0.4169  1.2238
 5114TIP3    H236758   5.240   0.696  12.273  0.1865  1.7642 -0.6953
 5115TIP3   OH236759   2.627   3.647  11.455 -0.4399  0.1547  0.0584
 5115TIP3    H136760   2.604   3.649  11.548  0.9161  1.7094  0.4175
 5115TIP3    H236761   2.681   3.725  11.442  1.1901 -1.1396 -1.5526
 5116TIP3   OH236762   5.478   6.701   1.084  0.1411 -0.4187 -0.2195
 5116TIP3    H136763   5.456   6.625   1.138  1.3796  1.2162  2.8726
 5116TIP3    H236764   5.462   6.776   1.141 -0.4537  1.6544 -2.9241
 5117TIP3   OH236765   5.034   6.694   0.918  0.3997  0.3387  0.3321
 5117TIP3    H136766   4.958   6.667   0.969  1.1010 -1.5395  0.4675
 5117TIP3    H236767   5.034   6.790   0.922 -1.5115  0.3445  0.9437
 5118TIP3   OH236768   3.124   4.329  16.080  0.1991  0.1826 -0.1384
 5118TIP3    H136769   3.213   4.364  16.090 -0.0232  0.3600  1.5495
 5118TIP3    H236770   3.069   4.407  16.070 -0.1042  0.2933  1.9867
 5119TIP3   OH236771   5.016   6.623   2.761 -0.7042  1.0418 -0.0578
 5119TIP3    H136772   4.979   6.534   2.759  1.8274 -0.0967 -1.5326
 5119TIP3    H236773   4.982   6.661   2.842 -1.4775 -1.4659  0.9061
 5120TIP3   OH236774   3.556   5.294   5.693 -0.4605  0.6585 -0.4017
 5120TIP3    H136775   3.613   5.248   5.632 -1.6820 -1.1117 -0.3050
 5120TIP3    H236776   3.496   5.343   5.637 -0.1074  0.9226 -0.5507
 5121TIP3   OH236777   3.246   6.475  12.941  0.4563  0.7627 -0.0879
 5121TIP3    H136778   3.233   6.508  12.852 -2.2616 -2.5086 -1.1290
 5121TIP3    H236779   3.308   6.403  12.931  1.0411  1.1024  0.9206
 5122TIP3   OH236780   4.210   1.223   1.962 -0.2770  0.1537 -0.2437
 5122TIP3    H136781   4.231   1.228   1.869  2.7373 -0.9571  0.2649
 5122TIP3    H236782   4.189   1.131   1.977  1.1623 -0.0765  0.4785
 5123TIP3   OH236783   3.378   4.535   1.417 -0.1789 -0.4066 -0.1213
 5123TIP3    H136784   3.444   4.492   1.363 -0.9687 -1.7099 -0.0983
 5123TIP3    H236785   3.294   4.514   1.375 -0.5701  1.5840 -0.4001
 5124TIP3   OH236786   1.085   0.241   1.214 -0.0172 -0.4319 -0.7574
 5124TIP3    H136787   1.067   0.197   1.131 -1.0871  0.1719 -0.8670
 5124TIP3    H236788   1.067   0.334   1.196 -1.9858 -0.4947  0.5920
 5125TIP3   OH236789   3.103   3.581  12.935  0.1154 -0.7979 -0.6173
 5125TIP3    H136790   3.034   3.524  12.969 -0.0083 -0.4423 -0.2582
 5125TIP3    H236791   3.171   3.521  12.904 -0.2096 -1.1456 -0.6687
 5126TIP3   OH236792   1.690   2.565  11.020 -0.2096 -0.3808 -0.1033
 5126TIP3    H136793   1.632   2.636  10.992 -1.3234 -1.7973 -1.6015
 5126TIP3    H236794   1.675   2.496  10.956 -0.6112 -2.7096  2.3373
 5127TIP3   OH236795   0.949   4.451  12.224 -0.1311  0.5603  0.1896
 5127TIP3    H136796   0.920   4.540  12.205  1.0327  0.6555 -1.3004
 5127TIP3    H236797   0.929   4.439  12.317 -0.1386  2.4314  0.4673
 5128TIP3   OH236798   2.599   1.187   5.170  0.0466  0.1656 -0.3292
 5128TIP3    H136799   2.557   1.250   5.111  0.6368  1.9288  1.0529
 5128TIP3    H236800   2.528   1.128   5.197 -0.0556 -1.3434 -3.4881
 5129TIP3   OH236801   0.371   2.974   6.354 -0.2926 -0.1918 -0.1812
 5129TIP3    H136802   0.442   2.911   6.341  0.4222  0.2848  1.1572
 5129TIP3    H236803   0.291   2.921   6.351  0.3104 -1.2826  1.3410
 5130TIP3   OH236804   1.484   1.577   1.984  0.1111  0.1288  0.4508
 5130TIP3    H136805   1.443   1.568   2.070 -0.0243 -2.9049  0.1646
 5130TIP3    H236806   1.417   1.550   1.922  1.8681 -3.4516 -0.1206
 5131TIP3   OH236807   0.411   6.610   0.973 -0.2740  0.0959  0.5861
 5131TIP3    H136808   0.399   6.673   1.044 -1.0498 -1.5216  1.9763
 5131TIP3    H236809   0.480   6.551   1.004 -0.5821 -0.6004 -0.0120
 5132TIP3   OH236810   2.269   6.167   2.778 -0.0679 -0.0062  0.7130
 5132TIP3    H136811   2.289   6.250   2.820  0.1495  1.6118 -2.3092
 5132TIP3    H236812   2.183   6.180   2.739  0.6302 -0.5844 -1.1354
 5133TIP3   OH236813   0.710   1.951  14.673  0.1544  0.0523  0.0130
 5133TIP3    H136814   0.715   1.864  14.634  2.4196  0.0903  0.0850
 5133TIP3    H236815   0.695   1.935  14.766 -0.9757 -0.1703 -0.1864
 5134TIP3   OH236816   1.274   2.197  12.781  0.5479  0.4341 -0.2708
 5134TIP3    H136817   1.333   2.272  12.795 -0.3001  0.9091  0.8832
 5134TIP3    H236818   1.325   2.121  12.807  0.4387  0.9128  1.4285
 5135TIP3   OH236819   1.529   5.380   2.846 -0.6030 -0.0316  0.1627
 5135TIP3    H136820   1.612   5.334   2.851 -1.2331 -1.1033  1.1735
 5135TIP3    H236821   1.542   5.460   2.897 -0.0733  0.0067 -0.0299
 5136TIP3   OH236822   1.671   3.510   3.156  0.8583  0.2344  0.0807
 5136TIP3    H136823   1.686   3.568   3.081 -0.0044  2.1928  1.3762
 5136TIP3    H236824   1.650   3.425   3.116 -0.3622  1.4108 -1.9097
 5137TIP3   OH236825   5.966   5.304   5.779 -0.4444  0.1338 -0.1476
 5137TIP3    H136826   6.026   5.233   5.802  0.7513  0.5678 -1.7151
 5137TIP3    H236827   5.993   5.377   5.833  0.7306  0.4278 -1.0727
 5138TIP3   OH236828   0.919   2.732  14.587 -0.3415  0.2860  0.0070
 5138TIP3    H136829   0.835   2.753  14.628 -2.0365 -1.4363 -2.3472
 5138TIP3    H236830   0.917   2.637  14.574  1.9065  0.2229 -0.3238
 5139TIP3   OH236831   1.091   3.076   3.623  0.4487 -0.2723 -0.0959
 5139TIP3    H136832   1.131   3.162   3.616 -1.4411  0.5491 -1.9920
 5139TIP3    H236833   1.024   3.086   3.690  1.9580 -1.0785  1.6122
 5140TIP3   OH236834   5.167   3.116  14.767 -0.0929 -0.4884  0.1647
 5140TIP3    H136835   5.079   3.109  14.803  0.6980 -0.8407  2.1664
 5140TIP3    H236836   5.164   3.064  14.686 -1.5093 -1.1377  0.6081
 5141TIP3   OH236837   0.811   0.511   4.366 -0.1835 -0.2166  0.7497
 5141TIP3    H136838   0.736   0.539   4.314  0.7556  0.5243 -0.2658
 5141TIP3    H236839   0.837   0.427   4.327 -0.5694 -0.5561  1.2091
 5142TIP3   OH236840   3.110   0.572  13.463 -0.0089 -0.1179 -0.2285
 5142TIP3    H136841   3.051   0.644  13.438  0.1143 -0.7862 -2.6055
 5142TIP3    H236842   3.094   0.561  13.557 -1.2755  1.8718 -0.1421
 5143TIP3   OH236843   3.862   1.855  16.357  0.1912  0.5391  0.1679
 5143TIP3    H136844   3.936   1.903  16.395  0.7870  1.4218 -1.9568
 5143TIP3    H236845   3.821   1.918  16.298 -2.5797  0.2014  1.6093
 5144TIP3   OH236846   3.008   0.708   3.898 -0.2963 -0.2694  0.5348
 5144TIP3    H136847   2.978   0.780   3.842  2.4574 -0.2524 -1.1006
 5144TIP3    H236848   2.984   0.629   3.850  1.6866 -0.2636 -0.5362
 5145TIP3   OH236849   1.194   6.657   4.107  0.2055 -0.0183  0.3582
 5145TIP3    H136850   1.198   6.579   4.051  2.9384 -0.5154  1.0915
 5145TIP3    H236851   1.242   6.632   4.186  0.5643  2.1868  0.9047
 5146TIP3   OH236852   3.161   0.944   0.569  0.0540 -0.0960  0.3386
 5146TIP3    H136853   3.248   0.921   0.536  1.1959  2.3248  1.3758
 5146TIP3    H236854   3.161   0.913   0.660 -1.0801 -2.1141 -0.3169
 5147TIP3   OH236855   5.794   1.773   0.151 -0.2136  0.2106  0.1428
 5147TIP3    H136856   5.739   1.730   0.216 -1.5397 -0.5259 -1.4012
 5147TIP3    H236857   5.803   1.709   0.081  2.8607  0.2191  0.4060
 5148TIP3   OH236858   4.224   4.193  14.054 -0.2582  0.4800  0.0791
 5148TIP3    H136859   4.171   4.132  14.106 -2.1172  0.2103 -2.0201
 5148TIP3    H236860   4.168   4.219  13.982  1.9493  1.4583 -1.3974
 5149TIP3   OH236861   1.116   6.249  11.928 -0.3878  0.2679 -0.3019
 5149TIP3    H136862   1.087   6.173  11.979  0.1307  0.2661 -0.0006
 5149TIP3    H236863   1.192   6.218  11.879 -0.3692  0.5019 -0.4224
 5150TIP3   OH236864   2.200   0.096   3.696 -0.0708 -0.0607 -0.0261
 5150TIP3    H136865   2.133   0.055   3.750  0.1322  1.0315  1.0844
 5150TIP3    H236866   2.281   0.052   3.721  0.8240  3.2346  3.8949
 5151TIP3   OH236867   1.216   5.927   1.524 -0.4396 -0.7892  0.1525
 5151TIP3    H136868   1.255   6.013   1.506 -0.1414 -0.8038  0.7070
 5151TIP3    H236869   1.123   5.939   1.504 -0.1974 -0.7009 -0.9964
 5152TIP3   OH236870   1.032   0.779  10.908  0.2452 -0.1204  0.4231
 5152TIP3    H136871   1.056   0.869  10.930 -0.4296  0.0702  0.4194
 5152TIP3    H236872   1.113   0.738  10.879  0.2353  1.0290 -1.4051
 5153TIP3   OH236873   2.195   6.136  11.589 -0.5349 -0.5900 -0.5609
 5153TIP3    H136874   2.260   6.066  11.588 -0.6555 -0.7012 -1.3327
 5153TIP3    H236875   2.143   6.119  11.668  1.1044  0.2147  0.7369
 5154TIP3   OH236876   1.091   0.163   4.180  0.0773  0.2039 -0.5513
 5154TIP3    H136877   1.120   0.078   4.147  1.1861  0.3719 -0.0568
 5154TIP3    H236878   1.171   0.216   4.186 -0.4318  0.9348  0.1538
 5155TIP3   OH236879   3.375   6.019  13.622 -0.1095  0.1805  0.1181
 5155TIP3    H136880   3.301   6.025  13.562 -0.8409 -1.0174  0.8654
 5155TIP3    H236881   3.338   6.036  13.709  0.2903 -1.2651  0.6076
 5156TIP3   OH236882   1.016   3.536  13.253 -0.1773 -0.0254  0.3742
 5156TIP3    H136883   0.943   3.534  13.315 -0.0594  1.1112  0.5712
 5156TIP3    H236884   1.093   3.553  13.307 -0.2198  2.1521 -0.1593
 5157TIP3   OH236885   4.064   5.612  17.164 -0.7302  0.1257  0.0530
 5157TIP3    H136886   4.024   5.578  17.084  0.7087  0.7697 -0.9741
 5157TIP3    H236887   4.151   5.573  17.166 -0.1880  1.3097  0.4726
 5158TIP3   OH236888   3.859   1.575   2.541  0.3029 -0.8370  0.5997
 5158TIP3    H136889   3.917   1.518   2.491 -1.3022 -1.0789 -1.1086
 5158TIP3    H236890   3.776   1.528   2.545  0.0504 -0.3149  2.5970
 5159TIP3   OH236891   6.279   0.544   3.813  0.3351 -0.1303  0.1522
 5159TIP3    H136892   6.217   0.549   3.740 -0.0555 -0.1742  0.4785
 5159TIP3    H236893   6.272   0.455   3.845 -1.2995  0.5262  1.7916
 5160TIP3   OH236894   4.823   5.244  16.082 -0.3544  0.0268 -0.4504
 5160TIP3    H136895   4.753   5.301  16.114 -0.6638 -1.2498  1.2952
 5160TIP3    H236896   4.864   5.294  16.011 -0.9509  2.1629  0.6224
 5161TIP3   OH236897   1.568   1.117  13.595 -0.1887  0.0514 -0.2906
 5161TIP3    H136898   1.653   1.100  13.636 -0.5544  0.6421  0.7769
 5161TIP3    H236899   1.505   1.108  13.667 -1.0175 -0.2529 -1.0395
 5162TIP3   OH236900   5.934   2.961  12.358  0.9587 -0.8321  0.1260
 5162TIP3    H136901   5.916   3.008  12.439  0.2435  0.8272 -0.9378
 5162TIP3    H236902   5.881   3.006  12.292  3.2152 -0.6422 -1.7091
 5163TIP3   OH236903   0.042   0.080  15.676 -0.0602 -0.3676 -0.5868
 5163TIP3    H136904   0.118   0.138  15.669 -0.6596  1.1673  3.1006
 5163TIP3    H236905   0.075   0.003  15.722 -0.6086  0.2120  0.8384
 5164TIP3   OH236906   5.307   0.226  13.050 -0.1000  0.3017 -0.3396
 5164TIP3    H136907   5.290   0.299  12.990 -0.0715  0.8077  0.2592
 5164TIP3    H236908   5.290   0.262  13.137 -0.8677 -0.6447 -0.0891
 5165TIP3   OH236909   4.271   2.836   3.887 -0.4286 -0.4200 -0.7325
 5165TIP3    H136910   4.361   2.804   3.877 -0.7452 -1.9811  0.9358
 5165TIP3    H236911   4.237   2.839   3.797  0.0465 -3.7324 -1.1543
 5166TIP3   OH236912   3.297   2.750   3.639  0.3551  0.6671  0.3029
 5166TIP3    H136913   3.359   2.801   3.587 -1.0761  0.2339 -1.9337
 5166TIP3    H236914   3.328   2.660   3.632  0.0447  0.5812  0.0667
 5167TIP3   OH236915   3.796   4.153   3.331 -0.4653 -0.1102  0.1491
 5167TIP3    H136916   3.767   4.187   3.416 -1.3590 -0.8379  0.1515
 5167TIP3    H236917   3.864   4.214   3.303  0.1903 -0.1425  1.6083
 5168TIP3   OH236918   2.825   5.478   2.578 -0.1032 -0.1430  0.1283
 5168TIP3    H136919   2.817   5.552   2.518  2.3990 -0.2190 -0.3872
 5168TIP3    H236920   2.824   5.519   2.665 -1.3795  0.1976 -0.0237
 5169TIP3   OH236921   1.357   2.597   0.186 -0.2573 -0.7937  0.0122
 5169TIP3    H136922   1.328   2.524   0.131  1.7159 -1.6086 -0.0182
 5169TIP3    H236923   1.345   2.674   0.131  0.8712 -1.4992 -1.2963
 5170TIP3   OH236924   0.537   6.374   0.139  0.3552 -0.0530  0.1778
 5170TIP3    H136925   0.607   6.386   0.204 -0.0396 -1.6573  0.9627
 5170TIP3    H236926   0.501   6.461   0.125  1.1924  0.4908  1.2841
 5171TIP3   OH236927   3.874   1.853  14.358  0.6061  0.2997 -0.1349
 5171TIP3    H136928   3.871   1.788  14.428 -4.0525  1.1885  0.8290
 5171TIP3    H236929   3.807   1.825  14.296  0.3200  2.7270 -1.0451
 5172TIP3   OH236930   5.027   6.026   2.458  0.2620  0.2101  0.1202
 5172TIP3    H136931   5.003   5.934   2.462 -0.1820  0.3190  0.0724
 5172TIP3    H236932   5.063   6.045   2.545 -0.0551  0.1008  0.2766
 5173TIP3   OH236933   2.852   3.464  10.489  0.2955  0.0571  0.2427
 5173TIP3    H136934   2.918   3.419  10.541  0.9306  0.2575 -0.3699
 5173TIP3    H236935   2.902   3.515  10.426 -0.4514 -0.9245 -1.2072
 5174TIP3   OH236936   4.089   1.906  13.498  0.1404 -0.1032  0.3709
 5174TIP3    H136937   4.149   1.977  13.476 -0.6939  1.1629  1.9393
 5174TIP3    H236938   4.005   1.950  13.511 -0.5605 -1.4936  0.6821
 5175TIP3   OH236939   4.754   1.044  14.698  0.1740 -0.0895  0.1492
 5175TIP3    H136940   4.663   1.030  14.671 -0.4094 -0.7264  2.2428
 5175TIP3    H236941   4.761   0.999  14.782  1.8223  1.7799  1.1005
 5176TIP3   OH236942   1.105   6.004  12.980 -0.0915  0.2403 -0.0292
 5176TIP3    H136943   1.178   6.024  12.922  1.5087 -0.3499  1.6706
 5176TIP3    H236944   1.080   5.914  12.956 -0.6328  0.6370 -0.9754
 5177TIP3   OH236945   0.993   6.491  16.991  0.3584 -0.2821 -0.7814
 5177TIP3    H136946   1.057   6.551  17.029  0.2341  1.1513 -2.6481
 5177TIP3    H236947   1.032   6.465  16.908 -1.7688  1.3647 -2.4207
 5178TIP3   OH236948   0.650   1.372  17.079  0.5380 -0.4349 -0.2239
 5178TIP3    H136949   0.561   1.384  17.044 -0.5775  1.7049  2.8548
 5178TIP3    H236950   0.691   1.458  17.071  1.8393 -1.0324 -0.2474
 5179TIP3   OH236951   1.063   1.085   4.441 -1.1627  0.3484  0.1589
 5179TIP3    H136952   1.137   1.126   4.396 -0.6976  0.6747  1.1946
 5179TIP3    H236953   0.990   1.146   4.429 -0.8845  0.7237  0.3592
 5180TIP3   OH236954   5.389   4.557  12.638 -0.4998 -0.4578  0.0404
 5180TIP3    H136955   5.337   4.638  12.645 -2.2192 -1.5984  1.2464
 5180TIP3    H236956   5.362   4.505  12.714  0.6919 -2.1157 -0.6219
 5181TIP3   OH236957   0.443   2.718   0.762  0.3369  0.0128  0.3896
 5181TIP3    H136958   0.437   2.713   0.666 -0.4448  1.4894  0.3343
 5181TIP3    H236959   0.469   2.630   0.789  0.6140 -0.4200 -1.1796
 5182TIP3   OH236960   2.471   0.565  12.645  0.8985  0.5387 -0.1562
 5182TIP3    H136961   2.408   0.586  12.714 -1.1282 -1.4573 -1.2725
 5182TIP3    H236962   2.453   0.628  12.576  0.9171  0.6803 -0.0335
 5183TIP3   OH236963   4.905   3.764   5.150 -0.2591 -0.1167  0.3348
 5183TIP3    H136964   4.835   3.828   5.140 -0.1353  0.6223  3.3072
 5183TIP3    H236965   4.976   3.812   5.191  1.0179 -1.4801 -0.1933
 5184TIP3   OH236966   5.408   5.455  15.903 -0.6576 -0.0601  0.2800
 5184TIP3    H136967   5.361   5.466  15.986 -2.5374 -0.2224 -0.7163
 5184TIP3    H236968   5.348   5.404  15.848 -0.1906  1.4666 -1.7588
 5185TIP3   OH236969   4.203   3.115  14.417  0.2061 -0.2396  0.3785
 5185TIP3    H136970   4.119   3.073  14.433  1.3658 -2.6059  0.5837
 5185TIP3    H236971   4.225   3.157  14.500 -0.7043  0.3217  0.3483
 5186TIP3   OH236972   6.421   3.807   2.857 -0.4523 -0.0133 -0.1022
 5186TIP3    H136973   6.331   3.810   2.824 -0.2956 -0.5538 -0.5877
 5186TIP3    H236974   6.414   3.763   2.942 -0.7338  0.5721  0.1868
 5187TIP3   OH236975   0.012   0.247   6.041  0.4854  0.4260 -0.1367
 5187TIP3    H136976   0.074   0.293   5.985  0.8189 -0.1775 -0.2659
 5187TIP3    H236977   0.057   0.240   6.125  0.6559 -0.1445 -0.2734
 5188TIP3   OH236978   3.668   5.559   2.218  0.2422  0.1196  0.1296
 5188TIP3    H136979   3.690   5.650   2.198  0.4480  0.3386  1.3000
 5188TIP3    H236980   3.597   5.565   2.283  0.5632 -0.5436  0.5492
 5189TIP3   OH236981   2.702   2.750   1.995 -0.0870  0.1470  0.3738
 5189TIP3    H136982   2.771   2.687   2.016 -0.1176  0.2084  0.6638
 5189TIP3    H236983   2.650   2.707   1.928  0.6209  0.3689 -0.3320
 5190TIP3   OH236984   1.871   1.946  14.659 -0.2382 -0.3117 -0.0736
 5190TIP3    H136985   1.842   1.882  14.724 -0.3597  1.4555  1.7194
 5190TIP3    H236986   1.793   1.999  14.641  0.6134  1.4413  1.1119
 5191TIP3   OH236987   1.460   0.931   4.371  0.5783 -0.0207 -0.2588
 5191TIP3    H136988   1.393   0.959   4.308  0.6013 -0.4458 -0.4801
 5191TIP3    H236989   1.543   0.944   4.325  0.6890  1.0412  0.2239
 5192TIP3   OH236990   1.626   4.924   0.117  0.0737 -0.5777  0.0322
 5192TIP3    H136991   1.662   4.846   0.073  0.2980 -0.5462  0.1597
 5192TIP3    H236992   1.533   4.904   0.128  0.0241 -0.6063 -0.4123
 5193TIP3   OH236993   1.558   1.753   4.658 -0.0762 -1.0256 -0.4517
 5193TIP3    H136994   1.548   1.715   4.571  0.9060  0.3329 -1.1861
 5193TIP3    H236995   1.629   1.704   4.698  0.1052 -1.0224 -0.7710
 5194TIP3   OH236996   5.414   5.108  16.962  0.7303 -0.3186 -0.3277
 5194TIP3    H136997   5.436   5.191  17.003 -0.0187  0.0256 -0.5911
 5194TIP3    H236998   5.359   5.133  16.887  1.7730 -0.9472 -1.3203
 5195TIP3   OH236999   6.047   2.489   1.807 -0.3242  0.0146  0.1237
 5195TIP3    H137000   6.064   2.398   1.832 -2.5349  0.0956  2.3454
 5195TIP3    H237001   6.134   2.529   1.798  0.7396 -2.4548 -1.8703
 5196TIP3   OH237002   3.964   5.191   4.777 -0.0735 -0.0936 -0.1421
 5196TIP3    H137003   3.918   5.151   4.850  0.9722 -0.3319  0.3982
 5196TIP3    H237004   4.031   5.127   4.753  0.2750  0.4440 -0.6179
 5197TIP3   OH237005   0.427   0.431   3.987  0.4377 -0.3790  0.1284
 5197TIP3    H137006   0.419   0.375   3.911  0.6252 -1.1338  0.6568
 5197TIP3    H237007   0.337   0.444   4.017  0.5083 -2.2296  1.2991
 5198TIP3   OH237008   5.583   4.050   5.275  0.2437  0.2483  0.3014
 5198TIP3    H137009   5.666   4.004   5.289  0.7276  0.2646 -2.1437
 5198TIP3    H237010   5.605   4.120   5.214 -1.4424  0.6902  0.1696
 5199TIP3   OH237011   1.846   2.646   1.651 -0.0520 -0.0636 -0.0334
 5199TIP3    H137012   1.885   2.657   1.565  0.8851 -1.1377  0.2317
 5199TIP3    H237013   1.919   2.657   1.712 -0.6774  0.5277  0.6232
 5200TIP3   OH237014   6.346   5.590   3.102 -0.0526 -0.3868  0.0850
 5200TIP3    H137015   6.374   5.675   3.134  1.2552 -0.6547 -0.3100
 5200TIP3    H237016   6.423   5.534   3.109  0.0450 -0.7047 -2.5904
 5201TIP3   OH237017   2.793   2.806   0.466  0.1078 -0.1126 -0.5493
 5201TIP3    H137018   2.738   2.854   0.404  1.8830  0.0080 -2.1217
 5201TIP3    H237019   2.745   2.811   0.549 -0.7303  2.7311 -1.0722
 5202TIP3   OH237020   3.871   4.726  13.475  0.0146  0.1495 -0.3746
 5202TIP3    H137021   3.803   4.662  13.454  2.0046 -1.8227 -1.1563
 5202TIP3    H237022   3.886   4.717  13.569 -0.3569  0.1553 -0.3138
 5203TIP3   OH237023   4.755   5.173  14.277  0.1342  0.0207  0.0815
 5203TIP3    H137024   4.702   5.225  14.337 -0.7622 -1.8354  0.9509
 5203TIP3    H237025   4.839   5.162  14.322  0.4622  0.9665 -0.2667
 5204TIP3   OH237026   3.864   0.789  13.390  0.5714 -0.3701 -0.2392
 5204TIP3    H137027   3.911   0.804  13.308  0.2279  1.8088 -0.0958
 5204TIP3    H237028   3.798   0.723  13.368  0.3779  0.2871 -1.7738
 5205TIP3   OH237029   5.099   3.845  12.754  0.1734 -0.1967  0.4329
 5205TIP3    H137030   5.144   3.806  12.828  0.3949 -1.0455 -0.1365
 5205TIP3    H237031   5.025   3.892  12.793  0.5151 -0.2932  1.2173
 5206TIP3   OH237032   5.912   2.721   2.906  1.1057  0.0266  0.0154
 5206TIP3    H137033   5.999   2.683   2.917  1.2630 -0.1494 -1.5353
 5206TIP3    H237034   5.926   2.816   2.915  1.0563 -0.1040  1.8806
 5207TIP3   OH237035   6.656   5.079   4.864  0.6247 -0.1551  0.0444
 5207TIP3    H137036   6.642   5.133   4.786 -0.8109 -0.1974  0.2359
 5207TIP3    H237037   6.626   5.134   4.937  2.7919  0.2282  0.7069
 5208TIP3   OH237038   3.720   2.471  12.554 -0.6142 -0.2020  0.3480
 5208TIP3    H137039   3.705   2.513  12.470  0.2125  1.4181  0.9600
 5208TIP3    H237040   3.643   2.493  12.606 -0.6364 -0.2965  0.3553
 5209TIP3   OH237041   1.118   0.616  11.750  0.2963 -0.3740  0.6660
 5209TIP3    H137042   1.156   0.676  11.814  0.9136 -1.1239  1.0138
 5209TIP3    H237043   1.194   0.583  11.701 -0.1685  0.2461 -0.5070
 5210TIP3   OH237044   1.567   1.141   3.935 -0.7070  0.6754 -0.2767
 5210TIP3    H137045   1.613   1.184   3.863 -2.2679  1.0069 -1.1211
 5210TIP3    H237046   1.569   1.048   3.912  0.9697  0.4568  0.5675
 5211TIP3   OH237047   5.283   6.650   0.801 -0.1669 -0.2869 -0.1502
 5211TIP3    H137048   5.196   6.668   0.837 -1.5642 -1.4805 -2.6540
 5211TIP3    H237049   5.319   6.583   0.858 -0.4068  0.9619  1.5364
 5212TIP3   OH237050   4.640   4.990   6.069  0.1755 -0.8190  0.4087
 5212TIP3    H137051   4.651   4.898   6.094 -2.3075 -1.0862  0.7113
 5212TIP3    H237052   4.633   5.037   6.152  0.6866 -0.4338  0.2421
 5213TIP3   OH237053   5.197   3.130   2.804 -0.1523  0.1133  0.1414
 5213TIP3    H137054   5.169   3.135   2.712 -1.6759 -1.3950  0.4671
 5213TIP3    H237055   5.289   3.106   2.800  0.4779  2.4501 -0.9776
 5214TIP3   OH237056   0.569   6.378  11.940 -0.0086  0.3487 -0.0408
 5214TIP3    H137057   0.540   6.308  11.881 -0.5803  0.2845  0.3023
 5214TIP3    H237058   0.661   6.359  11.957  0.6989  1.3624 -2.3172
 5215TIP3   OH237059   3.505   0.658  16.085 -0.4509 -0.2687  0.5150
 5215TIP3    H137060   3.580   0.704  16.121  0.8737 -0.6470 -1.5866
 5215TIP3    H237061   3.482   0.707  16.005  0.4884 -2.6474 -1.3449
 5216TIP3   OH237062   3.798   5.300  12.331 -0.4128  0.0125  0.8289
 5216TIP3    H137063   3.704   5.314  12.338 -0.1024  3.6711 -0.1851
 5216TIP3    H237064   3.836   5.360  12.395  1.2398  0.0629 -0.1359
 5217TIP3   OH237065   1.393   4.665  12.007 -0.1540 -0.0129 -0.1544
 5217TIP3    H137066   1.358   4.610  12.077  1.9160  0.4523  1.3468
 5217TIP3    H237067   1.421   4.745  12.051  3.0412 -0.4761 -1.0932
 5218TIP3   OH237068   1.603   6.555  13.455  0.0514 -0.0492 -0.1987
 5218TIP3    H137069   1.547   6.541  13.379  1.5745 -1.0282 -1.1954
 5218TIP3    H237070   1.680   6.599  13.420  0.4918  0.1014  0.9029
 5219TIP3   OH237071   1.872   1.671  14.198  0.1222 -0.2355  0.0020
 5219TIP3    H137072   1.810   1.711  14.137 -0.1327 -0.6642 -0.0182
 5219TIP3    H237073   1.827   1.595  14.233 -0.6549  1.2618  2.5311
 5220TIP3   OH237074   4.865   0.711  15.562  0.4597 -0.1986 -0.3650
 5220TIP3    H137075   4.878   0.799  15.598  0.6791 -0.1125 -0.6551
 5220TIP3    H237076   4.780   0.684  15.596 -0.1558  0.6002 -1.2040
 5221TIP3   OH237077   2.093   6.240   4.620  0.3529 -0.6571  0.3312
 5221TIP3    H137078   2.016   6.220   4.567  1.0260 -0.7084 -0.6547
 5221TIP3    H237079   2.060   6.243   4.710 -0.5292 -2.2394  0.1043
 5222TIP3   OH237080   4.986   5.691  15.902  0.0363  0.2669  0.7427
 5222TIP3    H137081   4.927   5.765  15.915 -0.5429 -0.1640  0.5844
 5222TIP3    H237082   5.062   5.711  15.957 -0.4122  0.6474  1.2314
 5223TIP3   OH237083   5.435   5.777   1.844  0.1558  0.0671 -0.2197
 5223TIP3    H137084   5.398   5.711   1.786 -0.3467 -0.3506  0.5604
 5223TIP3    H237085   5.431   5.737   1.931 -2.7641  2.1221  0.7528
 5224TIP3   OH237086   3.642   6.671   4.012 -0.1797  0.1235  0.2355
 5224TIP3    H137087   3.620   6.678   4.105  1.2540 -1.5141  0.7474
 5224TIP3    H237088   3.616   6.582   3.988  1.3974 -0.2054 -0.3542
 5225TIP3   OH237089   5.010   3.359  16.296 -0.6328  0.0228  0.0658
 5225TIP3    H137090   4.930   3.332  16.342 -0.7599 -0.2065 -0.2827
 5225TIP3    H237091   5.079   3.304  16.333 -0.8147 -0.4828 -0.3292
 5226TIP3   OH237092   6.045   5.800   0.430  0.3676  0.0357  0.0355
 5226TIP3    H137093   6.083   5.877   0.473  1.6653 -0.2550 -0.5348
 5226TIP3    H237094   6.042   5.733   0.498  0.6507  0.1489  0.1645
 5227TIP3   OH237095   5.056   4.873   5.058 -0.7794  0.1223 -0.9242
 5227TIP3    H137096   5.085   4.909   4.974  0.7429 -0.4936 -0.6838
 5227TIP3    H237097   5.094   4.931   5.123 -1.5322  0.2928 -0.6208
 5228TIP3   OH237098   1.484   5.277  12.056  0.9873  0.0551  0.2114
 5228TIP3    H137099   1.398   5.235  12.061  1.0495  0.0225  1.2987
 5228TIP3    H237100   1.538   5.228  12.118  1.5430  0.6386  0.1940
 5229TIP3   OH237101   2.671   3.025  12.356  0.1914  0.1057  1.1905
 5229TIP3    H137102   2.755   3.027  12.403  1.0081  0.8461 -0.2058
 5229TIP3    H237103   2.653   2.932  12.343  2.4192 -0.1231 -1.1022
 5230TIP3   OH237104   2.869   5.575   0.537 -0.0709 -0.4423  0.5047
 5230TIP3    H137105   2.799   5.633   0.567 -0.4198 -0.5280 -0.1221
 5230TIP3    H237106   2.948   5.628   0.539 -0.2198 -0.2331  0.8643
 5231TIP3   OH237107   0.195   1.733  13.931  0.1326 -0.6031  0.5269
 5231TIP3    H137108   0.280   1.705  13.898  0.5193  1.2832 -0.2110
 5231TIP3    H237109   0.214   1.808  13.987 -0.9358 -0.9986  1.4445
 5232TIP3   OH237110   1.901   1.789   0.634  0.2130 -0.3448  0.0543
 5232TIP3    H137111   1.936   1.866   0.589  0.1907 -1.3517 -1.7956
 5232TIP3    H237112   1.961   1.774   0.707  1.6054  0.0411 -0.9787
 5233TIP3   OH237113   2.352   1.024   5.221 -0.2035  0.5076 -0.1556
 5233TIP3    H137114   2.358   0.940   5.268 -2.6290 -0.6917 -1.7638
 5233TIP3    H237115   2.350   1.090   5.290  1.8293 -0.7149  1.1687
 5234TIP3   OH237116   1.976   4.600   2.944 -0.2399 -0.1735 -0.1726
 5234TIP3    H137117   1.916   4.673   2.924 -0.8089 -0.9107 -1.2357
 5234TIP3    H237118   1.935   4.556   3.018 -0.7094 -0.3005 -0.4971
 5235TIP3   OH237119   0.669   2.455  12.432  1.1105  0.8318 -0.0998
 5235TIP3    H137120   0.629   2.381  12.388  0.9739 -0.0736  1.4822
 5235TIP3    H237121   0.645   2.445  12.524  2.3003  2.0312  0.3859
 5236TIP3   OH237122   1.171   2.353  13.971  0.5295 -0.3633 -0.3449
 5236TIP3    H137123   1.259   2.332  14.002  0.8458 -0.7863 -1.4664
 5236TIP3    H237124   1.117   2.353  14.050  2.2513  4.5021  1.2208
 5237TIP3   OH237125   3.097   4.831   1.603 -0.1360  0.1796 -0.2879
 5237TIP3    H137126   3.165   4.852   1.667  1.0720  0.6719 -1.6610
 5237TIP3    H237127   3.019   4.878   1.634  0.7562  1.4137  0.1758
 5238TIP3   OH237128   3.845   0.793  16.643  0.0832  0.1229  0.0866
 5238TIP3    H137129   3.932   0.825  16.621  0.3940 -0.7061  0.0916
 5238TIP3    H237130   3.857   0.745  16.725 -0.2939 -0.3562 -0.1318
 5239TIP3   OH237131   2.961   3.113   1.800  0.4751  0.3986  0.0190
 5239TIP3    H137132   2.971   3.053   1.875  0.9926 -1.6363 -1.5807
 5239TIP3    H237133   3.018   3.077   1.733 -0.7454  1.5565 -1.7328
 5240TIP3   OH237134   3.849   4.485   5.544 -0.3851  0.1136 -0.4319
 5240TIP3    H137135   3.934   4.464   5.583 -0.0254  0.4550 -1.0183
 5240TIP3    H237136   3.823   4.404   5.501 -0.4880 -0.0736 -0.0250
 5241TIP3   OH237137   4.720   4.021  16.324  0.2047 -0.0986 -0.0150
 5241TIP3    H137138   4.785   4.059  16.382 -0.8873  0.4985  0.8442
 5241TIP3    H237139   4.672   3.959  16.379  0.8870 -1.5330 -0.9765
 5242TIP3   OH237140   4.986   3.859  11.227 -0.1497 -0.0223 -0.5347
 5242TIP3    H137141   5.059   3.921  11.234 -0.7007  0.5381  0.6171
 5242TIP3    H237142   5.022   3.776  11.257  0.1148  0.1731 -0.3066
 5243TIP3   OH237143   3.078   0.907  14.735  0.9905  0.8674  0.6111
 5243TIP3    H137144   3.142   0.869  14.675 -0.9973 -3.5370  0.9506
 5243TIP3    H237145   3.119   0.900  14.822  1.0223  0.4661  0.5627
 5244TIP3   OH237146   4.466   5.641   4.946 -0.0704  0.0274 -0.4896
 5244TIP3    H137147   4.414   5.720   4.929  0.0593 -0.0912 -1.4519
 5244TIP3    H237148   4.489   5.608   4.860  0.6744 -0.5482 -0.0807
 5245TIP3   OH237149   1.485   4.636   5.975  0.5041  0.0597  0.1905
 5245TIP3    H137150   1.470   4.622   6.069  1.0855  0.5720  0.3641
 5245TIP3    H237151   1.533   4.718   5.970 -0.4461  0.5910 -0.6357
 5246TIP3   OH237152   2.623   6.023   1.025 -0.0320  0.1218  0.1396
 5246TIP3    H137153   2.599   6.007   0.934  0.1445  0.4662  0.0278
 5246TIP3    H237154   2.686   5.954   1.046  0.6642  0.5961 -0.3114
 5247TIP3   OH237155   1.494   6.043  14.056  0.1201 -0.9034  0.3283
 5247TIP3    H137156   1.571   6.098  14.073 -0.7833  0.9769 -1.2606
 5247TIP3    H237157   1.423   6.088  14.101 -0.9292  0.2177 -2.2623
 5248TIP3   OH237158   2.371   1.579   1.531 -0.3026 -0.7177  0.2631
 5248TIP3    H137159   2.432   1.544   1.596  2.0011  1.6022 -0.4762
 5248TIP3    H237160   2.408   1.552   1.447 -1.4276 -0.9326 -0.1796
 5249TIP3   OH237161   2.995   5.823   2.659  0.3542  0.2024  0.4289
 5249TIP3    H137162   3.047   5.898   2.689  0.4956  1.1203 -1.9234
 5249TIP3    H237163   2.912   5.832   2.706  0.6357  1.4323  0.7280
 5250TIP3   OH237164   5.294   6.040  14.485  0.2407  0.3152  0.0247
 5250TIP3    H137165   5.269   6.066  14.396  0.3206 -0.1020 -0.1212
 5250TIP3    H237166   5.354   5.967  14.472  1.0778  0.9192  0.3868
 5251TIP3   OH237167   4.029   2.889  15.704  0.4161 -0.2905  0.1287
 5251TIP3    H137168   3.946   2.934  15.721  0.5142  0.4801 -1.2975
 5251TIP3    H237169   4.008   2.796  15.717 -0.2969 -0.0164  1.1417
 5252TIP3   OH237170   0.351   4.142  15.359 -0.1016  0.1729  0.7435
 5252TIP3    H137171   0.420   4.097  15.310 -1.3664 -0.6643 -0.2931
 5252TIP3    H237172   0.397   4.215  15.401  1.3546 -0.1432 -0.2117
 5253TIP3   OH237173   2.225   3.730  15.169  0.2503 -0.1610  0.6331
 5253TIP3    H137174   2.177   3.731  15.252  1.7667  0.6591  1.5305
 5253TIP3    H237175   2.241   3.822  15.149  0.2638 -0.3701 -0.3663
 5254TIP3   OH237176   1.914   5.749  15.730  0.2436  0.0874  0.1780
 5254TIP3    H137177   1.883   5.797  15.653  1.9109  0.9010 -0.0411
 5254TIP3    H237178   1.869   5.665  15.726  0.5771 -0.0424 -1.9176
 5255TIP3   OH237179   4.980   3.034  16.949 -0.2914  0.6074  0.7881
 5255TIP3    H137180   4.933   3.022  16.866 -0.1776  0.1183  0.7926
 5255TIP3    H237181   4.922   3.089  17.002 -0.2363  1.1646  0.2809
 5256TIP3   OH237182   4.589   2.714  13.173 -0.4197  0.0190  0.2806
 5256TIP3    H137183   4.538   2.771  13.231  1.7447  1.0178  1.2915
 5256TIP3    H237184   4.661   2.683  13.227  0.3185 -1.0107 -1.2272
 5257TIP3   OH237185   3.222   5.585   3.208 -0.3603  0.8074 -0.3628
 5257TIP3    H137186   3.171   5.663   3.190 -0.3399  0.7695 -0.5807
 5257TIP3    H237187   3.191   5.520   3.145 -0.7536  0.4738  0.1608
 5258TIP3   OH237188   2.616   4.920  10.799  0.8918  0.0595  0.8742
 5258TIP3    H137189   2.624   4.979  10.725  1.3687 -1.0656 -0.0116
 5258TIP3    H237190   2.704   4.916  10.836  1.8338 -2.8163 -1.3060
 5259TIP3   OH237191   0.397   5.771  14.524  0.4554  0.0965  0.3293
 5259TIP3    H137192   0.399   5.830  14.449  0.2573 -1.8654 -1.2896
 5259TIP3    H237193   0.455   5.812  14.588  1.9447  1.0442 -1.5235
 5260TIP3   OH237194   3.743   0.107   2.566 -0.1967 -0.3176 -0.2720
 5260TIP3    H137195   3.710   0.017   2.574  0.2713 -0.9300 -3.7937
 5260TIP3    H237196   3.683   0.148   2.504  0.8223  1.1618 -0.3137
 5261TIP3   OH237197   3.766   5.242   1.797  0.5708 -0.2373  0.1480
 5261TIP3    H137198   3.734   5.158   1.830  1.4316  0.2348  2.3652
 5261TIP3    H237199   3.709   5.307   1.838  0.0097  0.3210 -1.4285
 5262TIP3   OH237200   6.675   1.443  14.914  0.5553 -0.1192  0.1961
 5262TIP3    H137201   6.673   1.358  14.958  0.6881  0.2819  0.9744
 5262TIP3    H237202   6.763   1.477  14.931  1.6078 -1.0958 -2.5635
 5263TIP3   OH237203   6.027   0.604  15.662 -0.0776 -0.4417 -0.1077
 5263TIP3    H137204   6.037   0.650  15.746  0.5561 -0.0226 -0.4090
 5263TIP3    H237205   6.030   0.511  15.686  0.2836 -0.3268  0.3236
 5264TIP3   OH237206   6.028   2.721   0.271 -0.1950 -0.5257  0.3686
 5264TIP3    H137207   5.973   2.771   0.331 -1.1361 -0.5075 -0.4847
 5264TIP3    H237208   5.966   2.674   0.216  0.6470 -0.5836 -0.5501
 5265TIP3   OH237209   6.326   1.376  11.015 -0.5232  0.3855 -0.0256
 5265TIP3    H137210   6.235   1.406  11.009 -0.1357  1.3333 -1.9193
 5265TIP3    H237211   6.348   1.348  10.927  0.1891 -2.5567  0.9796
 5266TIP3   OH237212   1.493   3.023  17.089 -0.0562  0.3001  0.3043
 5266TIP3    H137213   1.552   3.029  17.164 -0.2475  2.2260  0.3589
 5266TIP3    H237214   1.550   3.022  17.013  0.1352 -1.5479  0.4349
 5267TIP3   OH237215   3.900   0.913  15.121  0.1393  0.2172  0.6209
 5267TIP3    H137216   3.916   0.954  15.206 -0.2246 -0.5263  1.0565
 5267TIP3    H237217   3.986   0.907  15.081  0.2714  0.9066  0.7743
 5268TIP3   OH237218   2.843   5.081  13.961 -0.1396  0.4633 -0.5694
 5268TIP3    H137219   2.766   5.058  14.013  1.0571  0.8448  1.4699
 5268TIP3    H237220   2.822   5.166  13.923 -1.1390  0.0509 -0.9959
 5269TIP3   OH237221   5.463   0.589   7.003 -0.1530 -0.4254 -0.1494
 5269TIP3    H137222   5.426   0.503   7.022 -3.1342  0.7073 -0.2508
 5269TIP3    H237223   5.439   0.607   6.912  1.5679  0.0384 -0.5616
 5270TIP3   OH237224   4.469   3.728  14.741  0.6805  0.4143 -0.0289
 5270TIP3    H137225   4.407   3.789  14.701  1.8478  2.8813  1.6195
 5270TIP3    H237226   4.539   3.785  14.775  2.1663 -1.9447  1.0979
 5271TIP3   OH237227   3.879   2.264  10.976 -0.2518  0.2300 -0.1396
 5271TIP3    H137228   3.807   2.201  10.977 -1.3989  1.4626  2.3344
 5271TIP3    H237229   3.951   2.219  11.021 -0.6559  0.2409  0.5242
 5272TIP3   OH237230   3.734   6.488  15.012 -0.4255 -0.6850 -0.0392
 5272TIP3    H137231   3.790   6.563  15.031  0.1514 -1.0806 -0.1541
 5272TIP3    H237232   3.669   6.522  14.951  1.0116 -0.7268 -1.6707
 5273TIP3   OH237233   3.563   3.340   2.206 -0.4236  0.3077  0.3142
 5273TIP3    H137234   3.559   3.341   2.301  0.3367  1.8949  0.3555
 5273TIP3    H237235   3.502   3.408   2.178  0.7411  1.1534 -0.2483
 5274TIP3   OH237236   6.037   3.614  11.889 -0.5305  0.6774 -0.7056
 5274TIP3    H137237   6.112   3.653  11.933  0.7355  2.0000 -3.7347
 5274TIP3    H237238   5.978   3.588  11.960  1.3988  2.3792  1.7004
 5275TIP3   OH237239   4.360   5.232   5.094 -0.0562  0.0928  0.0029
 5275TIP3    H137240   4.268   5.244   5.113 -0.0742  2.3504 -1.2404
 5275TIP3    H237241   4.402   5.314   5.118  1.4568 -0.4943 -0.4597
 5276TIP3   OH237242   0.340   1.607   3.366 -0.5005  0.2605  0.1347
 5276TIP3    H137243   0.404   1.583   3.433 -0.2902 -3.1570 -1.0882
 5276TIP3    H237244   0.267   1.547   3.381 -2.0759  1.9458 -0.4786
 5277TIP3   OH237245   1.956   1.904   2.401 -0.1498  0.4324 -0.3133
 5277TIP3    H137246   1.870   1.902   2.359  0.0605 -2.4626 -0.8115
 5277TIP3    H237247   2.014   1.941   2.335 -0.9081  2.3430  0.0016
 5278TIP3   OH237248   2.225   5.623   2.964 -0.4170  0.5284  0.6699
 5278TIP3    H137249   2.317   5.629   2.936 -0.5915 -1.2647 -0.4489
 5278TIP3    H237250   2.229   5.584   3.051 -0.1357 -1.1305 -0.0461
 5279TIP3   OH237251   6.676   4.034   0.123 -0.3687  0.2475  0.7200
 5279TIP3    H137252   6.748   4.042   0.060 -0.2007 -1.5372  0.6400
 5279TIP3    H237253   6.614   4.102   0.097  0.4152  0.5640 -0.3978
 5280TIP3   OH237254   0.988   4.665   0.679 -0.4722  0.1292  0.4263
 5280TIP3    H137255   1.018   4.609   0.606 -0.6176  1.3545 -0.5989
 5280TIP3    H237256   0.924   4.611   0.725 -0.5855 -0.5805 -0.5211
 5281TIP3   OH237257   2.380   3.936   0.400  0.7847  0.3095  0.1062
 5281TIP3    H137258   2.450   3.906   0.458  0.7921  1.2036  0.5701
 5281TIP3    H237259   2.422   3.947   0.315  0.9386 -0.2887  0.1004
 5282TIP3   OH237260   6.056   4.069  16.714 -0.0486  0.0214 -0.1020
 5282TIP3    H137261   6.023   4.012  16.784  0.3009 -0.1238 -0.0514
 5282TIP3    H237262   6.144   4.035  16.695 -0.1262  0.0787 -0.5910
 5283TIP3   OH237263   2.939   5.644  11.837  0.0093  0.1943  0.2070
 5283TIP3    H137264   2.882   5.598  11.899 -0.5950 -0.1374 -0.5868
 5283TIP3    H237265   2.967   5.577  11.776  0.1022  0.6478 -0.2524
 5284TIP3   OH237266   4.023   0.844   0.259 -0.4452 -0.0002 -0.1172
 5284TIP3    H137267   4.037   0.888   0.174  2.2856  1.4235  0.9302
 5284TIP3    H237268   4.065   0.759   0.249 -0.9664 -0.2218 -0.4657
 5285TIP3   OH237269   4.549   1.365   0.989  0.1162  0.1181 -0.6552
 5285TIP3    H137270   4.528   1.416   0.911 -0.2379  2.1374  0.6775
 5285TIP3    H237271   4.466   1.355   1.035  0.1824 -1.7153 -0.8519
 5286TIP3   OH237272   2.934   3.864   1.771 -0.0519 -0.0290 -0.1053
 5286TIP3    H137273   2.919   3.783   1.821  3.3479 -1.2487 -0.8193
 5286TIP3    H237274   2.909   3.842   1.682 -2.4219  0.9242  0.2469
 5287TIP3   OH237275   5.508   6.509   1.948  0.1920  0.1643  0.5799
 5287TIP3    H137276   5.574   6.441   1.963 -1.3097 -1.6380 -0.5636
 5287TIP3    H237277   5.471   6.489   1.862 -2.2886  0.6922  1.4347
 5288TIP3   OH237278   1.686   5.573   3.485  0.5172 -0.5740 -0.3763
 5288TIP3    H137279   1.765   5.558   3.538 -1.5325 -0.6744  2.8968
 5288TIP3    H237280   1.646   5.650   3.524 -1.2114 -0.7551 -1.7179
 5289TIP3   OH237281   1.900   1.080  14.779  0.3330 -0.0216  0.7537
 5289TIP3    H137282   1.905   0.989  14.809  1.8942  0.0168  0.6607
 5289TIP3    H237283   1.809   1.105  14.794 -0.2194 -1.7151  0.4528
 5290TIP3   OH237284   3.272   2.616   2.110 -0.2323 -0.1544 -0.5599
 5290TIP3    H137285   3.292   2.671   2.186  0.0356 -0.7928 -0.1619
 5290TIP3    H237286   3.280   2.675   2.035  1.5620  0.0103 -0.2895
 5291TIP3   OH237287   1.717   0.336  16.776  0.6022 -0.2250  0.4291
 5291TIP3    H137288   1.759   0.415  16.811 -0.5139  0.1138  1.0584
 5291TIP3    H237289   1.769   0.264  16.812  1.5871  0.2092 -0.0934
 5292TIP3   OH237290   1.561   5.421  14.017 -0.1614 -0.4031  0.1145
 5292TIP3    H137291   1.549   5.328  14.034 -0.5322 -0.3284  0.2621
 5292TIP3    H237292   1.646   5.426  13.972  0.5300 -0.6603  1.3400
 5293TIP3   OH237293   3.329   5.855  15.504  0.2561 -0.5482  0.3425
 5293TIP3    H137294   3.241   5.886  15.528  0.2059  0.2472 -0.7842
 5293TIP3    H237295   3.345   5.782  15.564 -1.2787 -0.8891  0.4009
 5294TIP3   OH237296   4.493   3.016   3.244 -0.4579 -0.2015  0.5081
 5294TIP3    H137297   4.540   2.943   3.283 -0.8296  0.0861  1.5166
 5294TIP3    H237298   4.508   3.089   3.304 -1.2716  0.1736  0.2618
 5295TIP3   OH237299   2.411   6.450  15.612 -0.1692  0.1352 -0.2720
 5295TIP3    H137300   2.400   6.541  15.586  1.9337  0.3552 -0.5893
 5295TIP3    H237301   2.496   6.425  15.576  0.4335 -1.2033  1.9017
 5296TIP3   OH237302   4.797   3.074  12.620  0.0369 -0.3537 -0.5780
 5296TIP3    H137303   4.790   3.102  12.528 -0.2032 -0.5371 -0.6175
 5296TIP3    H237304   4.718   3.021  12.635 -0.3920  0.4366  0.0052
 5297TIP3   OH237305   4.450   4.866   4.094 -0.7571 -0.0532  0.8310
 5297TIP3    H137306   4.364   4.826   4.084 -0.9796  0.1690  1.7325
 5297TIP3    H237307   4.438   4.931   4.164 -0.4230  1.6047 -0.5879
 5298TIP3   OH237308   0.364   3.937   4.789 -0.2075 -0.0368  0.3588
 5298TIP3    H137309   0.320   4.003   4.735 -0.3863 -0.1827  0.3248
 5298TIP3    H237310   0.292   3.889   4.830 -0.1254 -1.2495 -0.8406
 5299TIP3   OH237311   2.842   2.791   0.121 -0.1126 -0.3615 -0.6553
 5299TIP3    H137312   2.829   2.846   0.198  1.4920  0.2637 -0.7885
 5299TIP3    H237313   2.890   2.846   0.060  1.9545 -1.9998 -0.6207
 5300TIP3   OH237314   6.071   6.343   4.311 -0.1950  0.0651 -0.7742
 5300TIP3    H137315   6.065   6.294   4.392  0.1759 -1.6590 -1.7341
 5300TIP3    H237316   6.146   6.305   4.265  0.1818  1.6256 -1.5166
 5301TIP3   OH237317   3.974   3.815   3.698 -0.1430 -0.1638  0.3824
 5301TIP3    H137318   4.048   3.763   3.670  0.0011 -0.1131  0.6646
 5301TIP3    H237319   3.949   3.778   3.783 -0.2936 -0.0332  0.3959
 5302TIP3   OH237320   3.269   2.547  14.723 -0.3002  0.2576  0.0617
 5302TIP3    H137321   3.334   2.483  14.751  0.0157  1.3467  1.9913
 5302TIP3    H237322   3.191   2.528  14.776 -0.4260  1.0364  0.1724
 5303TIP3   OH237323   0.376   6.522   0.716 -0.1106  0.4572 -0.4989
 5303TIP3    H137324   0.390   6.557   0.804  1.3998  0.9579 -0.9088
 5303TIP3    H237325   0.452   6.466   0.700 -2.6277 -3.5853  0.3079
 5304TIP3   OH237326   4.281   3.838   6.049 -0.1429  0.2845  0.1540
 5304TIP3    H137327   4.290   3.924   6.089  1.0324  0.1041  0.3069
 5304TIP3    H237328   4.309   3.851   5.958 -0.5812  0.2053  0.0086
 5305TIP3   OH237329   1.431   0.908   1.943  0.1032  0.3194 -0.4474
 5305TIP3    H137330   1.445   0.857   2.023  2.1362  1.8748  0.2840
 5305TIP3    H237331   1.391   0.846   1.882  0.3543 -1.4831  1.1134
 5306TIP3   OH237332   5.042   5.062  16.668  0.3375  0.2531  0.3842
 5306TIP3    H137333   5.047   5.068  16.764 -0.7471  0.5982  0.4248
 5306TIP3    H237334   4.993   4.982  16.651 -0.2501  0.6570  0.1427
 5307TIP3   OH237335   0.065   2.090   5.658  0.2662  0.3077  0.0887
 5307TIP3    H137336   0.062   1.994   5.662 -2.0131  0.2635 -0.9502
 5307TIP3    H237337   0.128   2.109   5.589  1.1550 -0.4139  0.6824
 5308TIP3   OH237338   1.080   1.345  15.484  0.1974  0.3485  0.5608
 5308TIP3    H137339   1.067   1.330  15.390 -0.9861  2.1308  0.3940
 5308TIP3    H237340   1.039   1.268  15.525 -1.1221  0.5187 -0.3490
 5309TIP3   OH237341   5.452   4.790  16.941  0.1861  0.4373 -0.3216
 5309TIP3    H137342   5.464   4.880  16.969  1.8608 -0.1583  1.0815
 5309TIP3    H237343   5.479   4.789  16.849  0.6222  1.2784 -0.2061
 5310TIP3   OH237344   0.054   1.647   1.198 -0.1636 -0.3215  0.3755
 5310TIP3    H137345   0.004   1.693   1.131 -1.2193 -1.2678  0.4862
 5310TIP3    H237346   0.125   1.707   1.221 -0.0623  0.2108 -1.2353
 5311TIP3   OH237347   6.679   5.874   2.799 -0.1305  0.9131 -0.8682
 5311TIP3    H137348   6.710   5.964   2.786 -0.9144  1.4071  0.5301
 5311TIP3    H237349   6.584   5.881   2.806 -0.1853  0.0115 -0.4896
 5312TIP3   OH237350   0.600   5.138  11.102 -0.5936  0.3012  0.8228
 5312TIP3    H137351   0.550   5.056  11.094 -1.1389  0.5994  1.1157
 5312TIP3    H237352   0.547   5.192  11.161 -0.5015  1.0654  0.2100
 5313TIP3   OH237353   2.633   6.514  16.388  0.6567  0.1617 -0.3468
 5313TIP3    H137354   2.546   6.552  16.400  0.4892 -0.2239 -0.3059
 5313TIP3    H237355   2.619   6.420  16.397  0.7045 -0.0805 -2.3423
 5314TIP3   OH237356   3.302   2.906  14.391 -0.0049 -0.4140 -0.5088
 5314TIP3    H137357   3.267   2.922  14.478  0.7701  0.1041 -0.2787
 5314TIP3    H237358   3.225   2.889  14.337 -0.5353 -0.1801  0.1532
 5315TIP3   OH237359   2.504   5.813   2.059  0.5058 -0.2632 -0.4170
 5315TIP3    H137360   2.540   5.819   2.147 -0.2187  2.0008 -0.2143
 5315TIP3    H237361   2.411   5.796   2.072  0.7363 -2.0118 -0.8329
 5316TIP3   OH237362   4.142   4.384  10.890 -0.2591  0.2875 -0.0940
 5316TIP3    H137363   4.234   4.368  10.910 -0.0306  0.7742 -0.7120
 5316TIP3    H237364   4.143   4.419  10.801 -1.1425 -0.8947 -0.6016
 5317TIP3   OH237365   4.139   0.372   1.628  0.0662 -0.1845  0.1599
 5317TIP3    H137366   4.224   0.365   1.671  0.7768  1.4915 -0.8661
 5317TIP3    H237367   4.084   0.419   1.690  0.8551  1.5291 -0.3792
 5318TIP3   OH237368   3.434   3.534  10.400  0.6459  0.0486  0.6517
 5318TIP3    H137369   3.346   3.547  10.434  0.4497  1.5810 -0.3172
 5318TIP3    H237370   3.470   3.461  10.451 -0.7963  0.0815  1.7661
 5319TIP3   OH237371   6.668   1.878  11.675  0.3124 -0.6461  0.1199
 5319TIP3    H137372   6.699   1.788  11.687 -1.1419 -1.3327 -0.8798
 5319TIP3    H237373   6.675   1.917  11.762  3.5423 -0.7927  0.0504
 5320TIP3   OH237374   4.840   2.298   1.042  0.2084 -0.1483 -0.3582
 5320TIP3    H137375   4.812   2.224   0.988 -0.3035  0.7494 -1.3481
 5320TIP3    H237376   4.770   2.362   1.034  0.4295  0.2691  0.8752
 5321TIP3   OH237377   3.417   0.736  13.844  0.0708  0.3647  0.6206
 5321TIP3    H137378   3.463   0.672  13.899 -1.6268 -1.7774 -0.3150
 5321TIP3    H237379   3.486   0.796  13.816  1.8046 -1.0963  1.4711
 5322TIP3   OH237380   5.431   1.477   1.692  0.4832  0.2221  0.1438
 5322TIP3    H137381   5.353   1.474   1.636 -0.6382  2.1553  1.4696
 5322TIP3    H237382   5.498   1.432   1.641 -1.0885 -0.1971 -1.7081
 5323TIP3   OH237383   0.611   5.864   4.949  0.5152 -0.1060 -0.8466
 5323TIP3    H137384   0.675   5.909   4.894  0.8792 -1.0648 -1.2259
 5323TIP3    H237385   0.629   5.896   5.037  0.5073  0.7787 -1.1552
 5324TIP3   OH237386   0.852   0.878  11.798 -0.3901  0.2831  0.1160
 5324TIP3    H137387   0.832   0.914  11.885  0.2800 -1.7232  1.1806
 5324TIP3    H237388   0.941   0.908  11.780 -1.2911  2.5553 -0.9716
 5325TIP3   OH237389   0.552   4.117  12.921  0.1111 -0.3988 -0.2140
 5325TIP3    H137390   0.545   4.022  12.930 -1.9959 -0.3691 -1.0519
 5325TIP3    H237391   0.589   4.130  12.834 -1.3276 -0.4708 -0.8633
 5326TIP3   OH237392   1.503   5.418  15.721 -0.5035  0.7450  0.8362
 5326TIP3    H137393   1.488   5.327  15.746  0.3188 -0.4045 -2.4024
 5326TIP3    H237394   1.419   5.447  15.687  0.2042 -0.3094 -2.0772
 5327TIP3   OH237395   0.675   1.878   4.667  0.1007  0.6686  0.5299
 5327TIP3    H137396   0.741   1.890   4.599 -0.2835 -0.7725 -0.1213
 5327TIP3    H237397   0.724   1.854   4.745  0.4903  1.7158  0.6302
 5328TIP3   OH237398   5.310   6.087   5.665 -0.0533 -0.2817  0.0195
 5328TIP3    H137399   5.227   6.090   5.617 -0.9248 -1.3967  1.3887
 5328TIP3    H237400   5.289   6.127   5.749  0.8809 -0.3472  0.2843
 5329TIP3   OH237401   5.647   5.682  13.604  0.3268  0.0384  0.1379
 5329TIP3    H137402   5.733   5.672  13.564 -0.3335  2.5407 -2.2898
 5329TIP3    H237403   5.665   5.703  13.695  2.1089 -2.0189  0.3488
 5330TIP3   OH237404   5.547   4.466  14.569 -0.3894  0.2551  0.4238
 5330TIP3    H137405   5.452   4.470  14.573 -0.3709 -0.3173  2.5288
 5330TIP3    H237406   5.567   4.376  14.545 -0.3384  0.6761 -1.2865
 5331TIP3   OH237407   2.598   5.092   0.629 -0.2960 -0.0811  0.0191
 5331TIP3    H137408   2.534   5.029   0.598 -0.8737  0.4140  0.1812
 5331TIP3    H237409   2.557   5.177   0.615  0.0916  0.2203  0.6374
 5332TIP3   OH237410   1.995   1.954  13.060 -0.4647  0.3724  0.0659
 5332TIP3    H137411   2.034   1.910  13.136  0.6707  1.1455 -0.0426
 5332TIP3    H237412   1.916   1.995  13.094  1.6920  3.5661  1.7371
 5333TIP3   OH237413   5.170   3.679   1.537 -0.4745 -0.2839 -0.3263
 5333TIP3    H137414   5.084   3.684   1.494 -0.5136  2.9700 -0.1686
 5333TIP3    H237415   5.152   3.643   1.623 -1.8515  0.8598 -0.0890
 5334TIP3   OH237416   0.202   1.605   5.984 -0.2093  0.1639 -0.2382
 5334TIP3    H137417   0.133   1.541   5.966 -3.0596  2.3627  1.6959
 5334TIP3    H237418   0.184   1.677   5.924  2.1255 -0.2156 -1.4924
 5335TIP3   OH237419   0.405   0.659  16.147 -0.1154 -0.5368  0.1635
 5335TIP3    H137420   0.400   0.707  16.064 -0.7525 -0.2530  0.3593
 5335TIP3    H237421   0.325   0.683  16.194 -0.1295 -1.2816  0.5444
 5336TIP3   OH237422   0.230   1.451  13.616  0.1577 -0.1131 -0.1604
 5336TIP3    H137423   0.314   1.435  13.571 -0.7097  1.2647 -2.4785
 5336TIP3    H237424   0.208   1.541  13.592 -0.4491  0.7125  3.1341
 5337TIP3   OH237425   4.932   5.482  13.656  0.3293  0.7667 -0.1385
 5337TIP3    H137426   4.884   5.439  13.726 -0.7688 -0.2401 -1.4465
 5337TIP3    H237427   4.901   5.572  13.657  0.0653  0.6720  0.4274
 5338TIP3   OH237428   3.192   1.007   1.434  0.5946 -0.1297 -0.2078
 5338TIP3    H137429   3.186   1.044   1.522  1.6486  0.4579 -0.3724
 5338TIP3    H237430   3.172   0.915   1.446  1.1157 -0.1394  0.7203
 5339TIP3   OH237431   1.285   6.233  15.895 -0.5205  0.9396  0.0217
 5339TIP3    H137432   1.264   6.169  15.827 -1.8085  1.3069  0.0427
 5339TIP3    H237433   1.354   6.287  15.856 -0.7874  0.7402 -0.7547
 5340TIP3   OH237434   5.695   4.651  12.074  0.2441 -0.2476 -0.4178
 5340TIP3    H137435   5.679   4.558  12.058  2.0762 -0.8898  1.1319
 5340TIP3    H237436   5.789   4.663  12.062  0.3324  1.0082  1.0380
 5341TIP3   OH237437   3.473   4.016  12.489  0.1942  0.1511  0.3264
 5341TIP3    H137438   3.498   3.986  12.576  0.9454  0.2235  0.1441
 5341TIP3    H237439   3.498   4.108  12.487  1.3738 -0.1665 -0.3948
 5342TIP3   OH237440   4.611   3.852   0.950 -0.2795  0.0502 -0.0533
 5342TIP3    H137441   4.649   3.936   0.924  0.8640 -0.8161 -1.3394
 5342TIP3    H237442   4.526   3.875   0.989  0.2669  1.8269  0.1656
 5343TIP3   OH237443   1.610   1.952   5.549 -0.3797  0.0135  0.4628
 5343TIP3    H137444   1.619   1.922   5.458  1.6280 -2.0132  1.2205
 5343TIP3    H237445   1.530   1.910   5.581 -0.2066 -0.6142  0.0857
 5344TIP3   OH237446   4.801   2.957  15.198  0.0537  0.5278  0.4163
 5344TIP3    H137447   4.754   3.040  15.188 -0.7676  0.2023  1.3759
 5344TIP3    H237448   4.893   2.978  15.180 -0.3315  1.3463 -0.6962
 5345TIP3   OH237449   0.761   2.815  14.809 -0.0762  0.1550 -0.4428
 5345TIP3    H137450   0.704   2.887  14.781  0.5350  1.6089  1.7557
 5345TIP3    H237451   0.821   2.855  14.873  2.6668 -1.5425 -1.7487
 5346TIP3   OH237452   2.302   3.810  17.050 -0.6396  0.0992  0.0169
 5346TIP3    H137453   2.207   3.799  17.057 -0.2994 -2.8681  1.5351
 5346TIP3    H237454   2.335   3.797  17.139  1.3193 -1.3812 -0.8254
 5347TIP3   OH237455   4.241   5.792  10.906  0.2761  0.1807  0.2009
 5347TIP3    H137456   4.155   5.833  10.899  0.5269  0.7382  0.2671
 5347TIP3    H237457   4.228   5.702  10.877 -0.2972  0.3025  0.0687
 5348TIP3   OH237458   1.123   2.665   2.683 -0.2538 -0.7156 -0.0898
 5348TIP3    H137459   1.154   2.719   2.756 -0.5479  1.8475 -1.7449
 5348TIP3    H237460   1.029   2.654   2.700 -0.1164 -1.1234  0.4655
 5349TIP3   OH237461   1.801   2.068  11.271 -0.5954  0.0756  0.4765
 5349TIP3    H137462   1.827   2.055  11.362  0.5692  1.5651  0.4077
 5349TIP3    H237463   1.722   2.121  11.275  0.2169  1.3142  0.6384
 5350TIP3   OH237464   5.172   6.728   4.805 -0.2166 -0.1393 -0.0186
 5350TIP3    H137465   5.165   6.732   4.900  2.0970 -0.6440  0.2362
 5350TIP3    H237466   5.123   6.650   4.781 -1.9744  0.7242  0.5583
 5351TIP3   OH237467   4.965   4.952  15.156 -0.2845  0.5044 -0.1931
 5351TIP3    H137468   5.002   5.039  15.168  0.9969  0.1287 -1.1895
 5351TIP3    H237469   5.025   4.893  15.201  0.5794 -0.1419 -2.0528
 5352TIP3   OH237470   4.211   4.318   1.942  0.2107 -0.3285  0.0516
 5352TIP3    H137471   4.273   4.247   1.934 -0.9784 -1.3261 -0.7715
 5352TIP3    H237472   4.146   4.301   1.873  0.6515  2.3430 -1.1499
 5353TIP3   OH237473   0.237   4.106  11.056  0.1395 -0.0760  0.3540
 5353TIP3    H137474   0.188   4.027  11.034  0.4247  0.4662 -2.7187
 5353TIP3    H237475   0.326   4.075  11.074 -0.1422 -0.5876  0.8970
 5354TIP3   OH237476   4.468   4.832   3.334 -0.1747  0.1475 -0.1344
 5354TIP3    H137477   4.512   4.765   3.282  0.3612 -0.3243  0.8848
 5354TIP3    H237478   4.527   4.848   3.407 -0.3355  1.6891 -0.3106
 5355TIP3   OH237479   0.198   4.402   1.210  0.2830  0.1825  0.5925
 5355TIP3    H137480   0.231   4.491   1.225  0.5592  0.0209  0.9489
 5355TIP3    H237481   0.168   4.403   1.119  0.7221  0.5058  0.4491
 5356TIP3   OH237482   4.555   6.529  14.441  0.2525  0.1017  0.2902
 5356TIP3    H137483   4.467   6.556  14.465  0.2709 -0.1068  0.5956
 5356TIP3    H237484   4.600   6.611  14.419  1.0711  0.7071  3.6661
 5357TIP3   OH237485   4.078   4.587   5.383 -0.5510 -0.4034  0.2242
 5357TIP3    H137486   4.170   4.613   5.395 -1.3325  1.4357  2.9390
 5357TIP3    H237487   4.046   4.643   5.312 -0.3869  1.3114  1.4518
 5358TIP3   OH237488   0.152   1.905  15.730  0.5553 -0.0293  0.5222
 5358TIP3    H137489   0.067   1.946  15.744 -0.4118 -2.0396  0.9397
 5358TIP3    H237490   0.215   1.971  15.759 -0.9777 -0.1314  4.9314
 5359TIP3   OH237491   3.836   5.207  16.136  0.1807 -0.1780 -0.7976
 5359TIP3    H137492   3.814   5.199  16.229  0.3135  0.7101 -0.6817
 5359TIP3    H237493   3.761   5.252  16.097  1.0169  1.3199 -0.7238
 5360TIP3   OH237494   4.573   0.026  12.458  0.0542 -0.0760 -0.0658
 5360TIP3    H137495   4.597   0.088  12.527 -0.5960 -1.5793  1.5782
 5360TIP3    H237496   4.650  -0.030  12.449  0.0072 -0.0991 -0.3362
 5361TIP3   OH237497   5.682   4.693  15.096 -0.3672 -0.1968 -0.4092
 5361TIP3    H137498   5.643   4.680  15.009 -1.3180 -0.7931  0.0801
 5361TIP3    H237499   5.701   4.787  15.101 -2.1400  0.2049 -0.5447
 5362TIP3   OH237500   5.641   3.958   2.324  0.1024  0.4289 -0.0776
 5362TIP3    H137501   5.733   3.943   2.347 -0.2745 -1.4464  0.3610
 5362TIP3    H237502   5.634   3.926   2.234 -0.3285 -0.4315  0.2497
 5363TIP3   OH237503   1.151   4.041   1.616  1.5209 -0.0866  0.5980
 5363TIP3    H137504   1.156   4.104   1.545  1.9055 -1.4959 -0.6891
 5363TIP3    H237505   1.193   3.962   1.581  1.2373 -0.9938  2.1997
 5364TIP3   OH237506   0.450   5.202   4.009  0.0607 -0.0624 -0.3293
 5364TIP3    H137507   0.455   5.264   4.081 -1.5554  0.2356 -0.4407
 5364TIP3    H237508   0.439   5.116   4.051  1.9574 -0.2836 -0.1856
 5365TIP3   OH237509   5.143   4.977  11.250  0.2568  0.3693 -0.0087
 5365TIP3    H137510   5.172   5.068  11.247 -1.5365  1.0172  0.5281
 5365TIP3    H237511   5.086   4.967  11.174 -0.0823 -0.0814  0.2929
 5366TIP3   OH237512   6.345   5.086   0.071 -0.3799 -0.2283 -0.6233
 5366TIP3    H137513   6.307   5.057  -0.012 -0.0234  0.6507 -1.1136
 5366TIP3    H237514   6.288   5.049   0.138 -0.9495 -0.5557 -1.2778
 5367TIP3   OH237515   3.853   6.280   2.966 -0.0797 -0.0015 -0.1392
 5367TIP3    H137516   3.904   6.257   2.888  1.5118  1.0884  0.5337
 5367TIP3    H237517   3.835   6.373   2.957 -1.1063 -0.1612  0.1361
 5368TIP3   OH237518   0.124   5.611  12.167  0.7224 -0.3931  0.4759
 5368TIP3    H137519   0.088   5.614  12.078 -0.5324  0.6863  0.9969
 5368TIP3    H237520   0.056   5.650  12.222  3.4876  4.0026  1.2730
 5369TIP3   OH237521   6.358   4.957   1.389 -0.5305  0.6189  0.5300
 5369TIP3    H137522   6.384   4.984   1.301  0.0435  0.7029  0.7222
 5369TIP3    H237523   6.408   4.877   1.405 -0.7861  0.4932  0.7032
 5370TIP3   OH237524   6.102   1.464  12.174  0.8233 -0.1622  0.4842
 5370TIP3    H137525   6.114   1.445  12.267 -0.9339  0.7879  0.9327
 5370TIP3    H237526   6.185   1.437  12.134  1.4114 -1.1115  2.2215
 5371TIP3   OH237527   3.753   2.150   0.624  0.7662 -0.3115 -0.3697
 5371TIP3    H137528   3.711   2.101   0.694 -1.9179  1.4456 -0.6219
 5371TIP3    H237529   3.681   2.182   0.570  2.6026  0.7087 -2.3667
 5372TIP3   OH237530   4.499   0.583   4.827 -0.7242  0.0583  0.6328
 5372TIP3    H137531   4.545   0.500   4.837 -1.4624 -0.5500 -0.7391
 5372TIP3    H237532   4.416   0.570   4.872 -0.8760  0.0191  0.3431
 5373TIP3   OH237533   2.052   0.540  17.122  0.4039 -0.3452 -0.5873
 5373TIP3    H137534   2.013   0.545  17.209  2.2412 -1.4650  0.3630
 5373TIP3    H237535   2.087   0.451  17.116 -0.5455 -0.6284 -2.8950
 5374TIP3   OH237536   5.879   4.218  13.764 -0.0546 -0.5082  0.2000
 5374TIP3    H137537   5.860   4.309  13.739 -1.4278  0.0083  2.7501
 5374TIP3    H237538   5.973   4.217  13.782 -0.3032  0.9765  1.9329
 5375TIP3   OH237539   1.951   1.112  16.006  0.3175 -0.3723 -0.2246
 5375TIP3    H137540   1.980   1.024  16.029  0.6786 -0.4072 -0.8015
 5375TIP3    H237541   1.961   1.162  16.087 -1.3927 -1.2163  0.5683
 5376TIP3   OH237542   6.416   0.743  15.190  0.0853  0.1872  0.2036
 5376TIP3    H137543   6.431   0.672  15.252 -1.5382 -1.9108 -1.6226
 5376TIP3    H237544   6.356   0.802  15.234 -1.4550 -1.5291  0.5103
 5377TIP3   OH237545   1.716   3.620  16.884  0.4159 -0.7496 -0.8240
 5377TIP3    H137546   1.787   3.559  16.903 -0.3464 -1.3754  0.1231
 5377TIP3    H237547   1.660   3.573  16.822  0.3945 -0.5884 -0.9275
 5378TIP3   OH237548   4.026   4.910   0.843  0.1786 -0.4135 -0.4893
 5378TIP3    H137549   4.020   4.850   0.917 -0.9522 -2.0200 -1.7916
 5378TIP3    H237550   3.945   4.894   0.793  1.0246  0.4052 -2.2039
 5379TIP3   OH237551   2.464   6.476  13.167 -0.0577 -0.3206 -0.1159
 5379TIP3    H137552   2.399   6.439  13.107  0.6742 -1.1398 -0.4414
 5379TIP3    H237553   2.547   6.471  13.119  0.4317 -0.3519  0.7014
 5380TIP3   OH237554   0.362   3.040   2.488  0.0203  0.0784  0.1160
 5380TIP3    H137555   0.308   3.027   2.410 -0.1329 -0.9406  0.3870
 5380TIP3    H237556   0.445   3.073   2.454 -0.2427  0.2060 -0.4216
 5381TIP3   OH237557   5.037   3.604  12.249 -0.5195  0.1056 -0.5726
 5381TIP3    H137558   4.946   3.631  12.265 -1.0046 -0.2314 -2.5617
 5381TIP3    H237559   5.035   3.508  12.254 -0.2561  0.1003 -0.5697
 5382TIP3   OH237560   3.181   2.621  15.657  0.1496  0.2661 -0.3571
 5382TIP3    H137561   3.158   2.531  15.633  0.2961  0.2659 -0.4953
 5382TIP3    H237562   3.096   2.667  15.661  0.0425  0.0293  0.1025
 5383TIP3   OH237563   6.282   6.387  16.580 -0.0023 -0.2156 -0.0304
 5383TIP3    H137564   6.349   6.422  16.639 -0.6068 -0.7060  0.9672
 5383TIP3    H237565   6.209   6.364  16.637 -1.4365  1.2244 -1.1971
 5384TIP3   OH237566   3.238   1.490   0.120 -0.2488  0.6201 -0.1064
 5384TIP3    H137567   3.221   1.552   0.049  1.0843 -0.3894 -1.3532
 5384TIP3    H237568   3.194   1.410   0.093  0.9963 -0.0339 -0.2257
 5385TIP3   OH237569   5.813   2.661   4.095 -0.8389  0.6955 -0.4872
 5385TIP3    H137570   5.864   2.635   4.019 -1.7034  2.3874 -1.7123
 5385TIP3    H237571   5.868   2.725   4.141  0.5536 -1.7769  1.5560
 5386TIP3   OH237572   2.382   3.722  16.164 -0.0216  0.1011 -0.4955
 5386TIP3    H137573   2.372   3.644  16.218 -0.1108  0.5793  0.1861
 5386TIP3    H237574   2.476   3.729  16.149  0.2410  1.2021  1.4627
 5387TIP3   OH237575   3.389   1.400   6.898  0.1764  0.5341 -0.2941
 5387TIP3    H137576   3.462   1.411   6.837 -0.1971  2.2189 -0.4853
 5387TIP3    H237577   3.318   1.363   6.845  0.9365 -1.4575 -0.0292
 5388TIP3   OH237578   5.153   1.212   0.746 -0.1084  0.5300 -0.3431
 5388TIP3    H137579   5.132   1.229   0.837  0.8255  0.7385 -0.1570
 5388TIP3    H237580   5.094   1.142   0.720  0.0579  0.0298  0.6060
 5389TIP3   OH237581   2.875   2.528  12.959  0.4024 -0.4258 -0.1693
 5389TIP3    H137582   2.896   2.483  12.877  1.5518 -0.9111  0.3708
 5389TIP3    H237583   2.850   2.616  12.931  0.9369 -0.5293 -1.0378
 5390TIP3   OH237584   3.960   3.258   4.314 -0.2450  0.1194  0.1592
 5390TIP3    H137585   4.019   3.203   4.262 -1.5658 -0.5312 -0.7034
 5390TIP3    H237586   3.976   3.231   4.404  0.1847 -0.6309 -0.1313
 5391TIP3   OH237587   5.843   5.522  15.764 -0.3223  0.2412  0.2791
 5391TIP3    H137588   5.772   5.570  15.722 -1.1315 -1.5694 -0.5450
 5391TIP3    H237589   5.819   5.520  15.857 -0.6498  0.7836  0.2102
 5392TIP3   OH237590   0.931   5.963  16.799  0.0005 -0.2270  0.5242
 5392TIP3    H137591   0.909   6.032  16.736  0.1181  0.9618  1.7349
 5392TIP3    H237592   0.856   5.962  16.859  0.5230 -0.3646  1.1757
 5393TIP3   OH237593   4.602   0.789  17.203 -0.4282 -0.0538  0.6363
 5393TIP3    H137594   4.652   0.846  17.144 -1.6011  1.1519  0.7483
 5393TIP3    H237595   4.547   0.736  17.145  2.1972 -2.7471  0.3852
 5394TIP3   OH237596   0.931   3.573  13.745 -0.0308  0.4954  0.0083
 5394TIP3    H137597   0.882   3.546  13.668  1.4212 -0.6881 -0.5461
 5394TIP3    H237598   0.978   3.495  13.773  2.9900  1.9248 -0.6019
 5395TIP3   OH237599   2.781   6.103  11.146 -1.0460  0.2674  0.6402
 5395TIP3    H137600   2.818   6.139  11.065  1.1583  0.2830  1.5882
 5395TIP3    H237601   2.765   6.178  11.202  0.4248  0.0759  1.3676
 5396TIP3   OH237602   1.329   5.126  13.553 -0.3302 -0.4634  0.3098
 5396TIP3    H137603   1.245   5.126  13.507 -0.2221 -1.6073  0.0865
 5396TIP3    H237604   1.313   5.179  13.631 -1.1343 -0.3130  0.0555
 5397TIP3   OH237605   3.769   3.060   3.876  0.3116 -0.2322  0.5566
 5397TIP3    H137606   3.829   3.117   3.925  0.3116  0.1433  0.1188
 5397TIP3    H237607   3.682   3.089   3.901  0.1421  2.9862 -2.9359
 5398TIP3   OH237608   1.340   3.101   1.103  0.7489  0.1240  0.2340
 5398TIP3    H137609   1.384   3.016   1.104 -0.9496 -0.8307 -0.8873
 5398TIP3    H237610   1.401   3.160   1.149  2.0177 -1.6437  0.9545
 5399TIP3   OH237611   6.186   6.185   1.687 -0.0784  0.0639  0.8986
 5399TIP3    H137612   6.243   6.237   1.631  0.4948  0.1579  1.5658
 5399TIP3    H237613   6.241   6.114   1.720 -0.3064  0.2157  1.6350
 5400TIP3   OH237614   6.164   5.619   2.909  0.1838 -0.2304  0.8135
 5400TIP3    H137615   6.160   5.711   2.884 -1.5436  0.3070  2.8202
 5400TIP3    H237616   6.248   5.610   2.954  1.2073 -0.1453 -0.9656
 5401TIP3   OH237617   6.118   3.378   1.348  0.4136 -0.3749  0.1106
 5401TIP3    H137618   6.170   3.454   1.377  0.5018 -0.1650 -0.5888
 5401TIP3    H237619   6.137   3.370   1.255 -0.5030 -0.5400 -0.0695
 5402TIP3   OH237620   1.163   2.438  15.139  0.5886  0.4686 -0.2535
 5402TIP3    H137621   1.158   2.388  15.221 -1.0093  1.3745  0.2553
 5402TIP3    H237622   1.080   2.486  15.136  0.3909  0.0524 -2.6912
 5403TIP3   OH237623   1.352   5.596   3.564 -0.4420 -0.5496 -0.2731
 5403TIP3    H137624   1.391   5.559   3.643  0.0683  1.5932  0.5527
 5403TIP3    H237625   1.410   5.668   3.540 -1.6010  0.0090 -1.5164
 5404TIP3   OH237626   3.472   3.243   0.444 -0.1594  0.7828 -0.4728
 5404TIP3    H137627   3.530   3.225   0.518 -0.0444 -1.8577 -1.1060
 5404TIP3    H237628   3.389   3.202   0.469 -0.1648  0.0080 -1.6971
 5405TIP3   OH237629   5.345   1.702  15.655  0.5800  0.1338 -0.4999
 5405TIP3    H137630   5.308   1.788  15.637  1.4390  1.2207  2.3335
 5405TIP3    H237631   5.436   1.709  15.626  0.3446 -0.2773 -1.3796
 5406TIP3   OH237632   6.463   0.299   1.010  0.7597 -0.1237  0.7685
 5406TIP3    H137633   6.538   0.344   0.971 -0.4277  0.0881 -1.3923
 5406TIP3    H237634   6.500   0.216   1.042  1.6883 -0.8295 -1.8211
 5407TIP3   OH237635   0.790   1.905   1.718  1.0983 -0.2833 -0.4896
 5407TIP3    H137636   0.791   1.975   1.653 -0.2498  0.4028  0.1811
 5407TIP3    H237637   0.718   1.928   1.777  3.1812 -0.1009  2.1483
 5408TIP3   OH237638   6.050   0.409  16.618  0.1670  0.2818  0.7010
 5408TIP3    H137639   5.984   0.408  16.688 -0.1353  1.6850  0.4696
 5408TIP3    H237640   6.019   0.477  16.558  0.1942 -1.1668 -1.0343
 5409TIP3   OH237641   0.025   3.612  12.857 -0.5323 -0.2392 -0.0457
 5409TIP3    H137642   0.052   3.607  12.949 -0.6717 -0.8195 -0.0316
 5409TIP3    H237643   0.079   3.546  12.813 -0.2776  0.2196 -0.4289
 5410TIP3   OH237644   4.805   0.402  11.871 -0.0922 -0.8118 -0.1254
 5410TIP3    H137645   4.726   0.455  11.884  0.0755 -0.7064  0.5076
 5410TIP3    H237646   4.772   0.314  11.852 -0.3691 -0.8598  0.5385
 5411TIP3   OH237647   1.425   3.711   5.548  0.0579 -0.2255 -0.2649
 5411TIP3    H137648   1.436   3.655   5.625 -0.6521 -0.5517 -0.3857
 5411TIP3    H237649   1.334   3.695   5.521 -0.6809  2.0711  0.5743
 5412TIP3   OH237650   6.086   3.041   2.679  0.0824  0.0186 -0.7832
 5412TIP3    H137651   6.052   3.041   2.769  2.9738 -0.5850  0.4142
 5412TIP3    H237652   6.062   2.955   2.644  2.7775 -1.6787  1.1382
 5413TIP3   OH237653   2.484   0.362   4.264 -0.3591 -0.2361 -0.4048
 5413TIP3    H137654   2.578   0.378   4.270 -0.8555  2.8909  0.4711
 5413TIP3    H237655   2.464   0.311   4.343  0.3044  0.8156  0.4648
 5414TIP3   OH237656   1.155   6.520   4.558 -0.4419 -0.0000  0.3548
 5414TIP3    H137657   1.172   6.613   4.567  0.8307 -0.1754  0.0673
 5414TIP3    H237658   1.093   6.513   4.486 -0.8950  0.6455  0.6774
 5415TIP3   OH237659   1.226   2.408   3.797 -0.2369  0.2201 -0.4147
 5415TIP3    H137660   1.149   2.453   3.833  0.2875  1.8450 -1.2436
 5415TIP3    H237661   1.235   2.443   3.708  0.7414 -0.8725 -0.7724
 5416TIP3   OH237662   0.226   1.542   5.597 -0.1855 -0.5520 -0.0707
 5416TIP3    H137663   0.150   1.485   5.581 -1.0354  0.9346 -1.5490
 5416TIP3    H237664   0.204   1.590   5.677 -1.9845  1.6481 -1.7864
 5417TIP3   OH237665   4.955   4.162  12.569  0.1134  0.6830 -0.7632
 5417TIP3    H137666   4.990   4.226  12.631  0.4279  0.3167 -0.5582
 5417TIP3    H237667   4.958   4.079  12.616  0.7672  0.3232 -1.4120
 5418TIP3   OH237668   3.244   1.210  11.556 -1.0063  0.2686 -0.1816
 5418TIP3    H137669   3.242   1.306  11.563 -1.0250  0.3133 -0.7765
 5418TIP3    H237670   3.279   1.193  11.469 -0.3781 -0.2787  0.1734
 5419TIP3   OH237671   3.539   6.162  16.667 -0.0206  0.3598  0.3778
 5419TIP3    H137672   3.600   6.232  16.693  0.1104  0.3592  0.0699
 5419TIP3    H237673   3.532   6.108  16.746 -2.3201  2.2501  1.5913
 5420TIP3   OH237674   4.648   4.033   3.123 -0.0935  0.1533  0.8579
 5420TIP3    H137675   4.708   3.973   3.165  0.7415 -0.4367 -1.0813
 5420TIP3    H237676   4.590   3.978   3.071  0.9278  0.9597 -1.2638
 5421TIP3   OH237677   0.128   6.625  15.909  0.4984  0.5756  0.3445
 5421TIP3    H137678   0.175   6.577  15.977  2.4104  2.2615  0.3044
 5421TIP3    H237679   0.038   6.630  15.942  0.4465 -2.0662  0.8073
 5422TIP3   OH237680   4.174   2.709   4.460  0.3741  0.1516  0.4587
 5422TIP3    H137681   4.159   2.712   4.554  0.5230  0.6215  0.4694
 5422TIP3    H237682   4.086   2.714   4.422  0.4123  3.5563  0.5060
 5423TIP3   OH237683   1.906   1.249   6.555  0.5816  0.4617 -0.1651
 5423TIP3    H137684   1.939   1.337   6.536  1.9864  0.1911  0.8218
 5423TIP3    H237685   1.815   1.263   6.580  0.2302  1.3911 -1.8494
 5424TIP3   OH237686   2.154   6.513   2.483  0.5525 -0.4675  0.0992
 5424TIP3    H137687   2.186   6.598   2.455  1.0608 -1.4846 -2.8013
 5424TIP3    H237688   2.132   6.468   2.402 -3.8583 -1.6190  1.6438
 5425TIP3   OH237689   5.705   5.487  11.554  0.1605  0.4636  0.0470
 5425TIP3    H137690   5.728   5.395  11.549 -0.8107  0.1239  1.1576
 5425TIP3    H237691   5.616   5.491  11.519  0.4282  1.0948 -0.5861
 5426TIP3   OH237692   1.141   2.020  13.054  0.1991  0.2116 -0.4550
 5426TIP3    H137693   1.084   2.023  12.978 -2.2288 -1.1567  1.1843
 5426TIP3    H237694   1.093   2.065  13.123  0.6534 -1.7071  1.2246
 5427TIP3   OH237695   2.371   2.474  13.973  0.5092 -0.4773 -0.1084
 5427TIP3    H137696   2.328   2.393  14.002 -0.0946 -0.9761 -2.1487
 5427TIP3    H237697   2.404   2.452  13.885 -0.7578  1.8154 -1.2481
 5428TIP3   OH237698   3.077   0.557  13.771 -0.3280 -0.6810 -0.0247
 5428TIP3    H137699   3.053   0.465  13.780 -0.3710 -0.7233 -0.5290
 5428TIP3    H237700   3.095   0.586  13.860 -0.9530 -1.0044  0.2155
 5429TIP3   OH237701   3.085   3.715  11.179  0.4848  0.0010 -0.0062
 5429TIP3    H137702   3.031   3.757  11.111  0.0229  0.3293  0.5542
 5429TIP3    H237703   3.042   3.631  11.195 -0.2262  0.5132  0.8645
 5430TIP3   OH237704   1.056   6.013  16.481  0.1105 -0.1572 -0.1731
 5430TIP3    H137705   0.975   5.978  16.446  0.5728  0.1287 -1.5782
 5430TIP3    H237706   1.118   6.008  16.409  0.8019  1.4613  0.2698
 5431TIP3   OH237707   4.435   5.193   3.527  0.5057 -0.4033  0.9513
 5431TIP3    H137708   4.413   5.210   3.619 -0.6197  2.8331  0.2145
 5431TIP3    H237709   4.354   5.159   3.489  0.0374  1.1012  0.5610
 5432TIP3   OH237710   2.897   4.314   4.670  0.5724 -0.1407  0.8883
 5432TIP3    H137711   2.985   4.344   4.690  1.2807  0.0371 -1.9990
 5432TIP3    H237712   2.859   4.385   4.617  0.7445 -2.3007 -2.4382
 5433TIP3   OH237713   1.524   2.972  14.693  0.2684  0.6871 -0.0383
 5433TIP3    H137714   1.515   3.043  14.758  0.3411  0.2766  0.4288
 5433TIP3    H237715   1.524   2.892  14.746 -2.3643  0.1517 -0.7472
 5434TIP3   OH237716   3.279   5.153   1.303 -0.0344  0.0114 -0.2127
 5434TIP3    H137717   3.254   5.198   1.222 -2.1082  2.8944  1.8612
 5434TIP3    H237718   3.204   5.098   1.325 -0.4950  1.0748  0.9460
 5435TIP3   OH237719   6.097   2.520  13.410 -0.5840 -0.1320  0.1155
 5435TIP3    H137720   6.035   2.447  13.410 -0.6477 -0.1897  2.6805
 5435TIP3    H237721   6.045   2.594  13.440 -0.4452  0.9738 -2.1674
 5436TIP3   OH237722   1.446   0.886  16.036  0.4701  0.2242 -0.7432
 5436TIP3    H137723   1.523   0.941  16.050 -0.6138  1.5155  0.4104
 5436TIP3    H237724   1.435   0.883  15.941 -0.1284  3.0513 -0.8351
 5437TIP3   OH237725   1.326   1.081   3.734  0.8516 -0.1161 -0.2317
 5437TIP3    H137726   1.408   1.046   3.701  0.8523  0.9689 -1.4633
 5437TIP3    H237727   1.261   1.055   3.669  0.0943 -1.3391  0.9448
 5438TIP3   OH237728   0.679   4.748  14.150 -0.1374  0.2819 -0.3192
 5438TIP3    H137729   0.749   4.694  14.112 -0.8804 -0.0829 -1.2278
 5438TIP3    H237730   0.716   4.836  14.153  0.4646  0.0449 -0.5132
 5439TIP3   OH237731   3.682   1.494   5.728  0.5099  0.7875 -0.3739
 5439TIP3    H137732   3.592   1.520   5.746  0.8063  0.6866  1.4162
 5439TIP3    H237733   3.677   1.399   5.716  0.2663  0.8906 -1.1216
 5440TIP3   OH237734   3.913   4.913  17.300 -0.2063  0.0407 -0.3226
 5440TIP3    H137735   3.908   4.862  17.219 -0.8304  1.0092 -0.9230
 5440TIP3    H237736   3.864   4.993  17.280 -0.1343  0.4115  0.9328
 5441TIP3   OH237737   4.750   5.761  15.645 -0.1082 -0.1234 -0.7608
 5441TIP3    H137738   4.808   5.729  15.577 -0.1490  0.0512 -0.8794
 5441TIP3    H237739   4.715   5.682  15.687  1.8760 -0.2750  0.7629
 5442TIP3   OH237740   0.163   5.265  13.940 -0.7163 -0.2880 -0.2931
 5442TIP3    H137741   0.254   5.292  13.930  0.2077 -2.1997  1.9519
 5442TIP3    H237742   0.126   5.271  13.852  1.1968  1.6753 -1.0679
 5443TIP3   OH237743   2.677   3.975  16.288  0.2925  0.3559  0.0476
 5443TIP3    H137744   2.671   3.910  16.218  2.8225  0.0388  0.0483
 5443TIP3    H237745   2.740   3.938  16.350 -1.1102  1.0924  2.0264
 5444TIP3   OH237746   4.720   5.329  12.443  0.2640 -0.4048  0.0812
 5444TIP3    H137747   4.652   5.396  12.454  1.0371  0.4026  0.1067
 5444TIP3    H237748   4.687   5.253  12.490 -0.6577 -0.0502  0.0241
 5445TIP3   OH237749   4.627   4.201  15.588  0.4655 -0.0644 -0.0194
 5445TIP3    H137750   4.540   4.164  15.601 -0.0068  1.4545  1.6277
 5445TIP3    H237751   4.630   4.222  15.495  0.7317 -3.9215 -1.0230
 5446TIP3   OH237752   0.748   3.525  15.907  0.3532  0.5724  0.2634
 5446TIP3    H137753   0.695   3.516  15.828  1.0567 -1.0441 -0.0800
 5446TIP3    H237754   0.832   3.560  15.876  0.2057  1.1428  0.4951
 5447TIP3   OH237755   3.852   2.172   1.975  0.6678 -0.8328  0.4158
 5447TIP3    H137756   3.910   2.164   2.050  1.1829  1.0659  0.2888
 5447TIP3    H237757   3.901   2.227   1.913 -1.6320  1.8424  0.7660
 5448TIP3   OH237758   1.167   2.251   5.843 -0.4180 -0.3722 -0.6754
 5448TIP3    H137759   1.131   2.228   5.929  0.6407 -2.7067 -0.7763
 5448TIP3    H237760   1.222   2.327   5.860 -0.3477 -0.6973  0.7098
 5449TIP3   OH237761   5.945   4.203   1.032 -0.2990 -0.4909  0.2479
 5449TIP3    H137762   6.014   4.144   1.064  1.1397  1.6249  1.2725
 5449TIP3    H237763   5.870   4.184   1.088  0.2600 -1.0897  0.8191
 5450TIP3   OH237764   0.884   2.142   2.694 -0.4069  0.3742  0.8222
 5450TIP3    H137765   0.921   2.072   2.640 -2.4184  0.8605 -1.3453
 5450TIP3    H237766   0.795   2.114   2.713 -1.7722  2.8430 -1.3066
 5451TIP3   OH237767   5.154   4.744   0.931 -0.5048 -0.6353 -0.0739
 5451TIP3    H137768   5.209   4.721   0.856 -0.6696 -0.8229 -0.1394
 5451TIP3    H237769   5.215   4.754   1.004 -0.0400  1.9580 -0.7276
 5452TIP3   OH237770   3.971   0.257   2.604  0.0155 -0.0984 -0.4794
 5452TIP3    H137771   4.003   0.279   2.517 -2.6406 -0.3159 -1.6027
 5452TIP3    H237772   3.895   0.201   2.589  1.1863 -2.6513  2.0824
 5453TIP3   OH237773   1.407   1.947  12.771 -0.2698 -0.0820 -0.2191
 5453TIP3    H137774   1.451   1.930  12.854 -0.3543  0.6855 -0.0060
 5453TIP3    H237775   1.369   1.863  12.746 -0.9862 -0.1207  0.9521
 5454TIP3   OH237776   5.356   1.249   5.077  0.1920 -0.5238  0.6468
 5454TIP3    H137777   5.400   1.188   5.136  1.6173  0.0707  0.2315
 5454TIP3    H237778   5.330   1.194   5.002 -0.6302 -1.0564  1.3004
 5455TIP3   OH237779   0.133   0.467   4.026  0.0366  0.0563  0.3066
 5455TIP3    H137780   0.064   0.524   4.061  0.0939  1.5740 -1.8433
 5455TIP3    H237781   0.102   0.442   3.939  2.2972  1.1146 -0.9008
 5456TIP3   OH237782   6.009   4.332   4.199 -0.2127  0.0579  0.1494
 5456TIP3    H137783   6.080   4.340   4.135  1.8304  0.8426  2.4047
 5456TIP3    H237784   6.051   4.301   4.279 -1.9051  2.9553  2.3394
 5457TIP3   OH237785   5.284   6.289  13.406  0.5156  0.2322  0.3080
 5457TIP3    H137786   5.249   6.355  13.347  0.3645 -0.5898 -0.5342
 5457TIP3    H237787   5.377   6.313  13.416  0.2046  1.2360  0.9490
 5458TIP3   OH237788   5.508   0.780  13.882  0.1930 -0.1394 -0.1816
 5458TIP3    H137789   5.443   0.741  13.823  1.1467 -2.8001  0.4091
 5458TIP3    H237790   5.493   0.737  13.966 -0.2468  2.6086  1.2716
 5459TIP3   OH237791   5.079   4.005   5.497 -0.0815  0.5648  0.3752
 5459TIP3    H137792   5.145   4.021   5.430  1.0500  2.0333  1.7552
 5459TIP3    H237793   5.129   4.002   5.579 -1.5877  0.3758  1.3170
 5460TIP3   OH237794   4.341   3.073  15.698 -0.2043  0.3082  0.1155
 5460TIP3    H137795   4.266   3.095  15.641  0.4794 -0.3341 -1.0722
 5460TIP3    H237796   4.349   2.978  15.691  1.1924  0.4428 -0.4150
 5461TIP3   OH237797   6.275   1.892   2.480 -0.0619 -0.4509  0.3426
 5461TIP3    H137798   6.360   1.859   2.508  0.8681  1.3461 -0.1871
 5461TIP3    H237799   6.229   1.913   2.562  0.2261 -0.8905  0.6192
 5462TIP3   OH237800   6.724   5.892  11.149 -0.6188 -0.1557 -0.3415
 5462TIP3    H137801   6.647   5.941  11.120 -1.9714 -1.5913  0.6931
 5462TIP3    H237802   6.696   5.801  11.147  0.5105 -0.5921  1.6383
 5463TIP3   OH237803   1.302   2.752  16.576 -0.0444 -0.2448 -0.6915
 5463TIP3    H137804   1.390   2.739  16.612 -1.2879  0.5058  3.1530
 5463TIP3    H237805   1.290   2.847  16.576 -1.2532 -0.3737  0.1021
 5464TIP3   OH237806   4.469   6.628   0.989 -0.3906 -0.2471 -0.0863
 5464TIP3    H137807   4.506   6.713   0.966 -0.0872  0.2692  2.0490
 5464TIP3    H237808   4.545   6.572   1.002 -0.2114  0.4942  3.1111
 5465TIP3   OH237809   1.132   3.306  14.384 -0.1747  0.1463  0.2968
 5465TIP3    H137810   1.044   3.272  14.375  0.1615 -0.9333  0.9606
 5465TIP3    H237811   1.185   3.252  14.325  0.0706  0.7565 -0.0652
 5466TIP3   OH237812   3.999   0.827   0.943 -0.1569 -0.1653  0.3648
 5466TIP3    H137813   4.027   0.791   0.859  3.6919  2.2607  0.3957
 5466TIP3    H237814   4.024   0.761   1.007  0.4980 -0.3768 -0.1029
 5467TIP3   OH237815   0.054   2.610   3.488 -0.3538  0.3671  0.4795
 5467TIP3    H137816   0.053   2.702   3.460 -0.9948 -0.0421 -0.9157
 5467TIP3    H237817   0.006   2.564   3.419  2.1055 -1.3959 -0.1592
 5468TIP3   OH237818   6.642   0.971  11.786  0.5565  0.1107 -0.1171
 5468TIP3    H137819   6.595   0.970  11.702  2.1915  0.4199 -1.0761
 5468TIP3    H237820   6.639   0.880  11.815  0.8945 -0.2151 -1.0521
 5469TIP3   OH237821   6.027   0.479   5.203  0.4028  0.1008 -0.2645
 5469TIP3    H137822   6.100   0.495   5.263  0.6960  0.8090 -0.7967
 5469TIP3    H237823   6.057   0.410   5.145  0.3348 -0.1816  0.0319
 5470TIP3   OH237824   2.853   4.552  13.866 -0.0935  0.1213  0.1392
 5470TIP3    H137825   2.896   4.637  13.873 -2.9179  1.7201 -0.6595
 5470TIP3    H237826   2.867   4.526  13.775 -0.9321  0.7537 -0.1862
 5471TIP3   OH237827   5.999   5.046  12.562  0.4820 -0.2989 -0.2794
 5471TIP3    H137828   6.066   5.040  12.630 -0.0780  0.9257  0.4028
 5471TIP3    H237829   6.045   5.080  12.485  0.7163  0.1577  0.0621
 5472TIP3   OH237830   2.904   1.518   0.289 -0.4446  0.0565  0.8244
 5472TIP3    H137831   2.938   1.557   0.369 -1.4956  0.5907  1.0361
 5472TIP3    H237832   2.896   1.425   0.309 -0.4625  0.1493  1.2518
 5473TIP3   OH237833   1.146   2.945   2.497 -0.1768 -0.0598 -0.1927
 5473TIP3    H137834   1.197   2.874   2.458 -0.5127 -1.8309  2.3999
 5473TIP3    H237835   1.069   2.903   2.535 -0.8747  1.8192  0.6450
 5474TIP3   OH237836   4.034   1.006  14.038 -0.2949 -0.2066  0.0911
 5474TIP3    H137837   4.071   0.938  13.982 -0.2191  2.0711 -2.9083
 5474TIP3    H237838   3.950   0.970  14.066  0.3369 -2.0576 -0.2456
 5475TIP3   OH237839   3.220   2.375   3.872  0.0624 -0.1029  0.4816
 5475TIP3    H137840   3.271   2.435   3.817 -0.5227 -1.0069 -1.1298
 5475TIP3    H237841   3.286   2.325   3.920  0.7492 -0.8992 -1.1917
 5476TIP3   OH237842   4.536   3.946   6.327  0.5449  0.6633 -0.4395
 5476TIP3    H137843   4.582   3.905   6.253  0.8614  1.1944 -0.5437
 5476TIP3    H237844   4.494   3.873   6.373 -0.6389  0.4299 -1.8166
 5477TIP3   OH237845   1.168   5.666  15.227  0.1611 -0.3526 -0.5444
 5477TIP3    H137846   1.083   5.623  15.227 -0.7190  1.3166  0.2146
 5477TIP3    H237847   1.212   5.630  15.304 -0.5989  0.1606  0.1401
 5478TIP3   OH237848   3.951   1.871  12.740 -0.1496  0.5346 -0.5829
 5478TIP3    H137849   3.884   1.932  12.771 -0.2496 -0.3296  1.0094
 5478TIP3    H237850   4.030   1.925  12.729  0.3743  0.6903  2.8985
 5479TIP3   OH237851   6.646   0.745   3.637  0.2026 -0.3608 -0.2690
 5479TIP3    H137852   6.693   0.692   3.573 -1.7325 -1.3781 -0.9451
 5479TIP3    H237853   6.635   0.688   3.713  1.1654  0.3214  0.4011
 5480TIP3   OH237854   1.156   3.624   4.119 -0.2925 -0.2983 -0.1849
 5480TIP3    H137855   1.222   3.658   4.059 -0.8343 -0.2751 -0.7756
 5480TIP3    H237856   1.073   3.650   4.080 -0.6589 -0.5425  0.4239
 5481TIP3   OH237857   0.466   0.389  16.034  0.5250  0.3027 -0.3196
 5481TIP3    H137858   0.461   0.479  16.066  0.5335 -0.2582  1.3470
 5481TIP3    H237859   0.394   0.382  15.971  0.3432  1.3879 -0.2509
 5482TIP3   OH237860   3.886   6.473  12.006  0.5044  0.3835  0.1494
 5482TIP3    H137861   3.859   6.549  12.057 -0.4868  0.3698 -0.3371
 5482TIP3    H237862   3.975   6.494  11.978  0.0025  1.6648 -0.5397
 5483TIP3   OH237863   4.571   3.458   5.264  0.2258 -0.0971  0.1451
 5483TIP3    H137864   4.561   3.421   5.176  1.3391 -1.0119  0.3889
 5483TIP3    H237865   4.618   3.541   5.250 -0.3237  0.1671 -0.1859
 5484TIP3   OH237866   6.385   2.269  16.414 -0.6962  0.0184  0.3567
 5484TIP3    H137867   6.416   2.223  16.336 -0.9346 -0.6508  0.6438
 5484TIP3    H237868   6.464   2.299  16.458 -0.5809  2.2886 -1.2143
 5485TIP3   OH237869   3.752   4.799   2.870  0.5059 -0.0003  0.2701
 5485TIP3    H137870   3.815   4.728   2.880  0.6235  0.2217  1.2626
 5485TIP3    H237871   3.804   4.878   2.886 -0.2918  0.1107  2.6322
 5486TIP3   OH237872   5.098   1.703  12.970 -0.1014  0.7612 -1.0965
 5486TIP3    H137873   5.055   1.775  13.017  0.2834  1.2803 -1.5192
 5486TIP3    H237874   5.067   1.712  12.880 -0.5727 -0.0225 -1.0223
 5487TIP3   OH237875   5.926   5.864  17.288  0.3884  0.1314  0.0781
 5487TIP3    H137876   5.941   5.898  17.377 -0.9706  0.3088  0.2638
 5487TIP3    H237877   5.985   5.789  17.281  0.0923 -0.2455  1.3631
 5488TIP3   OH237878   6.351   6.003  10.781  0.0021 -0.1526 -0.1320
 5488TIP3    H137879   6.289   5.943  10.740  0.6554 -0.3614 -0.8535
 5488TIP3    H237880   6.299   6.054  10.842 -0.6008 -1.3485  0.3934
 5489TIP3   OH237881   4.380   1.977   6.242 -0.2951 -0.6449  0.1603
 5489TIP3    H137882   4.285   1.974   6.231 -0.4628 -0.5407  1.4638
 5489TIP3    H237883   4.406   1.885   6.245 -0.8290 -0.7852  3.2887
 5490TIP3   OH237884   5.413   1.171  15.452 -0.5915  0.0810  0.1887
 5490TIP3    H137885   5.417   1.233  15.525  1.6496  0.5365 -0.2515
 5490TIP3    H237886   5.344   1.206  15.395  0.6672  2.3327 -0.1072
 5491TIP3   OH237887   3.972   2.722  14.030  0.3020  0.6140  0.8727
 5491TIP3    H137888   4.064   2.738  14.053  0.8417  1.0518 -1.3251
 5491TIP3    H237889   3.922   2.756  14.105  1.9219 -0.7988  2.6903
 5492TIP3   OH237890   0.476   2.007  11.994  0.5764 -0.0770  0.3278
 5492TIP3    H137891   0.554   1.959  12.019  0.0234 -0.5794  1.1358
 5492TIP3    H237892   0.411   1.940  11.975  0.6642  0.2995 -1.5477
 5493TIP3   OH237893   4.973   1.814  11.759  0.2163 -0.2632  0.0486
 5493TIP3    H137894   4.890   1.857  11.781  0.3499  0.1421 -0.2236
 5493TIP3    H237895   5.006   1.863  11.683 -0.3955 -1.7978 -1.2799
 5494TIP3   OH237896   6.574   0.261   3.953 -0.1620  0.1841 -0.6648
 5494TIP3    H137897   6.550   0.351   3.929 -0.4347 -0.0925 -1.4678
 5494TIP3    H237898   6.515   0.206   3.902 -0.1925 -0.4531  0.0401
 5495TIP3   OH237899   5.896   2.610   5.288 -0.1100 -0.2569 -0.1030
 5495TIP3    H137900   5.952   2.533   5.274 -0.6784 -0.4625 -1.3597
 5495TIP3    H237901   5.890   2.651   5.202  2.7899  3.0725  1.0001
 5496TIP3   OH237902   0.012   6.240  13.977  0.2454  0.1796 -0.6289
 5496TIP3    H137903   0.029   6.166  14.034  0.0333 -0.1697 -1.0086
 5496TIP3    H237904   0.094   6.289  13.976  1.0828 -1.1460 -1.9625
 5497TIP3   OH237905   4.857   0.618   2.682  0.1536 -0.1796 -0.1741
 5497TIP3    H137906   4.854   0.713   2.681 -0.9355 -0.1917  0.5293
 5497TIP3    H237907   4.940   0.596   2.638 -0.1101  1.0478 -1.3533
 5498TIP3   OH237908   1.494   5.145   2.245 -1.0053 -0.4436 -0.4423
 5498TIP3    H137909   1.520   5.215   2.304 -1.6105 -1.1229  0.6588
 5498TIP3    H237910   1.399   5.143   2.250 -1.0818 -0.4484 -1.5420
 5499TIP3   OH237911   4.506   2.817   4.175  0.0554 -0.2520  0.4599
 5499TIP3    H137912   4.589   2.792   4.135  0.1946  1.0279 -0.1147
 5499TIP3    H237913   4.482   2.743   4.230 -1.4947 -3.3753 -3.9087
 5500TIP3   OH237914   5.106   3.012  12.310 -0.4509 -0.3811 -0.3705
 5500TIP3    H137915   5.194   3.006  12.271  0.5259  1.0039  1.4324
 5500TIP3    H237916   5.113   2.963  12.392 -0.9130  0.8732  0.4506
 5501TIP3   OH237917   4.722   5.159  16.355  0.0241  0.0248 -0.2133
 5501TIP3    H137918   4.716   5.247  16.319 -0.6041  0.1000  0.0511
 5501TIP3    H237919   4.815   5.143  16.366  0.1078  1.0423  0.6829
 5502TIP3   OH237920   2.247   1.556   1.108  0.0345 -0.2913 -0.1175
 5502TIP3    H137921   2.179   1.623   1.105  1.1577  0.9129 -0.0145
 5502TIP3    H237922   2.210   1.481   1.062 -1.1263  0.5361 -0.5744
 5503TIP3   OH237923   0.816   1.485   1.406  0.1777  0.5854 -0.1686
 5503TIP3    H137924   0.876   1.489   1.480  1.3513 -0.2756 -1.0386
 5503TIP3    H237925   0.768   1.568   1.410 -0.8372 -0.0158  2.3534
 5504TIP3   OH237926   3.930   1.024  15.743 -0.1465  0.0779 -0.5420
 5504TIP3    H137927   3.849   0.972  15.747  1.2391 -2.1521  1.7120
 5504TIP3    H237928   3.993   0.968  15.699  1.0205  0.3986  0.6566
 5505TIP3   OH237929   0.497   5.728  12.982 -0.3216 -0.1727  0.4431
 5505TIP3    H137930   0.441   5.761  12.911  0.5490  0.4190 -0.0022
 5505TIP3    H237931   0.583   5.767  12.963 -0.0876  0.0249  1.8598
 5506TIP3   OH237932   2.929   1.923   4.848  0.2911  0.4666 -0.0487
 5506TIP3    H137933   2.950   1.938   4.755  1.6230 -0.0450  0.1414
 5506TIP3    H237934   2.974   1.993   4.894  1.3060 -0.4144  0.3459
 5507TIP3   OH237935   0.985   5.952   5.759  0.8100 -0.0769 -0.2476
 5507TIP3    H137936   0.950   6.016   5.697  1.8455  0.1825 -0.5849
 5507TIP3    H237937   1.043   5.896   5.707  1.0786 -0.3552  0.3320
 5508TIP3   OH237938   2.367   1.827   4.194  0.5217  1.0514  0.1027
 5508TIP3    H137939   2.333   1.760   4.134  1.4850  2.1740 -1.7606
 5508TIP3    H237940   2.315   1.905   4.175  0.0017  1.1074  1.6410
 5509TIP3   OH237941   6.645   2.392  12.600 -0.2177 -0.4662 -0.5582
 5509TIP3    H137942   6.628   2.301  12.573 -3.3795 -0.7102  1.5933
 5509TIP3    H237943   6.575   2.442  12.559  1.0501  0.9360 -1.0944
 5510TIP3   OH237944   3.876   1.995   5.561 -0.8008 -0.3147 -0.1070
 5510TIP3    H137945   3.927   2.056   5.509 -2.9204  0.2940 -1.6133
 5510TIP3    H237946   3.937   1.963   5.628  1.2267  1.0357 -1.2144
 5511TIP3   OH237947   0.253   0.265   6.244 -0.9147 -0.3460  0.1004
 5511TIP3    H137948   0.331   0.217   6.217 -0.6420 -0.1293  0.4943
 5511TIP3    H237949   0.276   0.357   6.234 -1.0102 -0.2742  0.5035
 5512TIP3   OH237950   6.046   5.317  16.769 -0.0171 -0.3604  0.1459
 5512TIP3    H137951   5.989   5.239  16.768  0.9420 -1.1067  0.8142
 5512TIP3    H237952   6.134   5.281  16.759  0.4117  0.6876  0.1316
 5513TIP3   OH237953   0.386   2.744   5.803  0.2651  0.0414 -0.4195
 5513TIP3    H137954   0.383   2.713   5.894 -0.7135  1.1938 -0.0321
 5513TIP3    H237955   0.478   2.738   5.779  0.7508  0.9310  1.0958
 5514TIP3   OH237956   2.889   5.642  15.253 -0.0145 -0.2868 -0.2442
 5514TIP3    H137957   2.954   5.701  15.291  1.4459 -0.6148 -2.0882
 5514TIP3    H237958   2.856   5.688  15.176 -0.8347 -0.7960 -0.2121
 5515TIP3   OH237959   2.769   5.068  15.008  0.5488  0.6747 -0.2090
 5515TIP3    H137960   2.715   5.046  15.083  1.0257  1.5869  0.4266
 5515TIP3    H237961   2.718   5.132  14.959  0.5066  0.5589 -0.3163
 5516TIP3   OH237962   4.950   4.625   1.848 -0.0883  0.4030 -0.1899
 5516TIP3    H137963   4.866   4.587   1.824  0.4391 -1.5484  0.8112
 5516TIP3    H237964   4.927   4.707   1.892 -1.5543 -0.4779  0.8014
 5517TIP3   OH237965   2.202   2.134  16.742  0.7266  0.0603  0.2982
 5517TIP3    H137966   2.221   2.222  16.776 -0.1807 -0.3923  2.0940
 5517TIP3    H237967   2.110   2.138  16.717  0.6724 -0.3847  0.4308
 5518TIP3   OH237968   4.172   2.740   0.063 -0.0496  0.0785  0.0862
 5518TIP3    H137969   4.191   2.656   0.105  1.4309  0.9162  1.1577
 5518TIP3    H237970   4.257   2.775   0.038 -0.6032  1.4943  0.0857
 5519TIP3   OH237971   3.936   1.096   6.171 -0.0742  0.1208  0.3997
 5519TIP3    H137972   4.017   1.121   6.216 -0.8536  0.2933  1.7380
 5519TIP3    H237973   3.964   1.031   6.106  1.0521 -0.2393  1.2153
 5520TIP3   OH237974   5.674   2.245   3.359 -0.4590  0.2630 -0.4131
 5520TIP3    H137975   5.755   2.296   3.354  0.6231 -1.2248  0.7514
 5520TIP3    H237976   5.652   2.225   3.268  0.8537  0.1766 -0.7364
 5521TIP3   OH237977   0.999   1.912   3.160 -0.0982  0.0496 -0.2551
 5521TIP3    H137978   0.936   1.890   3.228 -0.1159  2.5480  0.6354
 5521TIP3    H237979   1.068   1.960   3.206  0.5614  0.6356 -1.7964
 5522TIP3   OH237980   2.649   0.190   0.440 -0.6465 -0.0411 -0.4565
 5522TIP3    H137981   2.723   0.248   0.461 -0.5775 -0.5569  0.7765
 5522TIP3    H237982   2.677   0.145   0.361 -0.4811  1.2172 -1.1470
 5523TIP3   OH237983   4.769   1.359   7.073 -0.1018 -0.1022  0.6453
 5523TIP3    H137984   4.840   1.337   7.133  0.7713 -0.4480 -0.4976
 5523TIP3    H237985   4.798   1.329   6.987 -1.2086  0.6325 -0.0244
 5524TIP3   OH237986   3.367   4.454   3.032  0.0508 -0.4422 -0.2965
 5524TIP3    H137987   3.367   4.470   3.126 -0.4347  2.2107 -0.6848
 5524TIP3    H237988   3.410   4.530   2.994  3.0239 -2.7825 -2.1197
 5525TIP3   OH237989   1.846   5.471  17.216  0.6769  0.1176  0.4302
 5525TIP3    H137990   1.886   5.418  17.286  1.7959  0.1382 -0.1667
 5525TIP3    H237991   1.881   5.434  17.135 -2.6428 -1.6341 -0.3603
 5526TIP3   OH237992   1.128   2.256   2.747 -0.2040  0.2557 -1.1731
 5526TIP3    H137993   1.125   2.173   2.795  0.2998 -0.8222 -2.8928
 5526TIP3    H237994   1.037   2.272   2.722 -0.1461 -0.4038 -1.8224
 5527TIP3   OH237995   6.145   0.219   5.751 -0.3002 -0.3685  0.0512
 5527TIP3    H137996   6.119   0.296   5.701  0.3143  0.0432  0.3501
 5527TIP3    H237997   6.138   0.146   5.690  1.5712  0.2742 -0.9962
 5528TIP3   OH237998   6.333   3.532  13.585 -0.3610  0.1493 -0.1969
 5528TIP3    H137999   6.353   3.534  13.679  1.1743  0.7294 -0.4976
 5528TIP3    H238000   6.373   3.612  13.551 -0.8762 -0.0731 -1.3490
 5529TIP3   OH238001   6.568   6.568   4.505 -0.0203 -0.3504 -0.3403
 5529TIP3    H138002   6.500   6.633   4.521 -0.0479 -0.6799  1.0427
 5529TIP3    H238003   6.643   6.618   4.475  0.3333  0.5029  1.8124
 5530TIP3   OH238004   1.981   3.142  11.527  0.1085  0.1275  0.2666
 5530TIP3    H138005   1.937   3.224  11.504  0.7509 -0.0424 -1.7710
 5530TIP3    H238006   2.018   3.110  11.444  1.4358 -1.2923  1.3352
 5531TIP3   OH238007   5.991   3.096  16.113  0.0669 -0.3737 -0.3894
 5531TIP3    H138008   5.990   3.156  16.039 -0.7865  0.0497 -0.0584
 5531TIP3    H238009   5.907   3.051  16.109 -1.3849  1.7961  1.9474
 5532TIP3   OH238010   0.990   1.513   0.499  0.3327  0.5587  0.6488
 5532TIP3    H138011   0.901   1.489   0.527  0.4237 -1.3389 -0.5392
 5532TIP3    H238012   1.041   1.513   0.580 -1.1458  4.1834  1.7915
 5533TIP3   OH238013   5.534   6.267  11.987  0.0396 -0.4554 -0.9576
 5533TIP3    H138014   5.593   6.300  11.919 -0.3593  0.1307 -1.0240
 5533TIP3    H238015   5.463   6.226  11.938  0.7850 -1.9151 -0.8791
 5534TIP3   OH238016   4.522   1.284  12.672  0.3319  0.3246 -0.1443
 5534TIP3    H138017   4.431   1.305  12.694  0.4991  0.2680  0.6423
 5534TIP3    H238018   4.566   1.369  12.666  0.5744  0.3069  1.0884
 5535TIP3   OH238019   2.531   5.735  14.475  0.2119 -0.5395  0.4042
 5535TIP3    H138020   2.438   5.711  14.479  0.2506 -0.7299  0.2108
 5535TIP3    H238021   2.541   5.779  14.391  0.6223 -1.9862 -0.3500
 5536TIP3   OH238022   3.665   6.518   6.510 -0.0885 -0.6069 -0.3453
 5536TIP3    H138023   3.758   6.497   6.520 -0.0013 -1.4334 -2.3004
 5536TIP3    H238024   3.620   6.449   6.558  0.3093 -1.0640 -0.6133
 5537TIP3   OH238025   0.770   3.927  12.270 -0.6313 -0.0599 -0.8382
 5537TIP3    H138026   0.698   3.907  12.211 -1.5805  0.0206  0.2645
 5537TIP3    H238027   0.841   3.869  12.242 -2.0862 -2.3224 -0.0693
 5538TIP3   OH238028   2.573   1.490   4.444 -0.1926  0.5692 -0.0983
 5538TIP3    H138029   2.523   1.418   4.406 -2.4645  1.7638  0.4457
 5538TIP3    H238030   2.638   1.448   4.500 -0.0145 -1.0789 -1.4726
 5539TIP3   OH238031   4.561   3.650   4.337  0.0675  0.6690  0.3210
 5539TIP3    H138032   4.509   3.679   4.412  1.1561  0.0967  1.3292
 5539TIP3    H238033   4.517   3.570   4.308  0.3173  0.2296  1.1177
 5540TIP3   OH238034   4.364   0.847  14.225 -0.0601  0.0242  0.6093
 5540TIP3    H138035   4.333   0.925  14.269  0.0843  0.4125  0.0387
 5540TIP3    H238036   4.319   0.775  14.269 -0.8954  0.4921  0.5369
 5541TIP3   OH238037   3.124   1.121  10.764 -0.4002 -0.1482  0.5680
 5541TIP3    H138038   3.068   1.065  10.710 -0.3494 -0.3007  0.6729
 5541TIP3    H238039   3.160   1.062  10.831  0.8380 -0.3399 -0.2169
 5542TIP3   OH238040   3.812   5.787   2.069  0.0533  0.1924 -0.0580
 5542TIP3    H138041   3.899   5.793   2.108  0.2438  0.4001 -0.5093
 5542TIP3    H238042   3.801   5.869   2.020 -0.2418  0.0030 -0.3146
 5543TIP3   OH238043   5.220   1.736   0.468 -0.4466  0.1250  0.2281
 5543TIP3    H138044   5.277   1.803   0.505  0.6725 -0.1660 -0.9270
 5543TIP3    H238045   5.144   1.784   0.436  0.0846  0.7731 -0.0741
 5544TIP3   OH238046   2.881   4.765  14.733 -0.0296  0.2610 -0.0392
 5544TIP3    H138047   2.850   4.848  14.768  0.0656  1.3096 -2.2421
 5544TIP3    H238048   2.974   4.762  14.757 -0.3756  0.0236  1.3531
 5545TIP3   OH238049   3.331   5.237   2.715 -0.3369  0.0609 -0.0423
 5545TIP3    H138050   3.247   5.265   2.677 -0.6945 -1.0376 -0.1148
 5545TIP3    H238051   3.315   5.237   2.809 -0.3295  0.1406 -0.0412
 5546TIP3   OH238052   5.604   4.188  13.819  0.4483  0.2048 -0.3052
 5546TIP3    H138053   5.567   4.254  13.761 -0.1669 -0.0225 -0.1820
 5546TIP3    H238054   5.694   4.176  13.788  0.2097  0.2827 -1.0348
 5547TIP3   OH238055   1.802   4.264  11.433  0.1734  0.2854 -0.4352
 5547TIP3    H138056   1.752   4.190  11.399  0.7449 -0.9211  1.1895
 5547TIP3    H238057   1.871   4.279  11.369 -0.7828  0.3583 -1.4726
 5548TIP3   OH238058   2.295   1.608  13.337 -0.0584 -0.2459  0.0495
 5548TIP3    H138059   2.351   1.681  13.362  0.5112 -1.3965  2.4405
 5548TIP3    H238060   2.355   1.542  13.302 -0.3625 -0.2627 -0.4679
 5549TIP3   OH238061   2.015   6.229   5.236  0.2143  0.0832  0.2001
 5549TIP3    H138062   1.950   6.254   5.302 -0.7735  1.4467 -1.2109
 5549TIP3    H238063   1.963   6.204   5.160  1.2681  2.6593 -1.4977
 5550TIP3   OH238064   2.314   2.444  14.846  0.2042 -0.0136 -0.0818
 5550TIP3    H138065   2.396   2.492  14.848  0.0806  0.1908  0.5203
 5550TIP3    H238066   2.336   2.359  14.808  0.3990  0.5566 -1.2676
 5551TIP3   OH238067   2.709   6.328  14.974  0.0780  0.2186  0.1948
 5551TIP3    H138068   2.745   6.253  15.022 -1.5379 -0.1444  0.9217
 5551TIP3    H238069   2.614   6.316  14.980 -0.1917  1.7539 -0.6190
 5552TIP3   OH238070   6.310   0.608  15.514 -0.5486  0.5623  0.2112
 5552TIP3    H138071   6.396   0.650  15.523 -0.4108  0.5111 -0.7606
 5552TIP3    H238072   6.247   0.678  15.532 -0.3128  0.9694 -0.5323
 5553TIP3   OH238073   2.266   0.671  12.859  0.6377  0.3985 -0.3115
 5553TIP3    H138074   2.199   0.608  12.885  0.7287 -0.8049 -2.6844
 5553TIP3    H238075   2.338   0.657  12.920  0.5322 -1.6362 -0.5918
 5554TIP3   OH238076   1.422   0.929  15.114  0.2334  0.2659  0.3337
 5554TIP3    H138077   1.460   0.968  15.035  1.2449 -0.4625  0.4267
 5554TIP3    H238078   1.493   0.874  15.149 -0.5234 -0.1711  1.2160
 5555TIP3   OH238079   5.082   2.133  13.175 -0.0683  0.1269 -0.1555
 5555TIP3    H138080   5.162   2.111  13.221 -0.3545 -0.3975  0.1057
 5555TIP3    H238081   5.060   2.054  13.126 -0.7328  0.0573  0.2342
 5556TIP3   OH238082   5.799   3.422   3.601 -0.1856 -0.0640 -0.1704
 5556TIP3    H138083   5.734   3.435   3.532  0.6612 -0.6151 -1.0954
 5556TIP3    H238084   5.789   3.498   3.658 -0.3940  0.7876 -1.3176
 5557TIP3   OH238085   5.021   2.163  16.840  0.3670 -0.0153  0.3798
 5557TIP3    H138086   5.093   2.120  16.886 -0.5600 -0.0134  1.8820
 5557TIP3    H238087   4.962   2.193  16.909 -1.4981 -0.7217 -0.8223
 5558TIP3   OH238088   4.622   1.762  15.096 -0.1643 -0.8792 -0.2555
 5558TIP3    H138089   4.562   1.819  15.144  1.3735 -1.0816  2.0909
 5558TIP3    H238090   4.618   1.678  15.143  1.7293 -0.9634 -0.1748
 5559TIP3   OH238091   1.312   3.042  14.424 -0.3629 -0.6588  0.1745
 5559TIP3    H138092   1.361   2.983  14.366 -1.2996  0.2088 -1.5889
 5559TIP3    H238093   1.223   3.007  14.422 -0.7992  0.4339 -0.4307
 5560TIP3   OH238094   1.966   4.463  10.796 -0.7742 -0.0162 -0.0389
 5560TIP3    H138095   2.045   4.517  10.803 -0.2637 -0.9353  2.3606
 5560TIP3    H238096   1.926   4.490  10.714  2.8118 -0.5510 -2.1934
 5561TIP3   OH238097   0.729   2.918  14.176 -0.1041 -0.4288  0.1463
 5561TIP3    H138098   0.821   2.944  14.172  0.2675 -1.5982  0.4827
 5561TIP3    H238099   0.728   2.829  14.141 -1.3140  0.0104 -1.0101
 5562TIP3   OH238100   3.657   5.173  11.230 -0.2157  0.1494  0.0801
 5562TIP3    H138101   3.574   5.189  11.185  0.4247  2.3930 -0.4175
 5562TIP3    H238102   3.716   5.141  11.161 -0.9139 -2.5922  0.6592
 5563TIP3   OH238103   4.685   0.208   1.937  0.5431 -0.4557 -0.3178
 5563TIP3    H138104   4.594   0.179   1.933  0.2139  0.3851  0.6600
 5563TIP3    H238105   4.710   0.222   1.846 -0.8778  0.9663 -0.5410
 5564TIP3   OH238106   5.554   5.510  14.413 -0.0397 -0.1687 -0.2722
 5564TIP3    H138107   5.581   5.467  14.331  0.2141 -0.5269 -0.0068
 5564TIP3    H238108   5.459   5.512  14.408 -0.0730 -1.0209 -0.1691
 5565TIP3   OH238109   4.850   3.733  12.398  0.0820  0.2675  0.0868
 5565TIP3    H138110   4.833   3.665  12.462  0.9637  0.7989  0.9144
 5565TIP3    H238111   4.781   3.798  12.413  0.1614  0.2903  0.3502
 5566TIP3   OH238112   2.977   2.030  15.771  0.0988 -0.9535  0.0255
 5566TIP3    H138113   2.909   2.071  15.719  0.7279 -1.0240 -0.8847
 5566TIP3    H238114   2.965   1.936  15.757  1.0026 -0.9340 -0.9724
 5567TIP3   OH238115   1.320   5.634  13.702  0.5087 -0.2142  0.1458
 5567TIP3    H138116   1.281   5.721  13.707  0.0388 -0.2978 -1.3974
 5567TIP3    H238117   1.248   5.577  13.677  0.9219 -0.9624  0.6442
 5568TIP3   OH238118   3.867   0.399   4.975  0.1684 -0.0840  0.3128
 5568TIP3    H138119   3.936   0.462   4.956  0.5415 -0.1335  1.4257
 5568TIP3    H238120   3.906   0.313   4.956  0.2485 -0.0818  0.4665
 5569TIP3   OH238121   0.637   5.210   3.570  0.3806  0.5091  0.3180
 5569TIP3    H138122   0.562   5.151   3.561 -0.6638  1.6395  1.2118
 5569TIP3    H238123   0.671   5.221   3.481 -1.3314  0.9731 -0.3125
 5570TIP3   OH238124   2.294   6.074  15.361  0.2075  0.4754 -0.5605
 5570TIP3    H138125   2.234   6.000  15.355  1.3596 -0.4297 -1.3901
 5570TIP3    H238126   2.263   6.124  15.437 -0.9223 -0.5478 -0.3243
 5571TIP3   OH238127   3.489   3.607  10.715 -0.2948 -0.2760  0.1667
 5571TIP3    H138128   3.405   3.623  10.760 -0.5081  0.4871 -0.4964
 5571TIP3    H238129   3.517   3.693  10.684 -0.3514 -0.8365 -1.5124
 5572TIP3   OH238130   1.943   1.523   1.234 -0.1395  0.2544 -0.0670
 5572TIP3    H138131   1.857   1.548   1.269  0.7015  0.2300  2.1702
 5572TIP3    H238132   2.000   1.522   1.310  2.0595  1.0092 -1.6139
 5573TIP3   OH238133   3.191   1.140  15.021  0.3532 -0.4390  0.0429
 5573TIP3    H138134   3.174   1.047  15.005 -0.3424 -0.2305 -0.4692
 5573TIP3    H238135   3.275   1.157  14.977  0.0466 -0.6221 -0.6220
 5574TIP3   OH238136   4.746   5.621  13.818  0.0434  0.3079 -0.1284
 5574TIP3    H138137   4.825   5.666  13.849  0.0834 -0.2138  0.5503
 5574TIP3    H238138   4.689   5.692  13.788 -0.3051  0.9383  1.8261
 5575TIP3   OH238139   3.043   3.378  10.667 -0.8091 -0.0182  0.1728
 5575TIP3    H138140   3.073   3.297  10.709 -3.3440 -1.0651  0.1851
 5575TIP3    H238141   3.036   3.441  10.738 -1.3381 -0.6020  0.6484
 5576TIP3   OH238142   2.324   4.948   0.811  0.2731  0.0628  0.0078
 5576TIP3    H138143   2.283   4.862   0.804  0.9787 -0.2075 -0.9323
 5576TIP3    H238144   2.353   4.953   0.902 -0.5437 -0.3217  0.3018
 5577TIP3   OH238145   2.694   0.711  14.838 -0.3959  0.1011 -0.3986
 5577TIP3    H138146   2.610   0.756  14.830 -1.7783 -2.4563 -1.0558
 5577TIP3    H238147   2.680   0.625  14.799  2.4863 -0.5007 -0.3416
 5578TIP3   OH238148   0.723   4.859   6.070  0.5132 -0.0533 -0.2231
 5578TIP3    H138149   0.759   4.898   6.150 -1.6723  1.0209  0.3228
 5578TIP3    H238150   0.730   4.927   6.004 -2.3199  1.0428  0.4533
 5579TIP3   OH238151   3.382   4.478   3.289  0.3930 -0.5031 -0.6317
 5579TIP3    H138152   3.472   4.488   3.320  0.2416 -1.8675  0.3600
 5579TIP3    H238153   3.346   4.408   3.344 -1.3422  0.1584 -0.8766
 5580TIP3   OH238154   3.509   3.833   2.944 -0.0324 -0.2991  0.2874
 5580TIP3    H138155   3.558   3.753   2.959 -0.2270 -0.6969 -1.0764
 5580TIP3    H238156   3.426   3.820   2.990 -0.8332 -1.6942 -1.4355
 5581TIP3   OH238157   3.663   6.676  15.919 -0.0506  0.3826  0.5717
 5581TIP3    H138158   3.597   6.676  15.989  0.1119  0.2581  0.7272
 5581TIP3    H238159   3.740   6.717  15.959 -0.1091  0.7398  0.3191
 5582TIP3   OH238160   2.646   4.750   0.814 -0.0677  0.3975  0.2687
 5582TIP3    H138161   2.557   4.718   0.821 -0.0455  0.1162 -0.6439
 5582TIP3    H238162   2.698   4.672   0.795  0.5544  0.3586  1.9620
 5583TIP3   OH238163   0.579   3.904  16.815  0.2786 -0.6736  0.0610
 5583TIP3    H138164   0.643   3.844  16.853  0.9047 -1.4725 -2.1344
 5583TIP3    H238165   0.494   3.870  16.843  0.5237 -3.5036 -2.2084
 5584TIP3   OH238166   1.649   6.471  10.877 -0.3732  0.4036  0.0300
 5584TIP3    H138167   1.663   6.539  10.942 -0.6609  0.2363  0.2713
 5584TIP3    H238168   1.710   6.492  10.806  0.7147 -0.0252  0.8122
 5585TIP3   OH238169   6.596   4.985  11.888  0.0670 -0.6399  0.4784
 5585TIP3    H138170   6.547   5.067  11.893 -1.0257 -1.2496  0.0486
 5585TIP3    H238171   6.687   5.013  11.877 -0.3763  0.5329 -0.5319
 5586TIP3   OH238172   2.222   5.520   3.520  0.3247  0.2710 -0.0013
 5586TIP3    H138173   2.317   5.522   3.531  0.3143  0.8607  0.0185
 5586TIP3    H238174   2.198   5.611   3.500 -0.1887  0.0568 -0.3944
 5587TIP3   OH238175   4.719   3.663  17.217 -0.1263  0.5969  0.2592
 5587TIP3    H138176   4.648   3.600  17.233  0.0889  0.4181  0.5158
 5587TIP3    H238177   4.678   3.731  17.164 -0.6188  0.7364  0.8087
 5588TIP3   OH238178   6.325   5.055   3.451  0.6916  0.0955 -0.7644
 5588TIP3    H138179   6.416   5.025   3.453  0.2627 -1.5144 -2.5070
 5588TIP3    H238180   6.324   5.124   3.385  0.5673 -0.2147 -1.0887
 5589TIP3   OH238181   0.707   6.074  15.961  0.4249  0.0389 -0.0979
 5589TIP3    H138182   0.743   5.998  15.914  1.5899 -0.4999  1.5642
 5589TIP3    H238183   0.742   6.065  16.049 -1.3332  1.2638  0.7583
 5590TIP3   OH238184   4.657   0.581   0.251 -0.2279 -0.9348 -0.1226
 5590TIP3    H138185   4.716   0.622   0.314  1.6615 -0.0298 -2.3375
 5590TIP3    H238186   4.602   0.653   0.219  0.1454 -0.9818 -0.8906
 5591TIP3   OH238187   2.944   4.751   6.386 -0.0825 -0.7238  0.0310
 5591TIP3    H138188   2.889   4.691   6.437 -1.3787  1.1153  0.9194
 5591TIP3    H238189   2.992   4.802   6.452  1.5002 -1.2034 -0.7172
 5592TIP3   OH238190   4.805   5.842   1.700  0.4704 -0.4334 -0.3530
 5592TIP3    H138191   4.793   5.804   1.787  1.2981 -0.3996 -0.2162
 5592TIP3    H238192   4.717   5.850   1.665  0.2101 -1.8997 -0.1279
 5593TIP3   OH238193   0.796   2.922   4.497  0.0806  0.0706 -0.2111
 5593TIP3    H138194   0.757   2.943   4.412  0.8728 -0.4015 -0.7059
 5593TIP3    H238195   0.839   2.838   4.483  0.1609 -0.0438  0.6831
 5594TIP3   OH238196   4.002   5.295   0.827  0.1374  0.2233  0.4005
 5594TIP3    H138197   4.081   5.279   0.879  1.1573  1.1276 -0.8043
 5594TIP3    H238198   3.932   5.253   0.877  0.7110  2.5793  3.4966
 5595TIP3   OH238199   2.234   1.670   3.495  0.4795  0.0985 -0.1216
 5595TIP3    H138200   2.229   1.765   3.488 -0.5116 -0.0382 -1.6630
 5595TIP3    H238201   2.159   1.638   3.444  1.3835 -1.5357 -0.4940
 5596TIP3   OH238202   1.115   1.997   2.860  0.6049 -0.2900 -0.0471
 5596TIP3    H138203   1.183   1.954   2.911  0.7292 -0.4504 -0.3431
 5596TIP3    H238204   1.063   1.926   2.823  1.3877 -0.2332 -1.3133
 5597TIP3   OH238205   2.903   5.009   5.366  0.2859 -0.7008  0.0611
 5597TIP3    H138206   2.907   5.011   5.461 -0.7169  1.9186  0.1110
 5597TIP3    H238207   2.819   4.967   5.346 -0.6227  0.8657  0.4329
 5598TIP3   OH238208   0.361   5.143  16.570  0.6849 -0.1510 -0.6516
 5598TIP3    H138209   0.282   5.105  16.606  0.4345  1.5295  0.7283
 5598TIP3    H238210   0.343   5.153  16.476  0.2748 -2.0602 -0.8140
 5599TIP3   OH238211   3.657   3.770  16.572 -0.5409  0.2892  0.0190
 5599TIP3    H138212   3.589   3.705  16.553  0.5407 -1.0808  0.6981
 5599TIP3    H238213   3.681   3.805  16.486 -0.4223 -0.9501 -0.4656
 5600TIP3   OH238214   0.733   5.919   5.897  0.0636  0.9078 -0.3345
 5600TIP3    H138215   0.818   5.911   5.854 -0.0436 -0.5977 -0.3200
 5600TIP3    H238216   0.715   5.831   5.930 -0.9184  1.5067  0.7773
 5601TIP3   OH238217   0.663   5.985   5.165 -0.7454 -0.0741 -0.7235
 5601TIP3    H138218   0.751   6.007   5.135 -0.5078 -0.6351 -0.4426
 5601TIP3    H238219   0.655   6.028   5.250  0.2186 -2.1151  0.4670
 5602TIP3   OH238220   2.560   2.510   4.812 -0.3712 -0.3740 -0.2453
 5602TIP3    H138221   2.497   2.526   4.742  0.1697  1.4040 -0.3657
 5602TIP3    H238222   2.519   2.441   4.866 -2.3954  0.6710 -0.3449
 5603TIP3   OH238223   0.104   1.979  16.717  0.0928 -0.1590  0.0653
 5603TIP3    H138224   0.158   1.935  16.652  0.7101  1.2357 -0.4134
 5603TIP3    H238225   0.024   2.002  16.669  1.3436  2.6586 -0.8943
 5604TIP3   OH238226   2.163   0.364  16.085  0.1156  0.7673  0.1987
 5604TIP3    H138227   2.130   0.342  16.172 -0.9061  0.3116 -0.2900
 5604TIP3    H238228   2.251   0.325  16.083  0.4722  1.4574  1.2946
 5605TIP3   OH238229   0.744   1.152  11.521 -0.3130  0.2924 -0.2852
 5605TIP3    H138230   0.659   1.171  11.480 -1.3874  0.7424  2.0210
 5605TIP3    H238231   0.777   1.237  11.548  1.3377  0.2251 -1.8756
 5606TIP3   OH238232   4.503   0.942  14.596 -0.2327 -0.0748 -0.1266
 5606TIP3    H138233   4.424   0.983  14.558 -0.7026 -0.9877 -0.1531
 5606TIP3    H238234   4.515   0.862  14.546  0.3773 -0.2383  0.2779
 5607TIP3   OH238235   3.483   1.159  14.913 -0.3907 -0.0386 -0.4219
 5607TIP3    H138236   3.575   1.142  14.933 -0.1740  0.7542 -0.6953
 5607TIP3    H238237   3.453   1.216  14.984  0.1035  1.9516 -1.7061
 5608TIP3   OH238238   2.690   1.573   3.145 -0.4445 -0.0742  0.1883
 5608TIP3    H138239   2.702   1.490   3.191 -0.7200 -0.2334 -0.0229
 5608TIP3    H238240   2.725   1.639   3.205 -0.4248 -0.3187  0.4493
 5609TIP3   OH238241   6.045   2.853   5.762 -0.5117 -0.2415  0.3953
 5609TIP3    H138242   6.069   2.941   5.734 -1.4772 -0.6813 -2.0061
 5609TIP3    H238243   5.994   2.867   5.842  0.5791  1.2364  0.8870
 5610TIP3   OH238244   1.266   0.127  14.339 -0.5033  0.0690  0.1677
 5610TIP3    H138245   1.238   0.158  14.253 -0.3807 -1.5160 -0.4951
 5610TIP3    H238246   1.244   0.033  14.339 -1.1862  0.1743  2.1578
 5611TIP3   OH238247   4.272   1.809   3.603 -0.0136 -0.1463 -0.2027
 5611TIP3    H138248   4.279   1.867   3.679 -1.8118 -1.1958  0.8625
 5611TIP3    H238249   4.362   1.795   3.574  0.6060  1.4223  0.8504
 5612TIP3   OH238250   3.246   4.734   3.219 -0.3241 -0.2543  0.1211
 5612TIP3    H138251   3.163   4.729   3.266 -0.7306  0.1183 -0.5452
 5612TIP3    H238252   3.285   4.647   3.231 -2.5182 -1.8053 -2.6434
 5613TIP3   OH238253   3.884   0.618   6.023 -0.7411  0.1803  0.1495
 5613TIP3    H138254   3.876   0.530   6.059 -0.2422 -1.0657 -2.5116
 5613TIP3    H238255   3.978   0.637   6.027 -0.7966  0.4393  0.3194
 5614TIP3   OH238256   5.279   0.363  13.284 -0.5689 -0.6196  0.3768
 5614TIP3    H138257   5.346   0.429  13.268 -0.9714 -0.2030  0.3965
 5614TIP3    H238258   5.318   0.306  13.351 -0.1011 -0.5831  0.1385
 5615TIP3   OH238259   0.053   4.708   4.011  0.9088  0.0134  0.7085
 5615TIP3    H138260  -0.009   4.755   3.955  2.5471  1.3470 -0.0996
 5615TIP3    H238261  -0.001   4.647   4.061 -1.3925  2.5854  1.6600
 5616TIP3   OH238262   5.625   4.454   3.791 -0.0296 -0.2068 -0.4627
 5616TIP3    H138263   5.665   4.454   3.878 -1.9138  1.9688  0.5112
 5616TIP3    H238264   5.560   4.383   3.795 -0.5264  0.2718  0.1429
 5617TIP3   OH238265   5.399   3.476  17.371  0.2313  0.0996 -0.5945
 5617TIP3    H138266   5.318   3.445  17.331 -0.6694 -0.7854  1.7400
 5617TIP3    H238267   5.468   3.426  17.326 -0.5325  0.4397 -2.2046
 5618TIP3   OH238268   2.772   5.260  16.979  0.0608  0.2076  0.1326
 5618TIP3    H138269   2.838   5.236  17.044 -0.0648  2.9765  1.4427
 5618TIP3    H238270   2.691   5.219  17.012  0.3628  0.0395  0.6831
 5619TIP3   OH238271   2.640   1.279  12.370 -0.3169 -0.0947  0.1517
 5619TIP3    H138272   2.708   1.270  12.303 -0.9485 -1.1382 -0.3657
 5619TIP3    H238273   2.629   1.374  12.380 -0.6991  0.1042 -1.7485
 5620TIP3   OH238274   4.584   5.711   2.416  0.4298 -0.3173 -0.0556
 5620TIP3    H138275   4.621   5.623   2.418 -0.0860 -0.6292 -1.7894
 5620TIP3    H238276   4.495   5.698   2.382 -0.6109  0.6118  2.1787
 5621TIP3   OH238277   5.965   4.141  14.087  0.3178  0.0618 -0.4110
 5621TIP3    H138278   6.010   4.069  14.131 -1.5437 -0.0312  1.4933
 5621TIP3    H238279   5.881   4.104  14.059  0.4142  0.8205 -1.8239
 5622TIP3   OH238280   5.095   0.134  16.080 -0.0190  0.2427 -0.0001
 5622TIP3    H138281   5.005   0.164  16.069 -0.5389 -0.2679  2.3060
 5622TIP3    H238282   5.145   0.184  16.015 -1.6399  2.1068  0.0894
 5623TIP3   OH238283   5.434   3.571  12.088 -0.3944  0.0707 -0.3053
 5623TIP3    H138284   5.344   3.592  12.065 -0.9811 -1.7370  0.1666
 5623TIP3    H238285   5.470   3.653  12.123 -1.4911  1.1048 -1.5012
 5624TIP3   OH238286   0.750   3.017   0.594 -0.0411  0.6690  0.1679
 5624TIP3    H138287   0.836   3.056   0.610 -0.5024  1.2615  1.2939
 5624TIP3    H238288   0.769   2.925   0.573  0.7906  0.3483  2.0920
 5625TIP3   OH238289   0.422   2.073   4.885 -0.2129 -0.4535 -0.5834
 5625TIP3    H138290   0.435   2.064   4.790  1.7250 -0.7637 -0.3186
 5625TIP3    H238291   0.327   2.076   4.895 -0.4649  0.1569 -2.5876
 5626TIP3   OH238292   5.818   3.446   5.528  0.6969 -0.0550 -0.1860
 5626TIP3    H138293   5.789   3.357   5.544 -1.4062  0.7020  0.5860
 5626TIP3    H238294   5.855   3.475   5.611 -2.0856  0.9403  0.8504
 5627TIP3   OH238295   4.793   6.460   1.358 -0.0295  0.3380  0.0568
 5627TIP3    H138296   4.824   6.382   1.311  0.0163  0.5249 -0.2226
 5627TIP3    H238297   4.865   6.522   1.352  0.9707 -0.4884  2.4544
 5628TIP3   OH238298   0.942   0.281  17.228  0.3657  0.0911 -0.2601
 5628TIP3    H138299   0.865   0.246  17.183  0.2463 -0.3391  0.2677
 5628TIP3    H238300   0.909   0.309  17.313  0.4761  1.4304 -0.6327
 5629TIP3   OH238301   3.015   5.634   3.699 -0.5020 -0.2795 -0.0897
 5629TIP3    H138302   3.071   5.637   3.622  1.1081 -0.4100  1.0003
 5629TIP3    H238303   3.009   5.725   3.729 -0.8724 -0.2657 -0.2078
 5630TIP3   OH238304   5.651   3.517  14.501  0.4939 -0.1462  0.2898
 5630TIP3    H138305   5.713   3.551  14.565  1.0013 -0.1752 -0.1796
 5630TIP3    H238306   5.604   3.595  14.470 -0.4772 -0.2442  1.4262
 5631TIP3   OH238307   1.744   6.360   4.718 -0.6741  0.0341 -0.5452
 5631TIP3    H138308   1.652   6.347   4.695 -1.1004  1.2822  0.3561
 5631TIP3    H238309   1.786   6.277   4.695 -2.1849 -0.8925 -0.1061
 5632TIP3   OH238310   0.738   5.924  17.050 -0.1561 -0.0043  0.3776
 5632TIP3    H138311   0.832   5.922  17.068 -0.0272 -0.7494 -0.3267
 5632TIP3    H238312   0.697   5.911  17.135  0.3499  1.0609  0.8119
 5633TIP3   OH238313   3.419   1.161  14.461 -0.0216  0.0412  0.4534
 5633TIP3    H138314   3.409   1.223  14.388  0.9203  0.7644  0.9091
 5633TIP3    H238315   3.331   1.126  14.475 -0.1449 -0.4699 -1.3237
 5634TIP3   OH238316   1.695   6.688   1.954  0.4226  0.0180 -0.4157
 5634TIP3    H138317   1.701   6.636   1.874 -0.2120  0.6108 -0.8659
 5634TIP3    H238318   1.601   6.696   1.970  0.5337  0.3713  0.0700
 5635TIP3   OH238319   6.520   5.274   3.379 -0.6364 -0.0484 -0.7144
 5635TIP3    H138320   6.563   5.193   3.406 -0.6477  0.0417 -0.4275
 5635TIP3    H238321   6.456   5.246   3.313 -0.9435 -0.3304 -0.3021
 5636TIP3   OH238322   2.135   3.309   4.352  0.2262 -0.9155  0.0754
 5636TIP3    H138323   2.062   3.257   4.384 -0.1456 -0.8004 -0.5650
 5636TIP3    H238324   2.125   3.309   4.257  1.1015 -0.9585 -0.0240
 5637TIP3   OH238325   0.620   0.848  14.947 -0.1865 -0.0734 -0.2730
 5637TIP3    H138326   0.674   0.791  14.892 -1.6177 -0.4070 -1.3852
 5637TIP3    H238327   0.547   0.793  14.973 -1.4400  1.1263 -1.1166
 5638TIP3   OH238328   2.414   6.143  11.933 -0.1378 -0.2274 -0.2788
 5638TIP3    H138329   2.326   6.151  11.969  0.7418  0.7545  1.8254
 5638TIP3    H238330   2.408   6.182  11.846 -1.5356  0.8844  0.2846
 5639TIP3   OH238331   3.369   1.996   1.443  0.6671 -0.3950 -0.5633
 5639TIP3    H138332   3.285   1.951   1.439 -0.5458  1.5759  0.9477
 5639TIP3    H238333   3.358   2.072   1.386  1.4369 -0.1138 -0.3491
 5640TIP3   OH238334   2.314   5.727   5.696 -0.1879 -0.1413  0.0088
 5640TIP3    H138335   2.383   5.788   5.721 -0.1425 -0.3442  0.3905
 5640TIP3    H238336   2.270   5.769   5.622  0.3110  0.0112 -0.2066
 5641TIP3   OH238337   3.271   4.897   0.139 -0.2401 -0.1375  0.4247
 5641TIP3    H138338   3.231   4.910   0.052 -1.0885  0.2100  0.8560
 5641TIP3    H238339   3.197   4.885   0.198  0.3106  0.2062  1.2023
 5642TIP3   OH238340   0.018   2.469  14.885  0.5494 -0.1422  0.3663
 5642TIP3    H138341  -0.047   2.425  14.941  0.2993 -0.4404 -0.1537
 5642TIP3    H238342   0.101   2.458  14.932  0.7171 -2.2489 -0.3222
 5643TIP3   OH238343   5.166   5.853   0.122 -0.0674 -0.4223 -0.2331
 5643TIP3    H138344   5.144   5.945   0.110 -0.8713 -0.6461 -0.5288
 5643TIP3    H238345   5.250   5.842   0.078 -0.3683 -0.0145 -0.9232
 5644TIP3   OH238346   6.002   6.258  13.460  0.3556 -0.1136 -0.3187
 5644TIP3    H138347   5.950   6.193  13.507  1.4930 -0.7863  0.0408
 5644TIP3    H238348   6.089   6.252  13.499  1.0112  0.1829 -1.6897
 5645TIP3   OH238349   5.418   1.361   0.592  0.0984 -0.1084 -0.3442
 5645TIP3    H138350   5.394   1.282   0.543  0.7353  0.0723 -0.9695
 5645TIP3    H238351   5.404   1.433   0.530 -1.6949  0.4326  0.6158
 5646TIP3   OH238352   5.955   2.868  17.118 -0.1130 -0.2929 -0.3051
 5646TIP3    H138353   6.048   2.864  17.096 -0.0660 -3.5012 -0.0611
 5646TIP3    H238354   5.911   2.838  17.038 -0.7487 -0.8965  0.2603
 5647TIP3   OH238355   3.486   6.352   2.399  0.2338  0.0493 -0.6099
 5647TIP3    H138356   3.434   6.287   2.351  0.8176 -1.9501  1.3002
 5647TIP3    H238357   3.521   6.409   2.331 -1.6492 -0.6030 -2.2422
 5648TIP3   OH238358   5.149   4.723  12.642 -0.5866  0.2280  0.3092
 5648TIP3    H138359   5.131   4.652  12.580  0.1903  0.6529 -0.4259
 5648TIP3    H238360   5.075   4.783  12.633 -0.0303  0.7699 -0.9412
 5649TIP3   OH238361   3.634   0.831  13.643 -0.4892  0.4172  0.1229
 5649TIP3    H138362   3.659   0.883  13.566 -0.7906 -1.2025 -1.1123
 5649TIP3    H238363   3.714   0.785  13.668 -0.8724 -0.5795 -0.4583
 5650TIP3   OH238364   5.153   5.524   1.259  0.3174  0.5724  0.3072
 5650TIP3    H138365   5.148   5.608   1.304  1.1413  0.5480  0.4606
 5650TIP3    H238366   5.064   5.490   1.261  0.4262  0.3106  2.4442
 5651TIP3   OH238367   3.657   5.162   3.626  0.3939  1.0808 -0.0279
 5651TIP3    H138368   3.638   5.131   3.714 -0.5027 -0.6040 -0.7668
 5651TIP3    H238369   3.746   5.132   3.608 -0.6227 -1.7450 -0.9156
 5652TIP3   OH238370   0.786   5.933  14.408  0.8195 -0.7379 -0.1941
 5652TIP3    H138371   0.830   5.940  14.493  0.0471 -1.7495  0.3046
 5652TIP3    H238372   0.845   5.978  14.347  1.7534 -0.6521  0.7407
 5653TIP3   OH238373   3.847   5.833  17.331  0.4037  0.3460 -0.0321
 5653TIP3    H138374   3.927   5.787  17.355  0.9810  0.4858 -1.5608
 5653TIP3    H238375   3.829   5.891  17.405  0.6209 -1.0609  1.1688
 5654TIP3   OH238376   1.512   1.507  15.487 -0.0724  0.0870 -0.2522
 5654TIP3    H138377   1.491   1.451  15.561  1.7569 -0.2515  0.0605
 5654TIP3    H238378   1.552   1.585  15.526  0.3503  0.1749 -0.8390
 5655TIP3   OH238379   1.876   1.042   3.655  0.1769  0.1543  0.3953
 5655TIP3    H138380   1.959   1.007   3.622 -0.7103 -1.1781 -0.5415
 5655TIP3    H238381   1.870   1.009   3.744 -0.2733 -1.5387 -0.2165
 5656TIP3   OH238382   5.832   3.152   4.526  0.4595  0.4467 -0.4071
 5656TIP3    H138383   5.770   3.079   4.534  0.0465  0.6347 -1.6376
 5656TIP3    H238384   5.780   3.229   4.550  1.2704  0.2462  2.2942
 5657TIP3   OH238385   5.736   5.054  15.914 -0.0552  0.3315 -0.1982
 5657TIP3    H138386   5.740   5.048  15.819 -0.5495  0.1212 -0.2065
 5657TIP3    H238387   5.686   5.134  15.930  0.1632  0.4516 -0.1123
 5658TIP3   OH238388   2.110   0.408  13.785 -0.4205  0.1236  0.3087
 5658TIP3    H138389   2.024   0.408  13.742 -0.0297 -1.1596 -0.5503
 5658TIP3    H238390   2.095   0.450  13.869 -1.8371  0.1576  0.0646
 5659TIP3   OH238391   5.088   1.507   4.880 -0.2389  0.1419  0.2491
 5659TIP3    H138392   5.005   1.462   4.865 -0.4622  0.5953  0.1062
 5659TIP3    H238393   5.119   1.532   4.793 -0.4476  0.8454  0.3717
 5660TIP3   OH238394   0.715   0.816  14.505 -0.8507  0.0288 -0.1390
 5660TIP3    H138395   0.781   0.884  14.517  0.2040 -1.2094  1.3314
 5660TIP3    H238396   0.758   0.749  14.452 -0.2264 -1.6126  2.3012
 5661TIP3   OH238397   3.583   2.485   2.596 -0.0496  0.4158  0.2438
 5661TIP3    H138398   3.507   2.436   2.565 -0.0928  1.0747 -0.7263
 5661TIP3    H238399   3.637   2.499   2.518  2.2149 -1.9137  1.2463
 5662TIP3   OH238400   0.564   3.570  15.626  0.0515 -0.0308  0.1505
 5662TIP3    H138401   0.529   3.645  15.674  0.4086  0.7239 -0.7707
 5662TIP3    H238402   0.494   3.504  15.633 -0.4997  0.5730  0.4891
 5663TIP3   OH238403   2.345   1.438  15.486 -0.3467  0.6012  0.1868
 5663TIP3    H138404   2.300   1.505  15.435 -1.5419  0.0198  0.4481
 5663TIP3    H238405   2.318   1.355  15.447  1.7328  0.2631 -0.6277
 5664TIP3   OH238406   3.093   6.730   4.207  0.3381  0.0140 -0.1214
 5664TIP3    H138407   3.185   6.743   4.183  0.5978  0.0304  0.8056
 5664TIP3    H238408   3.095   6.725   4.303 -0.7305  0.8026 -0.0443
 5665TIP3   OH238409   6.133   6.709  16.770  0.0738  0.3228  0.2355
 5665TIP3    H138410   6.091   6.775  16.715 -0.5048  0.0234  0.3144
 5665TIP3    H238411   6.193   6.664  16.711  1.4149  1.7311  0.4647
 5666TIP3   OH238412   4.953   6.731   2.509 -0.8243 -0.3716 -0.6545
 5666TIP3    H138413   4.989   6.670   2.574 -0.5842 -1.6401 -1.9083
 5666TIP3    H238414   5.011   6.807   2.512  1.4897 -1.9505 -1.9307
 5667TIP3   OH238415   3.547   0.581   1.748  0.3391 -0.1326 -0.1308
 5667TIP3    H138416   3.582   0.604   1.662  0.2411 -0.1737 -0.1823
 5667TIP3    H238417   3.483   0.649   1.766 -3.0511 -2.4597 -2.1288
 5668TIP3   OH238418   2.626   2.027   1.156 -0.4034  0.3086  0.4084
 5668TIP3    H138419   2.677   2.077   1.219 -0.1881 -0.8079  1.1656
 5668TIP3    H238420   2.599   1.949   1.204 -1.5485  0.1551 -0.4338
 5669TIP3   OH238421   6.231   1.605  16.350 -0.1438 -0.0819 -0.0919
 5669TIP3    H138422   6.178   1.678  16.382 -2.1157 -1.0562 -0.9941
 5669TIP3    H238423   6.207   1.531  16.406  0.5559 -0.4594 -0.2793
 5670TIP3   OH238424   1.408   6.470   4.113  0.0012 -0.1687  0.8488
 5670TIP3    H138425   1.433   6.472   4.021 -0.3623  0.1322  0.7514
 5670TIP3    H238426   1.372   6.383   4.127  0.9617 -0.5599  0.9584
 5671TIP3   OH238427   2.115   0.072   5.573 -0.4533  0.1089  0.2894
 5671TIP3    H138428   2.088  -0.019   5.579  0.7693 -0.3169 -0.2925
 5671TIP3    H238429   2.191   0.071   5.515  1.1747  1.1513  2.2851
 5672TIP3   OH238430   1.409   3.699   4.003 -0.0462  0.9602 -0.1435
 5672TIP3    H138431   1.489   3.688   3.951 -0.3681  0.1859 -0.4924
 5672TIP3    H238432   1.431   3.660   4.088  0.0286  0.9851 -0.1509
 5673TIP3   OH238433   6.609   5.870  15.582 -0.1194 -0.1717  0.4673
 5673TIP3    H138434   6.575   5.941  15.635 -0.7397  1.1836 -1.6354
 5673TIP3    H238435   6.545   5.800  15.590  0.7899 -0.8143  3.0298
 5674TIP3   OH238436   2.223   4.479   3.349  0.0612 -0.7801  0.2968
 5674TIP3    H138437   2.193   4.420   3.280  1.3529 -0.3447 -0.6851
 5674TIP3    H238438   2.318   4.464   3.353  0.2850  0.6321  0.6027
 5675TIP3   OH238439   5.971   0.418  13.440  0.4279 -0.0928  0.0593
 5675TIP3    H138440   5.947   0.503  13.476 -0.3283 -0.4928  0.5193
 5675TIP3    H238441   6.028   0.439  13.366 -2.2116  0.9682 -1.8298
 5676TIP3   OH238442   0.274   0.174   3.927  0.4069  0.3401  0.1494
 5676TIP3    H138443   0.201   0.191   3.869  0.7212  0.0249 -0.3422
 5676TIP3    H238444   0.350   0.162   3.869  0.7336  0.0823  0.6163
 5677TIP3   OH238445   4.174   2.366  17.004 -0.3123 -0.4338 -0.0385
 5677TIP3    H138446   4.162   2.451  17.045 -0.0184 -1.3293  2.0362
 5677TIP3    H238447   4.231   2.383  16.929  0.7852  1.0107  1.0682
 5678TIP3   OH238448   5.942   2.620   2.415  0.3468 -0.2831  0.0588
 5678TIP3    H138449   5.946   2.525   2.410 -0.9422 -0.3377 -0.3273
 5678TIP3    H238450   5.856   2.643   2.379  0.9768  1.0920 -0.6899
 5679TIP3   OH238451   2.118   5.490   0.366 -0.3781 -0.0803  0.1251
 5679TIP3    H138452   2.041   5.504   0.421 -0.2376  0.7855  0.1122
 5679TIP3    H238453   2.169   5.424   0.412 -0.3674  0.4820  0.9375
 5680TIP3   OH238454   0.946   1.987  12.226  0.0107 -0.0113 -0.3325
 5680TIP3    H138455   0.954   1.922  12.156 -0.4367  0.1716 -0.5567
 5680TIP3    H238456   1.031   2.031  12.227 -0.6666  1.4965 -2.2790
 5681TIP3   OH238457   1.638   2.789  15.544  0.1304 -0.2043  0.4935
 5681TIP3    H138458   1.669   2.874  15.575  1.7014  0.0661 -1.5590
 5681TIP3    H238459   1.703   2.727  15.577  1.5422  0.0288 -1.6356
 5682TIP3   OH238460   3.503   5.392   0.191  0.4847 -0.1764 -0.4290
 5682TIP3    H138461   3.546   5.411   0.274 -0.4154  1.9708 -0.3990
 5682TIP3    H238462   3.558   5.436   0.125  0.7168 -1.1367 -0.8955
 5683TIP3   OH238463   0.174   5.643  13.943 -0.2499 -0.4426 -0.4473
 5683TIP3    H138464   0.127   5.573  13.989 -1.6276 -0.0567 -1.2077
 5683TIP3    H238465   0.229   5.596  13.879 -0.7413 -0.8527 -0.5761
 5684TIP3   OH238466   3.006   1.470  16.862  0.6070  0.4540  0.2243
 5684TIP3    H138467   3.051   1.441  16.942  0.9763  1.0386  0.2327
 5684TIP3    H238468   2.925   1.511  16.894  0.3348 -0.0878  0.2432
 5685TIP3   OH238469   4.791   1.322  14.037  0.3183 -0.5586  0.1084
 5685TIP3    H138470   4.709   1.289  14.073 -0.7203  1.7843  0.0648
 5685TIP3    H238471   4.772   1.340  13.945  1.1939 -0.9206 -0.1603
 5686TIP3   OH238472   6.471   3.818   0.570 -0.0914 -0.4013  0.1747
 5686TIP3    H138473   6.430   3.820   0.656 -2.0789 -1.7095 -0.6801
 5686TIP3    H238474   6.522   3.899   0.566 -1.0050  0.3279  2.0555
 5687TIP3   OH238475   3.715   4.236  12.406  0.3923 -0.1021  0.3473
 5687TIP3    H138476   3.798   4.208  12.445 -0.0889 -0.9961  0.7654
 5687TIP3    H238477   3.655   4.242  12.481  0.0474  0.4203  0.0313
 5688TIP3   OH238478   2.534   0.557  15.801  0.0924 -0.1553 -0.4518
 5688TIP3    H138479   2.556   0.627  15.739  0.1329  0.2193 -0.0161
 5688TIP3    H238480   2.603   0.562  15.868 -1.2013  0.9368  0.8498
 5689TIP3   OH238481   0.745   2.800  15.947  0.1769  0.2019  0.5000
 5689TIP3    H138482   0.824   2.837  15.986  0.6087 -1.2851  1.0989
 5689TIP3    H238483   0.686   2.785  16.021  0.9195 -2.4449  0.6345
 5690TIP3   OH238484   3.432   4.606  16.004  0.1269  0.7168  0.6449
 5690TIP3    H138485   3.362   4.576  16.062 -0.5711  0.1945 -0.4259
 5690TIP3    H238486   3.470   4.525  15.969  0.3380  1.0217  0.1604
 5691TIP3   OH238487   0.852   2.228   3.308  0.5838 -0.4040  0.3800
 5691TIP3    H138488   0.820   2.231   3.397  0.0516  3.5530  0.2440
 5691TIP3    H238489   0.941   2.264   3.313  0.3291  0.4428 -0.7083
 5692TIP3   OH238490   4.629   6.178   3.193  0.3205  0.0945 -0.2311
 5692TIP3    H138491   4.622   6.246   3.260 -0.0964 -0.5195  0.3496
 5692TIP3    H238492   4.635   6.227   3.110 -0.0285  0.8334  0.1724
 5693TIP3   OH238493   6.169   1.988  12.814 -0.6150 -1.0089  0.3160
 5693TIP3    H138494   6.164   1.898  12.783  0.5039 -1.2683  0.8175
 5693TIP3    H238495   6.238   1.987  12.880 -0.1137  0.3516 -0.1381
 5694TIP3   OH238496   1.846   6.666   3.168  0.6947 -0.0159 -0.5038
 5694TIP3    H138497   1.870   6.598   3.231  0.6283 -0.8020 -1.3231
 5694TIP3    H238498   1.926   6.682   3.118  1.0486  1.3604  0.4425
 5695TIP3   OH238499   3.950   2.555   4.716  0.3232 -0.3289 -0.4444
 5695TIP3    H138500   3.943   2.519   4.804  0.4033  0.2032 -0.2169
 5695TIP3    H238501   3.959   2.479   4.659  0.2760 -0.6732  0.0078
 5696TIP3   OH238502   2.569   3.627   0.666 -0.7665 -1.1165 -0.3753
 5696TIP3    H138503   2.647   3.682   0.661 -0.2574 -1.8104 -0.1707
 5696TIP3    H238504   2.539   3.619   0.575  0.6584 -2.6003 -0.7656
 5697TIP3   OH238505   4.542   1.975  14.889 -0.1995 -0.1958  0.6852
 5697TIP3    H138506   4.455   2.006  14.863  0.1565  0.1615 -0.1354
 5697TIP3    H238507   4.525   1.897  14.942 -1.0407  0.3218  1.2016
 5698TIP3   OH238508   6.454   4.706   1.340 -0.3817 -0.0005  0.8009
 5698TIP3    H138509   6.388   4.661   1.286  0.5330 -0.7523  0.2823
 5698TIP3    H238510   6.518   4.638   1.361  1.4258  1.2000 -0.5925
 5699TIP3   OH238511   4.435   4.760   2.668 -0.5302 -0.4799  0.3781
 5699TIP3    H138512   4.442   4.713   2.585 -2.8828 -2.1275  0.9993
 5699TIP3    H238513   4.410   4.849   2.643  1.4197 -0.1880 -0.7289
 5700TIP3   OH238514   0.842   6.379  14.565 -0.1309 -0.1353 -0.3142
 5700TIP3    H138515   0.809   6.458  14.608 -0.1699 -0.7653  0.8350
 5700TIP3    H238516   0.931   6.369  14.599  0.3728  0.1558 -1.4894
 5701TIP3   OH238517   2.396   4.474  13.809 -0.5026 -0.3495 -0.1225
 5701TIP3    H138518   2.417   4.381  13.824  0.7313  0.1056  1.2713
 5701TIP3    H238519   2.306   4.484  13.839 -0.5710 -1.0710 -0.0769
 5702TIP3   OH238520   1.912   5.619   6.388  0.2168 -0.5734 -0.4281
 5702TIP3    H138521   1.833   5.672   6.400  0.8699  0.1922  0.6513
 5702TIP3    H238522   1.889   5.534   6.427 -0.2811 -0.5723 -0.7012
 5703TIP3   OH238523   5.357   2.292   0.082  0.2411 -0.2509  0.3190
 5703TIP3    H138524   5.403   2.366   0.042 -2.9397  1.0796 -1.2400
 5703TIP3    H238525   5.357   2.312   0.176  0.1378  1.3876  0.0093
 5704TIP3   OH238526   3.739   4.846  11.937 -0.2262 -0.4962 -0.0628
 5704TIP3    H138527   3.704   4.841  11.848 -0.3297  2.4949 -0.2886
 5704TIP3    H238528   3.828   4.813  11.929 -0.9074 -2.2556 -0.7997
 5705TIP3   OH238529   5.212   4.725   1.778  0.0503  0.0091 -0.1367
 5705TIP3    H138530   5.133   4.671   1.772  0.2841 -0.5629  1.6326
 5705TIP3    H238531   5.254   4.715   1.692 -1.6796  0.1843 -1.0504
 5706TIP3   OH238532   5.361   0.113  13.385  0.4959  0.0363 -0.5953
 5706TIP3    H138533   5.388   0.043  13.445 -0.7387 -1.0352 -1.2126
 5706TIP3    H238534   5.442   0.141  13.343  1.0394 -1.0209 -0.3093
 5707TIP3   OH238535   5.473   3.635  14.731  0.0334 -0.8972 -0.2300
 5707TIP3    H138536   5.440   3.593  14.651 -1.1075 -0.2601 -0.1138
 5707TIP3    H238537   5.402   3.626  14.794 -0.2383  1.1696 -0.1909
 5708TIP3   OH238538   6.455   2.047  15.244 -0.1454 -0.4701 -0.1282
 5708TIP3    H138539   6.532   2.003  15.209  0.1024  2.0784 -3.1676
 5708TIP3    H238540   6.489   2.114  15.303 -0.1554 -0.5235 -0.0616
 5709TIP3   OH238541   6.574   5.056   0.318  0.1386 -0.3268 -0.6532
 5709TIP3    H138542   6.655   5.107   0.321  0.2782 -0.5850  0.0959
 5709TIP3    H238543   6.523   5.097   0.248  0.2200  0.8756 -0.0282
 5710TIP3   OH238544   1.852   4.200   0.839  0.9567 -0.0756  0.2052
 5710TIP3    H138545   1.760   4.208   0.815  1.0288 -0.7544 -0.3144
 5710TIP3    H238546   1.897   4.181   0.757  1.3197 -1.5878  0.7264
 5711TIP3   OH238547   3.866   2.331   2.765 -0.4750 -0.0317 -0.2445
 5711TIP3    H138548   3.927   2.263   2.793  0.2770  0.4108 -0.7851
 5711TIP3    H238549   3.814   2.291   2.696 -2.3178 -1.1237  1.6484
 5712TIP3   OH238550   3.850   0.399   2.841 -0.2080 -0.1382 -0.0670
 5712TIP3    H138551   3.885   0.315   2.810 -0.0325 -0.1481  0.1509
 5712TIP3    H238552   3.925   0.442   2.882 -0.6675 -0.5835  1.2902
 5713TIP3   OH238553   5.426   5.350   5.208  0.0377  0.6214  0.2076
 5713TIP3    H138554   5.424   5.255   5.221 -2.4811  0.5697  0.0594
 5713TIP3    H238555   5.445   5.385   5.295  1.2038  0.0078  0.2224
 5714TIP3   OH238556   5.892   1.493   6.009 -0.1999  0.0626 -0.0222
 5714TIP3    H138557   5.906   1.487   6.103  1.0345 -0.6471 -0.2191
 5714TIP3    H238558   5.834   1.420   5.989 -0.7172  0.4036  0.2301
 5715TIP3   OH238559   4.348   1.167  10.812 -0.5021 -0.0422  0.0290
 5715TIP3    H138560   4.413   1.155  10.881 -0.2139  0.2227 -0.1922
 5715TIP3    H238561   4.399   1.194  10.736 -0.8368 -0.1710 -0.2405
 5716TIP3   OH238562   2.572   3.882   2.265 -0.2459  0.3620  0.2790
 5716TIP3    H138563   2.565   3.795   2.225  4.4193 -0.3816  0.5474
 5716TIP3    H238564   2.604   3.865   2.354  0.3534  2.3586  0.4824
 5717TIP3   OH238565   4.881   3.191  12.384  0.0503  0.4139 -0.6185
 5717TIP3    H138566   4.935   3.121  12.349  1.2630  0.5746  0.8485
 5717TIP3    H238567   4.936   3.269  12.378 -0.6000  0.8894 -0.5307
 5718TIP3   OH238568   3.589   4.091   4.131 -0.0866 -0.4980 -0.4739
 5718TIP3    H138569   3.509   4.080   4.182  0.5102 -0.0846  0.5848
 5718TIP3    H238570   3.583   4.025   4.062 -0.7083 -1.3725  0.3959
 5719TIP3   OH238571   0.289   4.376  12.078 -0.6279 -0.0178 -0.3885
 5719TIP3    H138572   0.360   4.376  12.013 -0.5258  1.0467 -0.2877
 5719TIP3    H238573   0.304   4.296  12.129  2.4160  1.6291  1.6429
 5720TIP3   OH238574   5.221   1.267   4.236 -0.6816  0.6920 -0.8330
 5720TIP3    H138575   5.166   1.199   4.196 -0.0440  0.4217 -1.2593
 5720TIP3    H238576   5.311   1.241   4.216 -0.4349  1.9043 -1.4052
 5721TIP3   OH238577   2.429   1.717  11.864 -0.5231 -0.6506 -0.2000
 5721TIP3    H138578   2.518   1.706  11.832  0.0711 -0.3292  1.2311
 5721TIP3    H238579   2.374   1.704  11.788  0.7565 -0.6817 -1.1536
 5722TIP3   OH238580   6.482   6.154  16.315  0.1455  0.2671 -0.5527
 5722TIP3    H138581   6.424   6.085  16.281  1.5157 -0.6896 -1.0638
 5722TIP3    H238582   6.486   6.137  16.409  0.7336 -0.6014 -0.7150
 5723TIP3   OH238583   5.885   4.896   0.299  0.4972  0.4686  0.5864
 5723TIP3    H138584   5.890   4.926   0.390 -0.0029  2.3043  0.0596
 5723TIP3    H238585   5.795   4.914   0.272  0.5753 -0.2494 -0.2205
 5724TIP3   OH238586   2.583   6.633  12.136  0.6866 -0.0120 -0.6198
 5724TIP3    H138587   2.556   6.710  12.087 -0.1773  0.5155  0.6218
 5724TIP3    H238588   2.533   6.560  12.098 -0.2525  0.4500 -0.2929
 5725TIP3   OH238589   4.739   5.275  11.699  0.3236  0.1079  0.0770
 5725TIP3    H138590   4.730   5.265  11.604 -0.4402  0.4685  0.1009
 5725TIP3    H238591   4.692   5.200  11.736  1.5618 -0.6439  0.1700
 5726TIP3   OH238592   5.720   4.156  12.992  0.4207  0.6338 -0.1035
 5726TIP3    H138593   5.704   4.181  13.082  0.3780 -0.0762  0.0963
 5726TIP3    H238594   5.785   4.085  12.998 -1.5336 -1.2764 -0.4318
 5727TIP3   OH238595   3.974   4.331   2.806  0.1968 -0.1810 -0.1312
 5727TIP3    H138596   3.883   4.322   2.777  0.0075  1.7596 -0.2589
 5727TIP3    H238597   4.024   4.274   2.748 -1.0507 -2.4166  0.8560
 5728TIP3   OH238598   1.257   0.772  13.882  0.1669  0.1281 -0.0558
 5728TIP3    H138599   1.276   0.740  13.971 -2.0462  0.2505  0.5081
 5728TIP3    H238600   1.344   0.788  13.844  1.1859 -0.0593  2.0242
 5729TIP3   OH238601   1.859   3.111  14.847 -0.5290 -0.1533  0.3407
 5729TIP3    H138602   1.845   3.123  14.941  0.5292  1.7484  0.3016
 5729TIP3    H238603   1.887   3.020  14.839  0.5933 -0.0062  2.0416
 5730TIP3   OH238604   1.876   4.061   0.054  0.0175  0.0707 -0.1482
 5730TIP3    H138605   1.927   4.044  -0.025  1.2024 -2.6515  1.0524
 5730TIP3    H238606   1.920   4.134   0.097  3.7473 -2.6565  1.2587
 5731TIP3   OH238607   1.224   6.402  16.123 -0.2536 -0.4041 -0.5197
 5731TIP3    H138608   1.293   6.341  16.095  0.3423 -0.0661  0.1578
 5731TIP3    H238609   1.272   6.474  16.164 -0.8887  0.9223 -2.0107
 5732TIP3   OH238610   5.777   3.848   2.568 -0.6985  0.5066 -0.1529
 5732TIP3    H138611   5.748   3.933   2.600 -1.0693 -0.0848  1.1452
 5732TIP3    H238612   5.697   3.795   2.562 -0.1245 -0.9705  2.9653
 5733TIP3   OH238613   1.242   6.557   0.206  0.1134  0.1286  1.2036
 5733TIP3    H138614   1.309   6.490   0.221 -0.1498 -0.3207  0.4493
 5733TIP3    H238615   1.255   6.621   0.276  0.4930 -0.6197  1.8275
 5734TIP3   OH238616   1.327   5.297   3.937 -0.0369  0.3071  1.1952
 5734TIP3    H138617   1.236   5.272   3.921  0.9442 -3.0247 -0.0638
 5734TIP3    H238618   1.365   5.223   3.985  2.1872  1.2952  1.1164
 5735TIP3   OH238619   5.900   2.443   4.473 -0.1984  0.2239 -0.0718
 5735TIP3    H138620   5.900   2.538   4.471  0.1569  0.3095  1.9787
 5735TIP3    H238621   5.807   2.420   4.484 -0.1356  0.4244  1.0001
 5736TIP3   OH238622   4.664   1.746  11.546  0.1163 -0.2920  0.2321
 5736TIP3    H138623   4.729   1.729  11.478 -0.3324  2.1694 -0.9262
 5736TIP3    H238624   4.609   1.816  11.510 -0.2044  1.0817  3.0614
 5737TIP3   OH238625   1.479   0.226   6.681 -0.0147 -0.3094  0.2055
 5737TIP3    H138626   1.433   0.307   6.703  1.4509  0.2280  1.4479
 5737TIP3    H238627   1.473   0.220   6.585  0.0415  1.3878  0.0698
 5738TIP3   OH238628   2.699   4.622   6.515 -0.2989  0.0407  0.0576
 5738TIP3    H138629   2.607   4.632   6.539 -0.5899  2.4229 -1.6934
 5738TIP3    H238630   2.700   4.546   6.457 -0.7772 -1.1994  1.5874
 5739TIP3   OH238631   3.386   5.782  14.183 -0.5098 -0.9684 -0.2018
 5739TIP3    H138632   3.331   5.740  14.116  0.3934 -0.3282 -1.3716
 5739TIP3    H238633   3.423   5.858  14.139  0.1283 -0.5476  1.0357
 5740TIP3   OH238634   6.473   4.657   2.113  0.3489  0.3918 -0.0600
 5740TIP3    H138635   6.389   4.665   2.159 -0.3865 -0.4422 -1.1707
 5740TIP3    H238636   6.471   4.728   2.049  2.0044  2.4597  2.0272
 5741TIP3   OH238637   2.448   1.935   2.708  0.1253  0.2315  0.1053
 5741TIP3    H138638   2.472   1.848   2.676 -0.0617  0.5224 -0.8578
 5741TIP3    H238639   2.357   1.926   2.737  0.3178 -0.0497  0.6486
 5742TIP3   OH238640   0.529   4.464  12.972  0.0150 -0.3356 -0.0127
 5742TIP3    H138641   0.507   4.556  12.955 -1.7266 -0.4914  1.1279
 5742TIP3    H238642   0.446   4.424  12.998  1.2843 -1.5026  2.6662
 5743TIP3   OH238643   1.900   6.461  13.109  0.3965  0.2419  0.5483
 5743TIP3    H138644   1.886   6.396  13.177  0.3124  1.4456  1.7093
 5743TIP3    H238645   1.943   6.413  13.038 -1.3372 -1.5071  0.5789
 5744TIP3   OH238646   6.337   4.642   1.647 -0.6249 -0.4492 -0.1134
 5744TIP3    H138647   6.287   4.580   1.700  0.6609 -0.7495  0.7929
 5744TIP3    H238648   6.274   4.676   1.584 -2.4416  0.5097  2.0865
 5745TIP3   OH238649   3.398   0.818   1.718  0.2651  0.2061  0.0180
 5745TIP3    H138650   3.360   0.793   1.634 -0.7050  0.4235  0.3897
 5745TIP3    H238651   3.472   0.875   1.694  1.4034 -1.4963 -0.7657
 5746TIP3   OH238652   3.861   1.125   3.347  0.0791 -0.1020 -0.3661
 5746TIP3    H138653   3.793   1.184   3.315  0.4608  0.6497  0.2116
 5746TIP3    H238654   3.941   1.176   3.345  0.4005 -0.5722  0.2277
 5747TIP3   OH238655   4.104   1.685  12.361 -0.5885 -0.0197  0.0991
 5747TIP3    H138656   4.136   1.718  12.276 -0.6716 -0.2933 -0.0387
 5747TIP3    H238657   4.147   1.600  12.371  0.2747  0.4767  0.8367
 5748TIP3   OH238658   2.461   2.961   3.025 -0.2043 -0.5084  0.3439
 5748TIP3    H138659   2.514   3.001   2.957 -0.9797  1.9599  1.1008
 5748TIP3    H238660   2.474   3.017   3.102 -1.8332 -1.3718  1.3081
 5749TIP3   OH238661   2.585   5.342   2.638 -0.0326  0.1746  0.1210
 5749TIP3    H138662   2.653   5.406   2.615 -0.7326  0.5580 -0.9349
 5749TIP3    H238663   2.617   5.301   2.718  1.8405 -0.2020 -0.7548
 5750TIP3   OH238664   3.716   4.789   3.932  0.3790 -0.2860 -0.1399
 5750TIP3    H138665   3.657   4.714   3.944  0.7416 -0.5842 -0.1724
 5750TIP3    H238666   3.802   4.756   3.959  0.7971 -0.3001 -1.3971
 5751TIP3   OH238667   1.579   5.530   2.170  0.2261  0.3245 -0.9335
 5751TIP3    H138668   1.550   5.582   2.095 -2.1324  0.9764  0.3359
 5751TIP3    H238669   1.662   5.570   2.196 -0.2911  1.8601 -1.5421
 5752TIP3   OH238670   0.911   0.223  15.375  0.1115 -0.0084  0.1377
 5752TIP3    H138671   0.982   0.281  15.347  0.3865 -0.0885  0.6595
 5752TIP3    H238672   0.923   0.143  15.323 -0.3928  0.4679 -0.7354
 5753TIP3   OH238673   0.019   5.750   1.541  0.0221  0.2696 -0.5225
 5753TIP3    H138674   0.093   5.696   1.569  0.2113  1.1468  0.7835
 5753TIP3    H238675  -0.052   5.727   1.602 -0.4078  0.2924 -1.0069
 5754TIP3   OH238676   4.288   4.794   0.706 -0.7320 -0.3394  0.5658
 5754TIP3    H138677   4.200   4.817   0.736 -0.7460 -0.4798  0.6287
 5754TIP3    H238678   4.298   4.841   0.623  0.3481  2.3465  2.0775
 5755TIP3   OH238679   0.977   0.134   0.552 -0.3030  0.6545  0.4798
 5755TIP3    H138680   0.905   0.156   0.611  0.7769  1.0154  1.7355
 5755TIP3    H238681   0.945   0.155   0.465 -1.3224  1.8551  1.1158
 5756TIP3   OH238682   0.002   0.985  14.828  0.0691  0.0642 -0.8177
 5756TIP3    H138683  -0.036   0.909  14.784  0.1731 -1.4329  1.5000
 5756TIP3    H238684  -0.069   1.048  14.834 -1.0919 -1.2860  0.3282
 5757TIP3   OH238685   5.902   3.942  11.172 -0.4319 -0.0276 -0.4310
 5757TIP3    H138686   5.942   4.026  11.194 -0.0941 -0.5127  0.9048
 5757TIP3    H238687   5.870   3.954  11.083  2.1560  0.5879 -1.3750
 5758TIP3   OH238688   1.508   5.204   1.723  0.1087 -0.1146 -0.3625
 5758TIP3    H138689   1.428   5.257   1.723  1.2339  1.6515  0.0693
 5758TIP3    H238690   1.512   5.168   1.812 -0.6030 -0.8830 -0.6261
 5759TIP3   OH238691   4.559   5.490   2.811  0.0152  0.4563 -0.3076
 5759TIP3    H138692   4.466   5.468   2.809 -0.1443  0.9468  0.8621
 5759TIP3    H238693   4.594   5.441   2.885  0.0542  2.4724  1.1033
 5760TIP3   OH238694   3.024   6.230   3.196 -0.2363 -0.3266 -0.5013
 5760TIP3    H138695   2.958   6.202   3.260 -1.1076 -0.0479 -1.2651
 5760TIP3    H238696   3.102   6.178   3.218 -0.8146 -0.9252  0.1853
 5761TIP3   OH238697   1.133   4.621  16.847  0.5748 -0.2622  0.0180
 5761TIP3    H138698   1.063   4.674  16.887  0.7026  0.8225 -1.1507
 5761TIP3    H238699   1.175   4.578  16.922  1.1479  2.1048  1.1655
 5762TIP3   OH238700   1.697   0.134  11.420  0.3851 -0.4443 -0.2160
 5762TIP3    H138701   1.642   0.106  11.346 -0.7987 -1.8634  1.1330
 5762TIP3    H238702   1.736   0.053  11.453 -0.7776 -0.1982  1.9694
 5763TIP3   OH238703   4.498   2.483  14.443  0.0024  0.2668  0.6131
 5763TIP3    H138704   4.444   2.561  14.433 -0.7209 -0.1907  0.8771
 5763TIP3    H238705   4.497   2.441  14.357  0.4295  0.5647  0.4588
 5764TIP3   OH238706   3.440   0.753  15.736  0.7360 -0.1163 -0.2201
 5764TIP3    H138707   3.399   0.716  15.659  0.5179  1.3485 -0.8397
 5764TIP3    H238708   3.534   0.748  15.718  0.6622  1.0942 -1.0251
 5765TIP3   OH238709   3.439   0.889  14.827 -0.4715  0.4743 -0.3419
 5765TIP3    H138710   3.421   0.981  14.847 -0.6515  0.2670  0.4724
 5765TIP3    H238711   3.414   0.841  14.906  3.5205  0.1341  0.9859
 5766TIP3   OH238712   1.432   6.037  14.918 -0.2574 -0.1717 -0.1848
 5766TIP3    H138713   1.342   6.011  14.936 -0.1279  0.3385  1.4179
 5766TIP3    H238714   1.485   5.971  14.962  0.0854  1.2154  1.6083
 5767TIP3   OH238715   6.418   4.361  14.581  0.3439  0.4814  0.4668
 5767TIP3    H138716   6.456   4.407  14.655 -0.7711  1.6855  0.3237
 5767TIP3    H238717   6.381   4.281  14.618  0.0361  0.9436  1.1598
 5768TIP3   OH238718   4.013   4.333   3.275 -0.3142 -0.6550 -0.1738
 5768TIP3    H138719   4.096   4.376   3.257 -0.0286 -1.5493 -1.0723
 5768TIP3    H238720   3.949   4.404   3.278  0.7571  0.3219  2.7499
 5769TIP3   OH238721   6.225   0.405   4.655 -0.9291 -0.3855 -0.0279
 5769TIP3    H138722   6.171   0.419   4.577  1.0393  1.8950 -1.1169
 5769TIP3    H238723   6.185   0.330   4.699 -2.5111 -1.3533 -2.8698
 5770TIP3   OH238724   2.031   6.212  16.071 -0.4201 -0.5598 -0.3420
 5770TIP3    H138725   2.076   6.172  15.997  0.3859 -1.6629  0.6952
 5770TIP3    H238726   2.063   6.303  16.073  0.0625 -0.7103 -0.9457
 5771TIP3   OH238727   4.863   5.532  16.787  0.5315  0.0008 -0.3872
 5771TIP3    H138728   4.794   5.516  16.851 -0.1823 -0.4080 -1.2378
 5771TIP3    H238729   4.820   5.524  16.702  0.9685  2.6419 -0.9552
 5772TIP3   OH238730   0.902   2.563   0.021 -0.3844 -0.1496 -0.0336
 5772TIP3    H138731   0.901   2.634   0.085 -1.0991 -1.8118  1.8993
 5772TIP3    H238732   0.994   2.548   0.002 -0.2070  0.9190 -0.0739
 5773TIP3   OH238733   5.818   1.201  16.538 -0.1664  0.2854  1.2682
 5773TIP3    H138734   5.731   1.183  16.503 -0.3241  1.3421  1.0694
 5773TIP3    H238735   5.803   1.266  16.606  0.5277  1.0487  0.7159
 5774TIP3   OH238736   4.037   2.034  15.358 -0.4853  0.3187  0.4881
 5774TIP3    H138737   4.010   2.126  15.360 -0.5373  0.3068  0.3054
 5774TIP3    H238738   3.966   1.989  15.314 -0.7754  0.0823  1.1862
 5775TIP3   OH238739   0.130   2.157   0.839 -0.3311 -0.3522  0.0066
 5775TIP3    H138740   0.085   2.075   0.818  1.9204 -1.0618 -2.8166
 5775TIP3    H238741   0.200   2.131   0.899 -0.1283 -0.3892 -0.2399
 5776TIP3   OH238742   4.421   6.296   2.717  0.0796  0.5477  0.1981
 5776TIP3    H138743   4.395   6.385   2.743  0.9413  0.4785  1.3242
 5776TIP3    H238744   4.515   6.302   2.701  0.0534 -0.0601 -0.2290
 5777TIP3   OH238745   1.199   1.531   5.303 -0.2728 -0.4744 -0.2342
 5777TIP3    H138746   1.157   1.462   5.251 -1.4960 -2.4754  3.1060
 5777TIP3    H238747   1.270   1.563   5.248 -1.7130 -2.0775 -3.2460
 5778TIP3   OH238748   5.649   0.356  12.984  0.3464  0.3973 -0.5997
 5778TIP3    H138749   5.730   0.402  13.005  1.0812 -1.5124  1.1644
 5778TIP3    H238750   5.580   0.408  13.024  0.9705  0.8545 -0.0963
 5779TIP3   OH238751   0.076   1.088  16.401 -0.3745  0.3418 -0.4506
 5779TIP3    H138752   0.038   1.014  16.448  1.4941 -0.4413 -0.0976
 5779TIP3    H238753   0.071   1.161  16.464 -2.2755  0.5903 -0.8227
 5780TIP3   OH238754   3.763   6.684  15.400  0.3252  0.3200 -0.4544
 5780TIP3    H138755   3.748   6.668  15.493 -0.1906  0.0467 -0.5842
 5780TIP3    H238756   3.679   6.666  15.358  1.0765 -1.6217 -1.2481
 5781TIP3   OH238757   3.170   6.162  12.479  0.2695 -0.3876  0.0279
 5781TIP3    H138758   3.224   6.088  12.453  1.8155 -0.6930  3.4853
 5781TIP3    H238759   3.141   6.141  12.568 -0.7929  2.3359  0.4346
 5782TIP3   OH238760   0.952   0.711   1.242  0.5279 -0.2752 -0.0941
 5782TIP3    H138761   0.928   0.785   1.186  0.2281 -0.8760 -0.7711
 5782TIP3    H238762   0.879   0.704   1.304  1.6721  1.5110  1.5731
 5783TIP3   OH238763   5.536   1.219  14.570 -0.2543  0.4254 -0.4638
 5783TIP3    H138764   5.631   1.207  14.575 -0.1726  1.0807 -0.4145
 5783TIP3    H238765   5.507   1.211  14.661  0.1406  3.2969 -0.0130
 5784TIP3   OH238766   3.443   5.457  13.629  0.2713  0.3785 -0.1449
 5784TIP3    H138767   3.537   5.445  13.643  0.2745 -0.0794 -0.5495
 5784TIP3    H238768   3.406   5.460  13.718  0.7327  1.1813  0.0361
 5785TIP3   OH238769   0.825   4.257   5.426 -0.2434 -0.3741  0.0945
 5785TIP3    H138770   0.916   4.227   5.425 -0.6841 -1.9155 -2.1486
 5785TIP3    H238771   0.816   4.306   5.344 -1.4231 -0.2064  0.3089
 5786TIP3   OH238772   6.689   4.234   1.210 -0.3118 -0.1098 -0.0787
 5786TIP3    H138773   6.737   4.306   1.251 -2.3389  0.0900  2.1264
 5786TIP3    H238774   6.757   4.178   1.173  1.4521  1.5447  0.4985
 5787TIP3   OH238775   5.841   3.145  14.713 -0.1013 -0.3782 -0.1832
 5787TIP3    H138776   5.811   3.100  14.792  0.1656  1.3489  0.9348
 5787TIP3    H238777   5.771   3.207  14.692  0.9762  1.0320  0.2608
 5788TIP3   OH238778   2.380   3.778  14.646  0.5022 -0.3748 -0.1372
 5788TIP3    H138779   2.298   3.762  14.693 -0.0083  0.6624 -0.6247
 5788TIP3    H238780   2.428   3.840  14.702  0.2124  0.2995 -0.6195
 5789TIP3   OH238781   0.492   2.398   0.229  0.7771  0.2992  0.5696
 5789TIP3    H138782   0.553   2.394   0.155  0.4782 -1.1211  0.3716
 5789TIP3    H238783   0.546   2.429   0.303  2.2313 -2.4518  0.8087
 5790TIP3   OH238784   0.368   2.279   2.512 -0.3762 -0.4549  0.6377
 5790TIP3    H138785   0.298   2.341   2.532  1.2210  1.4652  0.5155
 5790TIP3    H238786   0.435   2.295   2.579  1.1654 -0.2252 -0.8984
 5791TIP3   OH238787   1.083   5.397   2.583  0.5094  0.2744 -0.0953
 5791TIP3    H138788   1.012   5.400   2.647 -0.5145 -3.1167 -0.8735
 5791TIP3    H238789   1.144   5.331   2.617  0.8411 -0.2963 -1.7071
 5792TIP3   OH238790   0.958   2.910   4.950  0.0618  0.0857  0.2260
 5792TIP3    H138791   0.963   2.816   4.966 -0.3326 -0.0285 -0.2778
 5792TIP3    H238792   0.864   2.930   4.952  0.1621  0.5152  0.6000
 5793TIP3   OH238793   0.946   2.513   3.904  0.0101  0.1337 -0.2268
 5793TIP3    H138794   0.893   2.583   3.865  0.3317  0.3194 -0.3384
 5793TIP3    H238795   0.987   2.553   3.980 -0.1284 -0.0531 -0.0537
 5794TIP3   OH238796   1.729   4.085  13.965  0.1383  0.0207  0.2726
 5794TIP3    H138797   1.749   4.112  13.875 -2.5450  1.5165  0.0286
 5794TIP3    H238798   1.686   4.000  13.956 -2.7046  1.3998 -0.2542
 5795TIP3   OH238799   0.079   0.502  16.678  0.2348 -0.2169  0.1997
 5795TIP3    H138800   0.126   0.450  16.613 -0.3074 -0.1212 -0.2807
 5795TIP3    H238801  -0.002   0.528  16.634  0.1251  0.3456  0.7137
 5796TIP3   OH238802   0.284   5.265  12.766 -0.1213  0.1455 -0.2961
 5796TIP3    H138803   0.330   5.186  12.737  0.2944  0.8238 -1.5806
 5796TIP3    H238804   0.272   5.316  12.686  0.0635  1.6153  0.5822
 5797TIP3   OH238805   5.931   1.335   2.964 -0.0674  0.3734 -0.7020
 5797TIP3    H138806   5.953   1.276   2.892 -1.1558  1.5864 -2.0905
 5797TIP3    H238807   5.839   1.356   2.950 -0.6212 -0.1469  1.6707
 5798TIP3   OH238808   1.055   6.318   1.572  0.0967  0.0207  0.1109
 5798TIP3    H138809   1.033   6.318   1.665  1.7846 -0.2182  0.5303
 5798TIP3    H238810   1.037   6.229   1.543 -0.3517  0.0731  0.2204
 5799TIP3   OH238811   4.714   5.995   4.023  0.2858  0.2501 -0.0539
 5799TIP3    H138812   4.738   6.006   3.931  1.6832 -0.6695  0.1608
 5799TIP3    H238813   4.795   5.966   4.065 -1.1518 -2.8958  0.8213
 5800TIP3   OH238814   1.616   0.725   4.746  0.4772 -0.3923  0.5815
 5800TIP3    H138815   1.583   0.640   4.717 -2.0894  1.1282 -1.4189
 5800TIP3    H238816   1.558   0.749   4.818 -0.1395  0.4642 -0.1710
 5801TIP3   OH238817   4.546   2.144  13.973 -0.7135 -0.0589 -0.2144
 5801TIP3    H138818   4.548   2.231  13.934 -0.4513 -0.9680 -2.4065
 5801TIP3    H238819   4.453   2.129  13.993 -0.7954  0.6077 -0.0578
 5802TIP3   OH238820   6.095   3.121   0.060 -0.3301  0.1749  0.9276
 5802TIP3    H138821   6.170   3.088   0.109 -0.7035  0.5851  1.7824
 5802TIP3    H238822   6.025   3.059   0.080 -0.9209  1.2061  2.2048
 5803TIP3   OH238823   4.959   2.301  11.251  0.1706  0.1404  0.5346
 5803TIP3    H138824   4.866   2.316  11.235 -0.0083 -2.3330 -1.2347
 5803TIP3    H238825   5.003   2.347  11.180 -0.0128 -2.2081 -1.1768
 5804TIP3   OH238826   4.964   1.064  13.138  0.1207 -0.4880  0.4481
 5804TIP3    H138827   4.974   0.972  13.163 -1.6573 -0.5530  1.0597
 5804TIP3    H238828   4.931   1.107  13.217 -1.2608  0.2000 -0.4652
 5805TIP3   OH238829   3.911   2.920   1.801 -0.2168 -0.0936 -0.3028
 5805TIP3    H138830   3.879   3.005   1.834  2.7491  1.2974 -0.6567
 5805TIP3    H238831   3.946   2.940   1.714 -0.9275 -2.0737 -1.0826
 5806TIP3   OH238832   0.648   0.913   5.010  0.5097  0.3620 -0.2856
 5806TIP3    H138833   0.657   0.847   5.080  2.3764  0.8469 -0.0029
 5806TIP3    H238834   0.715   0.889   4.946 -1.1461 -0.0484 -1.9551
 5807TIP3   OH238835   1.612   0.689  10.630  0.2896 -0.3291 -0.4452
 5807TIP3    H138836   1.527   0.733  10.638 -0.3072 -0.8616 -2.9196
 5807TIP3    H238837   1.623   0.642  10.713 -1.3018  0.6329  0.3564
 5808TIP3   OH238838   0.262   5.521   2.797 -0.3069  0.0834 -1.1574
 5808TIP3    H138839   0.258   5.616   2.784 -0.5222  0.0556 -1.3161
 5808TIP3    H238840   0.239   5.485   2.711 -0.2879 -0.1115 -1.0807
 5809TIP3   OH238841   1.506   3.323  13.336 -0.4286 -0.2233 -0.9871
 5809TIP3    H138842   1.525   3.244  13.285  1.2795  0.1834 -1.0265
 5809TIP3    H238843   1.556   3.392  13.293  0.3627  0.3112  0.7212
 5810TIP3   OH238844   6.197   0.381   1.066 -0.2824 -0.1606 -0.0620
 5810TIP3    H138845   6.202   0.475   1.049 -1.3048  0.0436  0.6595
 5810TIP3    H238846   6.284   0.347   1.043  0.3996  1.1012  0.5871
 5811TIP3   OH238847   4.929   0.457  15.463 -0.0501  0.4218  0.5137
 5811TIP3    H138848   4.886   0.393  15.519 -2.0903  1.1503 -0.1432
 5811TIP3    H238849   4.912   0.542  15.505  1.0386  0.7264  0.3905
 5812TIP3   OH238850   2.970   0.884   2.267 -0.3876 -0.4865 -0.6493
 5812TIP3    H138851   2.900   0.832   2.307 -1.1622  1.7371  1.1112
 5812TIP3    H238852   2.928   0.930   2.195 -0.2777 -0.5156 -0.7327
 5813TIP3   OH238853   5.193   2.912  11.908 -0.5400  0.2320 -0.2752
 5813TIP3    H138854   5.203   2.855  11.984  1.5143 -1.6062 -1.7651
 5813TIP3    H238855   5.112   2.883  11.866 -1.7694  1.3658  1.2194
 5814TIP3   OH238856   5.520   2.725  12.784  0.3103 -0.2150 -0.2984
 5814TIP3    H138857   5.478   2.648  12.824 -0.5271  0.8474  0.9828
 5814TIP3    H238858   5.606   2.730  12.825 -0.2608  0.4361  0.8825
 5815TIP3   OH238859   6.493   6.312   0.394  0.5204  0.1153  0.1162
 5815TIP3    H138860   6.446   6.237   0.431  0.9954  0.4929  1.5524
 5815TIP3    H238861   6.585   6.294   0.415  0.5488  1.5426  1.3589
 5816TIP3   OH238862   0.339   1.730  15.457 -0.0309 -0.0487 -0.0544
 5816TIP3    H138863   0.363   1.737  15.365 -0.3842 -0.3504 -0.1723
 5816TIP3    H238864   0.255   1.775  15.463 -0.3757 -0.6819 -0.0344
 5817TIP3   OH238865   2.613   5.712  13.212  0.5323 -0.0761 -0.7878
 5817TIP3    H138866   2.602   5.624  13.175 -0.7524  0.0963 -0.8824
 5817TIP3    H238867   2.568   5.770  13.150  1.0336  0.6086 -0.5293
 5818TIP3   OH238868   2.198   4.337   5.697 -0.6421  0.2548 -0.4968
 5818TIP3    H138869   2.133   4.302   5.636 -1.2017  1.0856 -0.3949
 5818TIP3    H238870   2.146   4.381   5.765 -0.0018  0.1079  0.1074
 5819TIP3   OH238871   4.916   3.156   4.143 -0.1283  0.2235 -0.5102
 5819TIP3    H138872   4.992   3.183   4.194  0.9667 -1.0072 -1.3989
 5819TIP3    H238873   4.949   3.086   4.086 -2.0125 -0.6167 -0.6657
 5820TIP3   OH238874   3.711   2.761  12.438 -0.5736  0.4015 -0.5535
 5820TIP3    H138875   3.754   2.840  12.470 -0.7230  0.4866 -0.5630
 5820TIP3    H238876   3.782   2.710  12.398 -0.1647 -0.2241  0.8946
 5821TIP3   OH238877   3.519   2.285  14.600 -0.5096 -0.0305  0.7987
 5821TIP3    H138878   3.554   2.372  14.582  0.3454 -0.4586  0.3358
 5821TIP3    H238879   3.436   2.282  14.553  0.4974 -0.2354 -1.0771
 5822TIP3   OH238880   1.071   2.523   4.635 -0.1518  0.0841 -0.1793
 5822TIP3    H138881   1.085   2.519   4.540 -0.8801  1.3942 -0.3599
 5822TIP3    H238882   1.121   2.600   4.663  1.1994 -1.0745  0.7468
 5823TIP3   OH238883   0.381   2.368  13.355  0.1792  0.3569  0.0235
 5823TIP3    H138884   0.338   2.428  13.295 -0.7594 -0.8842 -0.5789
 5823TIP3    H238885   0.475   2.383  13.341 -0.0403  0.9272 -0.8676
 5824TIP3   OH238886   4.035   5.265  11.790  0.0911  0.5050 -0.2557
 5824TIP3    H138887   4.040   5.266  11.885 -0.9628  0.3283 -0.1896
 5824TIP3    H238888   4.126   5.257  11.761  0.3763  0.0007  0.7406
 5825TIP3   OH238889   3.235   4.200  12.014  0.5334 -0.3424 -0.4370
 5825TIP3    H138890   3.193   4.141  12.077 -0.4844  0.3174 -0.4700
 5825TIP3    H238891   3.256   4.144  11.940  0.1892 -0.7961 -0.2008
 5826TIP3   OH238892   4.884   2.298  12.508  0.5793 -0.1544  0.4706
 5826TIP3    H138893   4.800   2.321  12.468  0.1554 -1.8637  0.3284
 5826TIP3    H238894   4.935   2.260  12.437  1.1055 -0.0640  0.7964
 5827TIP3   OH238895   1.085   0.628   6.431 -0.2700 -0.1845  0.4860
 5827TIP3    H138896   1.006   0.577   6.448  0.4758 -1.1249  1.2362
 5827TIP3    H238897   1.124   0.586   6.354  0.3268 -0.7465  1.0827
 5828TIP3   OH238898   3.473   1.552  15.899  0.1401  0.0314 -0.4311
 5828TIP3    H138899   3.406   1.618  15.884  2.5835  3.0434  0.8412
 5828TIP3    H238900   3.486   1.511  15.813 -2.9897 -0.5072 -0.7806
 5829TIP3   OH238901   0.667   1.714   0.460 -0.4255  0.4687  0.2724
 5829TIP3    H138902   0.605   1.748   0.525  1.3028 -1.1166  2.9305
 5829TIP3    H238903   0.691   1.627   0.493  2.6379  0.7170 -1.0064
 5830TIP3   OH238904   1.738   2.934  13.235  0.3958 -0.2724  0.1303
 5830TIP3    H138905   1.666   2.887  13.193  1.1997  1.5673 -3.7800
 5830TIP3    H238906   1.722   3.026  13.215  0.7055  0.9389  4.4911
 5831TIP3   OH238907   3.913   0.551  11.368  0.5452  0.2751 -0.4392
 5831TIP3    H138908   3.919   0.484  11.299  0.0351 -0.8910  0.6157
 5831TIP3    H238909   3.988   0.533  11.425  0.3758  0.5707 -0.1223
 5832TIP3   OH238910   2.666   2.617   5.131  0.2475 -1.0815 -0.3848
 5832TIP3    H138911   2.617   2.537   5.117  0.1880 -0.9591 -0.9080
 5832TIP3    H238912   2.755   2.597   5.101  1.1127 -1.9559  2.4482
 5833TIP3   OH238913   6.740   6.722   4.381 -0.3744 -0.5219  0.6340
 5833TIP3    H138914   6.796   6.747   4.455 -0.1036 -0.6582  0.4767
 5833TIP3    H238915   6.739   6.799   4.324 -0.3039 -0.5372  0.6115
 5834TIP3   OH238916   2.931   4.730   6.110  0.1789 -0.2667  0.1075
 5834TIP3    H138917   2.837   4.723   6.127  0.0834 -0.6974 -0.5589
 5834TIP3    H238918   2.972   4.714   6.195 -0.3094 -1.4860  0.1292
 5835TIP3   OH238919   4.761   1.196  14.481 -1.0210 -0.7943 -0.0010
 5835TIP3    H138920   4.770   1.165  14.391  2.8107 -0.8143  0.2008
 5835TIP3    H238921   4.763   1.117  14.534  2.4198 -0.7429  0.2066
 5836TIP3   OH238922   3.408   0.557   5.129  0.2103 -0.4624  0.3691
 5836TIP3    H138923   3.489   0.536   5.084 -0.1908 -1.7735  0.2297
 5836TIP3    H238924   3.357   0.606   5.065  1.1305  0.9568  0.6768
 5837TIP3   OH238925   5.542   1.286  14.884  0.1765 -0.5501  0.4591
 5837TIP3    H138926   5.603   1.349  14.924  0.2733  0.6607 -1.4746
 5837TIP3    H238927   5.456   1.312  14.917  0.2247  0.5701 -0.2616
 5838TIP3   OH238928   5.460   5.321  15.296 -0.4859  0.3071 -0.0921
 5838TIP3    H138929   5.553   5.341  15.306 -0.8546  1.5385  1.0671
 5838TIP3    H238930   5.448   5.311  15.201  1.1013 -1.4298 -0.1806
 5839TIP3   OH238931   2.376   6.086   4.182  0.3987 -0.1941  0.1558
 5839TIP3    H138932   2.301   6.055   4.232 -0.4666  0.0965 -0.9173
 5839TIP3    H238933   2.405   6.165   4.228  0.8188 -0.9739  1.2626
 5840TIP3   OH238934   4.501   5.081   0.475 -0.4617  0.5524 -0.0787
 5840TIP3    H138935   4.542   5.081   0.562  0.8568  1.4898 -0.6558
 5840TIP3    H238936   4.574   5.072   0.415 -1.2420  1.0875 -1.1325
 5841TIP3   OH238937   2.045   2.192  11.197  0.0325  0.4506 -0.4517
 5841TIP3    H138938   1.958   2.159  11.174 -1.3741  2.3147  1.7968
 5841TIP3    H238939   2.089   2.116  11.236 -0.3967 -0.6041 -1.9048
 5842TIP3   OH238940   2.331   2.051  17.365 -0.2379  0.3854 -0.7966
 5842TIP3    H138941   2.412   2.016  17.328  0.2200  0.5014  0.0759
 5842TIP3    H238942   2.288   1.975  17.405  0.2071  0.5844  0.0986
 5843TIP3   OH238943   0.832   0.760   3.637  0.0331 -0.1795 -0.4097
 5843TIP3    H138944   0.821   0.816   3.714  0.2824  0.1576 -0.6171
 5843TIP3    H238945   0.777   0.684   3.655  1.5559 -1.0161  0.9703
 5844TIP3   OH238946   3.188   5.661  11.445 -0.3869  0.3275 -0.8873
 5844TIP3    H138947   3.105   5.650  11.490  0.3138  0.7286  0.5639
 5844TIP3    H238948   3.192   5.588  11.383 -0.6582 -1.2610  0.8700
 5845TIP3   OH238949   3.711   1.948   1.856 -0.5276 -0.0359 -0.1782
 5845TIP3    H138950   3.687   2.038   1.876  0.5393  0.0013  1.0415
 5845TIP3    H238951   3.807   1.948   1.855 -0.4685 -1.4498  1.3671
 5846TIP3   OH238952   4.587   0.219   3.055  0.4347  0.2858  0.2456
 5846TIP3    H138953   4.606   0.279   2.983  0.0383  2.2374  1.6901
 5846TIP3    H238954   4.658   0.233   3.117  0.2724 -0.6930  0.6656
 5847TIP3   OH238955   6.740   4.877   5.743  0.7746  0.1735 -0.1782
 5847TIP3    H138956   6.776   4.957   5.781 -2.2928  0.9455  1.4547
 5847TIP3    H238957   6.747   4.890   5.649  0.8638  2.1618  0.0554
 5848TIP3   OH238958   0.236   4.288   5.432  0.5547 -0.0657  0.1117
 5848TIP3    H138959   0.317   4.322   5.471  2.1350 -0.5744 -2.4502
 5848TIP3    H238960   0.241   4.193   5.445  0.4129 -0.1074 -0.1292
 5849TIP3   OH238961   5.227   6.713   3.918 -0.2866  0.0545 -0.3223
 5849TIP3    H138962   5.257   6.719   3.828 -2.1589 -0.5220 -1.0450
 5849TIP3    H238963   5.305   6.688   3.968  0.6938 -0.0498 -1.8396
 5850TIP3   OH238964   4.321   6.235   0.748 -0.0891  0.0222  0.0268
 5850TIP3    H138965   4.415   6.216   0.750 -0.3891 -1.5042  0.4796
 5850TIP3    H238966   4.315   6.322   0.707  1.6078  0.7743  1.2697
 5851TIP3   OH238967   5.367   4.643   5.507  0.1310  0.0481 -0.5145
 5851TIP3    H138968   5.297   4.690   5.552  1.9048  0.5407  1.9686
 5851TIP3    H238969   5.351   4.551   5.527 -0.8624 -0.0330 -1.6148
 5852TIP3   OH238970   0.268   0.523   2.975 -0.2526 -0.2972 -0.0861
 5852TIP3    H138971   0.221   0.532   2.892 -0.8077 -2.3097 -0.0594
 5852TIP3    H238972   0.340   0.585   2.968 -2.3126  2.2186 -0.5146
 5853TIP3   OH238973   3.367   3.364   0.697 -0.7673 -0.2912  0.3420
 5853TIP3    H138974   3.463   3.361   0.699 -0.6764  1.0761 -0.1665
 5853TIP3    H238975   3.340   3.362   0.788 -0.3951 -2.7187  0.4661
 5854TIP3   OH238976   2.312   5.407   2.103  0.1100 -0.3718 -0.0547
 5854TIP3    H138977   2.350   5.466   2.038  0.1655  0.3686  0.6398
 5854TIP3    H238978   2.240   5.456   2.142  1.4198  0.0534  1.9635
 5855TIP3   OH238979   3.651   6.418   4.653  0.2724  0.4700 -0.1011
 5855TIP3    H138980   3.745   6.403   4.662  0.2941 -0.2235 -1.3282
 5855TIP3    H238981   3.613   6.373   4.729  0.9353  0.9684  0.5450
 5856TIP3   OH238982   2.024   2.275  13.139 -0.2139  0.1839 -0.3942
 5856TIP3    H138983   2.023   2.236  13.226 -1.0089  1.2026  0.0669
 5856TIP3    H238984   1.936   2.259  13.105  0.8881 -2.8192 -2.2504
 5857TIP3   OH238985   2.989   1.898   0.198 -0.2954 -0.2021  0.2635
 5857TIP3    H138986   3.025   1.843   0.268  0.3367 -1.8248 -1.2644
 5857TIP3    H238987   3.062   1.913   0.139 -0.8325  1.0874 -0.1025
 5858TIP3   OH238988   4.279   1.174  15.103  0.3524  0.4894  0.0238
 5858TIP3    H138989   4.312   1.144  15.187  0.4332  1.3993  0.3300
 5858TIP3    H238990   4.303   1.267  15.100 -2.4620  1.3169  0.4019
 5859TIP3   OH238991   5.511   0.897  14.659 -0.3961 -0.2959  0.0011
 5859TIP3    H138992   5.454   0.905  14.736 -0.6932 -0.9927 -0.1356
 5859TIP3    H238993   5.527   0.803  14.652 -2.6232 -0.6047 -2.3862
 5860TIP3   OH238994   1.067   3.017  12.402  0.0404 -0.8027  0.1864
 5860TIP3    H138995   0.988   2.973  12.371 -1.6769 -0.1913  3.2994
 5860TIP3    H238996   1.094   2.968  12.479  1.6065  0.1414  0.2923
 5861TIP3   OH238997   5.435   4.740   4.987  0.6561 -0.0255 -0.2997
 5861TIP3    H138998   5.407   4.799   5.057  0.7906 -0.5164  0.1814
 5861TIP3    H238999   5.530   4.751   4.982  0.5663  0.5138 -0.8799
 5862TIP3   OH239000   5.990   2.710  14.668 -0.6291 -0.0384  0.4551
 5862TIP3    H139001   5.904   2.703  14.628 -0.3693 -0.0650 -0.1111
 5862TIP3    H239002   6.045   2.748  14.599 -0.4655  1.1367  1.2148
 5863TIP3   OH239003   1.045   5.757  10.713  0.2222  0.1442  0.2633
 5863TIP3    H139004   1.134   5.784  10.691 -0.8272  1.8834 -2.3738
 5863TIP3    H239005   0.996   5.839  10.721 -1.8003 -0.7585 -1.7210
 5864TIP3   OH239006   1.065   1.433  14.887 -1.0675  0.5493  0.3648
 5864TIP3    H139007   0.998   1.374  14.852  0.8367 -0.0364 -2.6946
 5864TIP3    H239008   1.045   1.518  14.847  0.8842 -0.0281 -2.1041
 5865TIP3   OH239009   5.429   0.964  13.632  0.2559  0.5129 -0.0060
 5865TIP3    H139010   5.455   0.933  13.545 -0.6490 -1.2478  0.3057
 5865TIP3    H239011   5.399   0.885  13.677  0.1041  1.5040  1.6920
 5866TIP3   OH239012   2.755   3.949  15.890  0.4123 -0.7210  0.0220
 5866TIP3    H139013   2.743   4.022  15.951 -0.2300  1.7518 -2.8129
 5866TIP3    H239014   2.846   3.923  15.901  0.3000 -0.4537  2.0089
 5867TIP3   OH239015   1.309   1.681  12.831 -0.3829  0.0197  0.3512
 5867TIP3    H139016   1.216   1.698  12.819 -0.4950 -0.9064 -0.1485
 5867TIP3    H239017   1.315   1.640  12.918  0.0597  3.7435  2.2781
 5868TIP3   OH239018   4.236   0.697   1.783  0.2361 -0.1012 -0.2195
 5868TIP3    H139019   4.299   0.666   1.719  0.4536  0.0139 -0.0662
 5868TIP3    H239020   4.157   0.718   1.733  0.5488  0.3926 -0.5050
 5869TIP3   OH239021   3.641   6.301   5.233  0.6920 -0.2663 -0.1202
 5869TIP3    H139022   3.690   6.304   5.315  0.6250  0.3968 -0.1029
 5869TIP3    H239023   3.561   6.253   5.254 -0.1733  1.4316  0.6663
 5870TIP3   OH239024   0.839   6.391  12.030  0.3155  0.3869  0.0213
 5870TIP3    H139025   0.911   6.448  12.005  1.8981 -1.8000 -0.6583
 5870TIP3    H239026   0.873   6.340  12.104 -0.8681 -0.0046  0.3164
 5871TIP3   OH239027   2.403   0.109  11.515  0.1298 -0.3855  0.5390
 5871TIP3    H139028   2.384   0.137  11.604 -0.0497  1.5483 -0.0518
 5871TIP3    H239029   2.336   0.153  11.462 -0.0320 -1.8437 -0.5115
 5872TIP3   OH239030   3.612   6.248   0.827  0.0487  0.6451  0.6804
 5872TIP3    H139031   3.534   6.290   0.863 -0.3633  2.0327 -1.6571
 5872TIP3    H239032   3.592   6.235   0.734  1.8664 -0.7936  0.4322
 5873TIP3   OH239033   4.568   4.580   5.749  0.4078  0.0524  0.2251
 5873TIP3    H139034   4.511   4.651   5.722 -0.1035 -0.4181  0.0468
 5873TIP3    H239035   4.519   4.534   5.817  1.1778  0.5004  1.1220
 5874TIP3   OH239036   1.762   3.082  11.311 -0.1605 -0.5680  0.1541
 5874TIP3    H139037   1.724   3.040  11.233  0.5910  2.3596 -1.9508
 5874TIP3    H239038   1.854   3.093  11.289  0.6123 -1.7191  2.5037
 5875TIP3   OH239039   2.447   1.369  11.408  0.1450  0.6410 -0.3952
 5875TIP3    H139040   2.534   1.375  11.368  1.1372 -0.1326  1.5125
 5875TIP3    H239041   2.410   1.289  11.373  1.3992 -0.5565  0.8597
 5876TIP3   OH239042   3.256   1.352  11.852 -0.6559 -0.2868 -0.4414
 5876TIP3    H139043   3.239   1.397  11.770 -0.7109 -1.8815 -1.3408
 5876TIP3    H239044   3.176   1.363  11.903 -1.2545 -0.6966 -1.2815
 5877TIP3   OH239045   2.817   6.044   6.635 -0.2721 -0.6551 -0.2978
 5877TIP3    H139046   2.743   6.050   6.696 -0.4599  0.1398 -0.5923
 5877TIP3    H239047   2.797   6.108   6.567  0.8146 -0.2319 -0.2386
 5878TIP3   OH239048   1.209   1.919   0.837 -0.4979  0.3736  0.0964
 5878TIP3    H139049   1.122   1.953   0.857 -0.3370 -0.7499  3.2303
 5878TIP3    H239050   1.269   1.984   0.874 -0.0932 -0.2107  0.4836
 5879TIP3   OH239051   3.654   4.354   3.026  0.6069  0.3723 -0.3443
 5879TIP3    H139052   3.624   4.267   3.056  1.9427 -0.0509 -0.1941
 5879TIP3    H239053   3.594   4.415   3.069 -0.2010 -0.4543 -0.2423
 5880TIP3   OH239054   4.772   4.544  13.944 -0.0775  0.6522  0.0521
 5880TIP3    H139055   4.825   4.527  14.022 -0.3426 -0.3367  0.0366
 5880TIP3    H239056   4.831   4.525  13.871  0.1963  1.6600  0.0041
 5881TIP3   OH239057   0.930   5.186   3.650 -0.4177  0.2621 -0.2004
 5881TIP3    H139058   0.864   5.152   3.710 -0.2379  0.1178 -0.0822
 5881TIP3    H239059   0.991   5.234   3.706 -0.7974  0.9850 -0.3936
 5882TIP3   OH239060   4.674   1.583  14.050 -0.2444 -0.4235 -0.4406
 5882TIP3    H139061   4.731   1.651  14.086 -1.1335  0.3926 -0.5306
 5882TIP3    H239062   4.730   1.536  13.988  0.2147  0.6713 -0.8869
 5883TIP3   OH239063   0.671   3.533  14.009 -0.0397 -0.1179  0.4732
 5883TIP3    H139064   0.653   3.475  13.935 -1.0730  1.2152 -0.3901
 5883TIP3    H239065   0.765   3.526  14.023  0.1029 -0.7655 -0.6666
 5884TIP3   OH239066   1.365   2.403   4.761  0.3449 -0.5663 -0.4053
 5884TIP3    H139067   1.350   2.495   4.785 -1.2850 -0.7416 -0.6511
 5884TIP3    H239068   1.458   2.399   4.738  0.4812  0.9833 -0.2228
 5885TIP3   OH239069   5.895   2.744  13.300  0.3517 -0.7907  0.1556
 5885TIP3    H139070   5.922   2.823  13.253 -1.8203  0.7991  1.3795
 5885TIP3    H239071   5.925   2.758  13.390  0.8099 -1.8467  0.1780
 5886TIP3   OH239072   1.796   5.316  13.552 -0.3755 -0.8471  0.3366
 5886TIP3    H139073   1.751   5.297  13.470 -0.0476 -0.8269  0.1491
 5886TIP3    H239074   1.766   5.404  13.577  0.2967 -0.4338 -0.2905
 5887TIP3   OH239075   0.901   4.725   1.744 -0.6167  0.3834  0.0475
 5887TIP3    H139076   0.849   4.750   1.820 -0.0517 -0.9995  0.9149
 5887TIP3    H239077   0.987   4.762   1.760 -0.6839  0.6826 -0.2660
 5888TIP3   OH239078   2.144   0.708   5.569 -0.0838  0.0378  0.2272
 5888TIP3    H139079   2.077   0.763   5.610 -0.2426  1.4670 -1.7981
 5888TIP3    H239080   2.117   0.702   5.478  2.0589 -0.1289 -0.4438
 5889TIP3   OH239081   5.981   3.653  14.372  0.2257 -0.0575  0.1447
 5889TIP3    H139082   5.946   3.568  14.346 -0.2587  0.4128 -0.7847
 5889TIP3    H239083   5.913   3.716  14.347  1.8037  0.9076 -1.9882
 5890TIP3   OH239084   5.215   4.711   4.067  0.4718 -0.3719 -0.0909
 5890TIP3    H139085   5.125   4.736   4.086  0.0522 -0.5493 -1.6992
 5890TIP3    H239086   5.226   4.626   4.110  0.0524 -0.1051  0.5584
 5891TIP3   OH239087   5.743   3.468   1.087 -0.3030  0.5286 -0.2413
 5891TIP3    H139088   5.660   3.506   1.116 -0.9474 -0.3456 -0.8754
 5891TIP3    H239089   5.717   3.397   1.028  0.7046 -2.1388  2.2432
 5892TIP3   OH239090   4.944   1.589   0.965 -0.0801  0.2095 -0.2216
 5892TIP3    H139091   4.859   1.608   0.923 -0.3106 -1.3414 -0.5475
 5892TIP3    H239092   4.923   1.581   1.058 -0.3776 -0.4771 -0.3360
 5893TIP3   OH239093   0.364   5.776   3.741 -0.4157 -0.1579  0.4706
 5893TIP3    H139094   0.337   5.742   3.827  0.5065 -0.3165  0.7114
 5893TIP3    H239095   0.387   5.867   3.758  2.7067 -0.9151  1.1192
 5894TIP3   OH239096   4.672   6.506  17.362  0.1460 -0.0683 -0.0197
 5894TIP3    H139097   4.689   6.513  17.455  0.8317  1.3658 -0.2277
 5894TIP3    H239098   4.591   6.454  17.356  1.2612 -2.0805  1.2290
 5895TIP3   OH239099   3.476   2.501  15.887  0.8334 -0.3433 -0.2270
 5895TIP3    H139100   3.470   2.482  15.980 -0.7750 -0.5170 -0.3460
 5895TIP3    H239101   3.467   2.416  15.843  2.4649 -0.3858 -0.5459
 5896TIP3   OH239102   6.619   3.794   1.591  0.3844  0.3435  0.2236
 5896TIP3    H139103   6.678   3.728   1.629  0.1002  1.0950  2.0726
 5896TIP3    H239104   6.678   3.857   1.549  0.8128  0.1323  0.4895
 5897TIP3   OH239105   3.802   4.836   3.642 -0.1721  0.4783  0.7484
 5897TIP3    H139106   3.752   4.833   3.560  1.3395  0.4250 -0.2097
 5897TIP3    H239107   3.747   4.789   3.705 -0.1933 -1.9367 -0.9216
 5898TIP3   OH239108   0.907   1.541   5.481  0.5673 -0.0140 -0.1735
 5898TIP3    H139109   0.958   1.597   5.422 -0.0642 -0.5701 -1.2919
 5898TIP3    H239110   0.952   1.456   5.477  0.7100  0.0310  0.4172
 5899TIP3   OH239111   4.627   5.115   5.185  0.2265 -0.6318 -0.4343
 5899TIP3    H139112   4.611   5.112   5.091 -1.0434  0.3386 -0.2643
 5899TIP3    H239113   4.649   5.206   5.203  1.5705 -1.0198  0.0683
 5900TIP3   OH239114   6.177   5.352  12.231 -0.3472  0.3143  0.6060
 5900TIP3    H139115   6.134   5.267  12.221  2.1894 -1.1345  1.0024
 5900TIP3    H239116   6.184   5.386  12.142  0.0894 -0.7433  0.2061
 5901TIP3   OH239117   2.524   4.567   0.513  0.7497 -0.1119 -0.0386
 5901TIP3    H139118   2.549   4.645   0.464 -0.7764  0.4095 -0.0269
 5901TIP3    H239119   2.528   4.594   0.605 -0.3668  0.1398 -0.0605
 5902TIP3   OH239120   1.313   5.185  13.265  0.2004  1.0611  0.4760
 5902TIP3    H139121   1.375   5.162  13.334  0.0173  0.5996  0.4879
 5902TIP3    H239122   1.274   5.268  13.295  1.5248  1.8913 -0.0150
 5903TIP3   OH239123   1.508   0.545   3.935  0.3431  0.2173 -0.0430
 5903TIP3    H139124   1.507   0.559   4.030 -0.4984  0.6252 -0.0989
 5903TIP3    H239125   1.546   0.458   3.925 -1.0450 -0.5457  0.8001
 5904TIP3   OH239126   2.345   6.714  15.092 -0.2703 -0.4417  0.4178
 5904TIP3    H139127   2.392   6.714  15.008 -0.6473 -0.2414  0.2040
 5904TIP3    H239128   2.361   6.802  15.127  1.4110 -1.1068  1.4286
 5905TIP3   OH239129   5.586   6.185   0.439  0.2768 -0.3474 -0.5234
 5905TIP3    H139130   5.666   6.137   0.461 -0.7875 -1.4844  0.9837
 5905TIP3    H239131   5.515   6.131   0.473 -0.9743  2.6706  2.1602
 5906TIP3   OH239132   4.753   4.436  12.444  0.1551 -0.2983  0.3711
 5906TIP3    H139133   4.785   4.353  12.409  0.0694 -0.1204 -0.1332
 5906TIP3    H239134   4.663   4.443  12.412  1.6030  2.3537 -4.0199
 5907TIP3   OH239135   2.545   4.059  12.047 -0.7661  0.1384  0.0309
 5907TIP3    H139136   2.577   4.149  12.053  2.2293 -0.7175 -1.0047
 5907TIP3    H239137   2.528   4.033  12.137 -2.4485  1.9182  0.2953
 5908TIP3   OH239138   0.835   5.149   2.336 -0.2537 -0.0023  0.2083
 5908TIP3    H139139   0.798   5.071   2.296 -0.3746  1.0225 -1.8265
 5908TIP3    H239140   0.795   5.153   2.423 -2.6568 -0.5681 -0.7851
 5909TIP3   OH239141   1.963   3.914   2.154  0.2177  0.2044  0.1668
 5909TIP3    H139142   1.894   3.930   2.089  0.0778  0.0001  0.2612
 5909TIP3    H239143   2.037   3.880   2.102  0.5294  1.1706 -0.0354
 5910TIP3   OH239144   2.163   3.761   0.639  0.2862  0.1275 -0.5585
 5910TIP3    H139145   2.070   3.757   0.615  0.0997 -1.2014  0.2711
 5910TIP3    H239146   2.203   3.688   0.592  0.9358  0.7575 -0.9909
 5911TIP3   OH239147   6.478   6.005  16.005 -0.2851  0.7518 -0.1262
 5911TIP3    H139148   6.554   6.063  16.018 -1.0202  1.4729  1.1602
 5911TIP3    H239149   6.498   5.927  16.057  0.2868  0.2134 -1.1155
 5912TIP3   OH239150   5.754   0.298   4.730  0.3951 -0.1695 -0.2582
 5912TIP3    H139151   5.768   0.346   4.648  0.7097  0.1740 -0.0058
 5912TIP3    H239152   5.716   0.363   4.789  1.4762 -0.0356  0.3082
 5913TIP3   OH239153   4.730   3.731  13.530 -0.0920  0.2252 -0.0741
 5913TIP3    H139154   4.761   3.812  13.569  0.3020  0.7584 -1.4162
 5913TIP3    H239155   4.711   3.674  13.604  4.1417 -0.1877  0.9719
 5914TIP3   OH239156   4.416   4.908  11.583 -0.3683  0.1186  0.1905
 5914TIP3    H139157   4.427   4.821  11.546 -0.1494 -1.1832  3.0244
 5914TIP3    H239158   4.321   4.923  11.583 -0.3659  0.1541 -0.8542
 5915TIP3   OH239159   6.100   1.712  12.057 -0.3113 -0.2742 -0.2928
 5915TIP3    H139160   6.063   1.627  12.079 -1.5061  0.2680 -0.1346
 5915TIP3    H239161   6.195   1.698  12.059 -0.3042 -0.6900  3.5156
 5916TIP3   OH239162   0.062   3.391   5.536  0.4638 -0.0385  0.7284
 5916TIP3    H139163   0.030   3.305   5.509 -0.3140  0.4312  0.0875
 5916TIP3    H239164   0.156   3.388   5.520  0.7634 -1.3948  2.4686
 5917TIP3   OH239165   0.927   2.338   4.227  0.7409  0.0646  0.7865
 5917TIP3    H139166   0.905   2.410   4.168  0.6664 -0.1852  0.5082
 5917TIP3    H239167   0.869   2.350   4.302 -0.1508 -0.4082  0.1994
 5918TIP3   OH239168   2.493   6.643  17.160  0.1900  0.2448  0.4317
 5918TIP3    H139169   2.538   6.562  17.134 -2.9632 -1.3528 -0.5861
 5918TIP3    H239170   2.495   6.697  17.081 -0.7296 -0.3867 -0.0460
 5919TIP3   OH239171   1.295   5.725  12.844 -0.1328 -0.0026  0.3109
 5919TIP3    H139172   1.300   5.819  12.828 -1.3039  0.1424  0.6744
 5919TIP3    H239173   1.202   5.709  12.864 -0.0849 -1.3331 -0.4049
 5920TIP3   OH239174   5.348   1.849  14.051  0.0516  0.2233  0.4465
 5920TIP3    H139175   5.264   1.879  14.015  0.1416  0.0103  0.0626
 5920TIP3    H239176   5.413   1.875  13.986  0.1959 -0.2939  0.3831
 5921TIP3   OH239177   4.460   5.899   0.509  0.7451 -0.2330 -0.0165
 5921TIP3    H139178   4.378   5.947   0.495 -0.4821 -2.1694  0.1207
 5921TIP3    H239179   4.459   5.874   0.601  1.6360 -0.0501  0.0540
 5922TIP3   OH239180   6.553   3.732   1.321 -0.0321  0.0751 -0.1116
 5922TIP3    H139181   6.543   3.738   1.416  1.7027 -0.0983  0.1115
 5922TIP3    H239182   6.600   3.650   1.306  0.0553  0.2844 -1.0842
 5923TIP3   OH239183   1.136   5.842   3.700 -0.4159  0.0459  0.7162
 5923TIP3    H139184   1.062   5.846   3.639  0.0705 -0.4851  0.0751
 5923TIP3    H239185   1.121   5.761   3.749 -0.3706  0.0486  0.7341
 5924TIP3   OH239186   0.905   6.620   4.893 -0.3170 -0.2663 -0.5177
 5924TIP3    H139187   0.871   6.627   4.982 -0.1440 -0.6657 -0.4204
 5924TIP3    H239188   0.919   6.711   4.866  0.1576 -0.1585  0.0704
 5925TIP3   OH239189   3.231   0.480  15.042  0.1769  0.0469  0.4123
 5925TIP3    H139190   3.319   0.455  15.071  0.2383  0.2386  0.3922
 5925TIP3    H239191   3.232   0.576  15.041  0.2694  0.0473 -0.4806
 5926TIP3   OH239192   1.934   6.520  15.240 -0.4609 -0.4918 -0.3551
 5926TIP3    H139193   2.027   6.541  15.254 -1.0547  1.5103  1.0037
 5926TIP3    H239194   1.934   6.429  15.212  2.0085 -0.1678 -1.6867
 5927TIP3   OH239195   3.538   1.413  16.143 -0.5407 -0.3875 -0.5915
 5927TIP3    H139196   3.518   1.441  16.054  4.7502  2.3167 -1.2842
 5927TIP3    H239197   3.516   1.489  16.197 -1.8455 -1.2961  0.2198
 5928TIP3   OH239198   3.908   2.103   3.784 -0.1821  0.5146 -1.0418
 5928TIP3    H139199   3.949   2.158   3.717  0.3931 -0.0115 -1.1380
 5928TIP3    H239200   3.978   2.085   3.847 -0.4061  0.0518 -0.9156
 5929TIP3   OH239201   1.310   4.089  12.004  0.0455  0.2122 -0.5991
 5929TIP3    H139202   1.289   4.139  11.925  2.3855  0.2346 -1.3031
 5929TIP3    H239203   1.314   3.998  11.974  2.1563  0.3388 -0.8863
 5930TIP3   OH239204   5.792   1.516  15.760  0.2420  0.4271 -0.3937
 5930TIP3    H139205   5.873   1.546  15.718 -0.2614  1.5450 -0.5850
 5930TIP3    H239206   5.795   1.554  15.848  0.5032 -0.5547  0.0388
 5931TIP3   OH239207   0.369   5.622  16.355 -0.5007 -0.5689  0.3005
 5931TIP3    H139208   0.278   5.596  16.342 -0.2086 -1.9144  0.7418
 5931TIP3    H239209   0.397   5.573  16.432  0.4400  0.2563  0.5034
 5932TIP3   OH239210   5.257   4.722   5.268  0.1842 -0.2117 -0.0581
 5932TIP3    H139211   5.306   4.653   5.224  2.6070  0.9712  0.6235
 5932TIP3    H239212   5.284   4.716   5.360 -1.0135  0.4756  0.3671
 5933TIP3   OH239213   6.255   4.349  16.837 -0.6357  0.1556 -0.1932
 5933TIP3    H139214   6.255   4.385  16.749 -1.5654 -0.1015 -0.3193
 5933TIP3    H239215   6.166   4.366  16.870  0.4423  2.7230  1.7560
 5934TIP3   OH239216   3.661   3.120  16.776 -0.0819  0.2455  0.6248
 5934TIP3    H139217   3.749   3.130  16.738 -0.0437 -1.3344  0.2565
 5934TIP3    H239218   3.667   3.042  16.830 -1.1905  0.2902  0.8289
 5935TIP3   OH239219   0.405   0.047   1.165  0.2309  0.0051  0.6240
 5935TIP3    H139220   0.393  -0.006   1.244  1.5433  0.4107  1.1148
 5935TIP3    H239221   0.465   0.117   1.192  0.3547  0.3930 -0.6216
 5936TIP3   OH239222   4.155   0.313  14.438  0.2087 -0.8564  0.1897
 5936TIP3    H139223   4.088   0.280  14.378 -0.0803 -0.4900  0.3059
 5936TIP3    H239224   4.178   0.399  14.403  1.6424 -1.5395 -0.6578
 5937TIP3   OH239225   4.757   3.036   3.024  0.0358 -0.3767  0.9510
 5937TIP3    H139226   4.802   3.041   2.940 -1.4024  0.4242  0.2008
 5937TIP3    H239227   4.825   3.006   3.085  1.3907  0.0732 -0.2681
 5938TIP3   OH239228   2.018   1.273   4.698  0.0227  0.0304 -0.0973
 5938TIP3    H139229   1.935   1.256   4.742  0.0348  0.3456  0.0554
 5938TIP3    H239230   2.009   1.363   4.665 -1.1830 -1.1491 -3.4035
 5939TIP3   OH239231   3.887   3.629   3.501  0.1689 -0.1908  0.6094
 5939TIP3    H139232   3.910   3.664   3.587 -0.2236 -0.8457  0.9941
 5939TIP3    H239233   3.892   3.534   3.512  0.5440 -0.2768 -0.2158
 5940TIP3   OH239234   4.364   6.254   1.381  0.6006  0.5957  0.2013
 5940TIP3    H139235   4.287   6.311   1.384 -0.1392 -0.2551 -1.3118
 5940TIP3    H239236   4.421   6.294   1.315  0.7023  0.3211  0.1214
 5941TIP3   OH239237   4.021   5.468  11.467 -0.3311 -0.4669 -0.5566
 5941TIP3    H139238   4.110   5.487  11.499 -0.5176 -1.6855  0.8065
 5941TIP3    H239239   4.034   5.423  11.384  0.5281 -3.2902  0.9865
 5942TIP3   OH239240   1.624   2.086   6.049  0.9546  0.3063  0.3174
 5942TIP3    H139241   1.550   2.084   5.990 -0.6938  0.8111  2.2555
 5942TIP3    H239242   1.589   2.054   6.133  2.9647  0.3987  1.2584
 5943TIP3   OH239243   5.424   3.162   0.421 -0.1813  0.1556 -0.1547
 5943TIP3    H139244   5.423   3.249   0.460  1.7846  0.0923  0.1269
 5943TIP3    H239245   5.349   3.117   0.461 -1.6757  1.8982 -0.8532
 5944TIP3   OH239246   2.267   6.154  13.235 -0.2981  0.4735 -0.2446
 5944TIP3    H139247   2.346   6.102  13.225 -0.9631 -1.2910  2.5261
 5944TIP3    H239248   2.277   6.197  13.320 -1.4874  1.7965 -0.7330
 5945TIP3   OH239249   4.098   4.915   3.608  0.0197 -0.5392 -0.1682
 5945TIP3    H139250   4.005   4.893   3.600  0.1371 -1.3854  0.5428
 5945TIP3    H239251   4.112   4.921   3.703  0.8770 -1.3267 -0.2339
 5946TIP3   OH239252   0.985   2.888   1.435 -0.4054 -0.3329 -0.1937
 5946TIP3    H139253   1.041   2.898   1.358 -0.3796 -1.6941 -0.3737
 5946TIP3    H239254   0.931   2.968   1.436 -0.1275 -0.1139 -1.3794
 5947TIP3   OH239255   3.077   3.820   0.599  0.2420  0.0060  0.2204
 5947TIP3    H139256   3.155   3.767   0.581 -1.2920 -2.0106 -0.8189
 5947TIP3    H239257   3.065   3.872   0.520 -0.2358 -0.7170 -0.1926
 5948TIP3   OH239258   2.139   6.703   2.104  0.1473 -0.1436  0.3943
 5948TIP3    H139259   2.062   6.648   2.092  0.3745 -0.3638 -0.0852
 5948TIP3    H239260   2.169   6.722   2.015 -1.1347  2.5114  0.4435
 5949TIP3   OH239261   3.288   2.434   1.061  0.5621 -0.2248 -0.2183
 5949TIP3    H139262   3.286   2.528   1.044  0.8254 -0.4556 -1.5663
 5949TIP3    H239263   3.345   2.424   1.138 -1.4716  0.9225  1.5577
 5950TIP3   OH239264   3.591   4.370  15.093 -0.5523  0.5151  0.0196
 5950TIP3    H139265   3.680   4.342  15.114 -1.5128 -0.2254  3.7903
 5950TIP3    H239266   3.599   4.462  15.070  1.1533  0.6100  0.8891
 5951TIP3   OH239267   2.850   3.288  12.727 -0.2284 -0.3092 -0.0447
 5951TIP3    H139268   2.799   3.257  12.652 -1.0692  3.0513 -1.0383
 5951TIP3    H239269   2.920   3.340  12.688 -0.6039  1.3979  1.4283
 5952TIP3   OH239270   1.145   5.617   3.343 -1.0237  0.0275 -0.1918
 5952TIP3    H139271   1.083   5.621   3.416 -0.5760  1.3779  0.1451
 5952TIP3    H239272   1.229   5.597   3.384 -0.8681  0.2480 -0.3982
 5953TIP3   OH239273   1.908   4.583  15.673 -0.1120  0.5493  0.0803
 5953TIP3    H139274   1.952   4.529  15.607  0.7222  1.8980 -0.4977
 5953TIP3    H239275   1.862   4.650  15.623 -2.7426 -0.6857  0.6800
 5954TIP3   OH239276   5.808   5.432   1.987 -0.1550 -0.0710 -0.1177
 5954TIP3    H139277   5.764   5.448   1.904  0.3585 -1.1419 -0.6167
 5954TIP3    H239278   5.792   5.340   2.006 -1.8417  0.5661  1.9451
 5955TIP3   OH239279   3.716   2.844  16.440 -0.2181 -0.1011 -0.2635
 5955TIP3    H139280   3.683   2.934  16.440  1.7076  0.6649 -1.3971
 5955TIP3    H239281   3.802   2.850  16.481 -0.6875 -1.7445  1.0728
 5956TIP3   OH239282   1.706   1.531   3.503  0.2727  0.1819  0.3554
 5956TIP3    H139283   1.738   1.457   3.451  0.3651  1.1944 -1.0861
 5956TIP3    H239284   1.611   1.522   3.502  0.2980 -0.1488  0.5683
 5957TIP3   OH239285   0.929   2.003  12.867 -0.5639 -0.6386 -0.1588
 5957TIP3    H139286   0.851   1.996  12.922  0.0216  1.6435  1.0992
 5957TIP3    H239287   0.902   2.060  12.795 -0.8662 -2.3290 -1.4525
 5958TIP3   OH239288   0.280   3.243   2.110  0.2163 -0.3312  0.1375
 5958TIP3    H139289   0.290   3.313   2.175  0.6648 -0.9130  0.7196
 5958TIP3    H239290   0.324   3.276   2.032 -0.4871  0.4526  0.0671
 5959TIP3   OH239291   0.720   4.649  11.442  0.0371  0.2292  0.0508
 5959TIP3    H139292   0.682   4.651  11.354 -1.8708  0.9545  0.8316
 5959TIP3    H239293   0.727   4.741  11.468 -1.2999  0.0032  1.3798
 5960TIP3   OH239294   1.238   4.909  13.325  0.6259 -0.5740 -0.0320
 5960TIP3    H139295   1.195   4.983  13.282  0.5343 -0.1768  0.7309
 5960TIP3    H239296   1.174   4.876  13.387  1.6241  0.4857  1.6437
 5961TIP3   OH239297   2.723   3.518   6.683 -0.6325  0.0800  0.4208
 5961TIP3    H139298   2.764   3.479   6.606  0.1417  1.4641  0.0897
 5961TIP3    H239299   2.713   3.611   6.660 -0.6929  0.4510  1.8633
 5962TIP3   OH239300   0.217   4.876  12.794  0.1645 -0.2388 -0.2630
 5962TIP3    H139301   0.218   4.817  12.870 -0.6450 -0.1727 -0.1981
 5962TIP3    H239302   0.265   4.954  12.823 -1.5851  0.4988  0.7730
 5963TIP3   OH239303   5.220   6.555   1.068 -0.2858  0.1061 -0.0441
 5963TIP3    H139304   5.272   6.572   1.146  0.5419  0.1022 -0.5800
 5963TIP3    H239305   5.158   6.628   1.064  0.3264  0.6463  0.0817
 5964TIP3   OH239306   2.812   4.372   1.765  0.6281  0.2594  0.1772
 5964TIP3    H139307   2.767   4.366   1.849 -0.1725 -1.0248 -0.3039
 5964TIP3    H239308   2.904   4.383   1.788  0.3836  0.2384  1.2254
 5965TIP3   OH239309   0.399   0.691   5.591  0.0918 -0.4669 -0.0717
 5965TIP3    H139310   0.486   0.685   5.551 -0.2534 -1.3630 -0.7265
 5965TIP3    H239311   0.345   0.734   5.524  0.2628  1.1204  0.7661
 5966TIP3   OH239312   0.717   3.456  16.341  0.0069  0.0468  0.0952
 5966TIP3    H139313   0.664   3.387  16.302 -0.0101 -1.4176  2.5419
 5966TIP3    H239314   0.698   3.533  16.287 -1.7574 -1.2832 -1.3219
 5967TIP3   OH239315   0.974   1.443   0.163  0.3090  0.2836 -0.4986
 5967TIP3    H139316   1.008   1.494   0.090 -1.4219  1.7293 -0.3481
 5967TIP3    H239317   1.012   1.484   0.241  0.1634  0.3364 -0.4558
 5968TIP3   OH239318   4.838   3.081  13.519 -0.2965 -0.6247 -0.1988
 5968TIP3    H139319   4.831   3.030  13.600 -2.9008  0.3716  0.3037
 5968TIP3    H239320   4.829   3.172  13.548  2.2473  0.0465 -1.2816
 5969TIP3   OH239321   6.603   0.535   6.094 -0.1669 -0.1653 -0.4563
 5969TIP3    H139322   6.584   0.446   6.122 -2.3300  0.9292  2.0011
 5969TIP3    H239323   6.683   0.559   6.141  0.3407 -0.7352 -1.0166
 5970TIP3   OH239324   0.132   3.704   2.267  0.0102  0.4921 -0.6669
 5970TIP3    H139325   0.037   3.716   2.273  0.0772  0.4091  1.8994
 5970TIP3    H239326   0.163   3.724   2.356  2.1435 -1.5443 -0.8817
 5971TIP3   OH239327   1.110   3.348  11.480  0.1930 -0.5446  0.4053
 5971TIP3    H139328   1.181   3.291  11.508  0.6542  0.3018  0.9939
 5971TIP3    H239329   1.120   3.354  11.385  0.2509 -1.2734  0.3567
 5972TIP3   OH239330   2.352   0.540   6.220 -0.3352 -0.1234  0.2266
 5972TIP3    H139331   2.421   0.596   6.254 -0.4619  0.1862 -0.0252
 5972TIP3    H239332   2.392   0.494   6.145 -0.3656 -0.0359  0.1568
 5973TIP3   OH239333   6.017   4.973  11.870  0.2603 -0.1256 -0.0774
 5973TIP3    H139334   5.995   4.936  11.956  2.1299 -0.2391  0.3985
 5973TIP3    H239335   6.111   4.989  11.875  0.0822  1.6592 -1.4465
 5974TIP3   OH239336   6.375   1.819   2.765  0.2483  0.3743 -0.0469
 5974TIP3    H139337   6.420   1.898   2.796 -0.2637 -0.4610  3.2359
 5974TIP3    H239338   6.282   1.838   2.781 -0.6752  1.3866 -5.0678
 5975TIP3   OH239339   2.730   2.910  17.153 -0.0163  0.9983  0.2047
 5975TIP3    H139340   2.776   2.983  17.112  0.9147  0.8159  0.8730
 5975TIP3    H239341   2.726   2.935  17.246 -1.9429  1.3441  0.0552
 5976TIP3   OH239342   1.949   4.262  16.626 -0.1348 -0.1373 -0.1157
 5976TIP3    H139343   1.879   4.287  16.686 -0.2395  1.3129 -0.7884
 5976TIP3    H239344   1.954   4.166  16.632 -2.5989 -0.3512 -0.4789
 5977TIP3   OH239345   6.088   5.496   3.229 -0.1736  0.3223  0.1642
 5977TIP3    H139346   6.080   5.447   3.311 -1.1461 -1.9176 -1.1939
 5977TIP3    H239347   6.158   5.559   3.246 -0.5976  0.1864  2.8171
 5978TIP3   OH239348   4.629   6.270   5.393  0.4083  0.2767  0.1899
 5978TIP3    H139349   4.717   6.284   5.428  0.6642 -0.7796  0.0236
 5978TIP3    H239350   4.588   6.356   5.396  1.0012  0.5480  1.4903
 5979TIP3   OH239351   0.994   5.560   3.607 -0.0933 -0.4341  0.1063
 5979TIP3    H139352   0.913   5.593   3.567 -1.6832 -3.3098  0.6661
 5979TIP3    H239353   1.003   5.610   3.688 -1.2257  0.0797 -0.0685
 5980TIP3   OH239354   5.314   1.514   5.032  0.5650  0.1738  0.5464
 5980TIP3    H139355   5.322   1.420   5.046 -1.0833  0.1069  1.2410
 5980TIP3    H239356   5.235   1.524   4.979  1.1400  1.1242 -0.1548
 5981TIP3   OH239357   1.118   0.273   2.570  0.1225 -0.1323  0.1312
 5981TIP3    H139358   1.198   0.223   2.555 -0.4917 -1.4088  0.9453
 5981TIP3    H239359   1.071   0.271   2.487 -0.5477 -2.1591  0.5086
 5982TIP3   OH239360   4.321   1.017  16.152 -0.3920  0.0837 -0.5506
 5982TIP3    H139361   4.344   1.097  16.104  0.1864 -0.1070 -0.6008
 5982TIP3    H239362   4.278   0.962  16.088 -1.0737  0.4702 -0.4420
 5983TIP3   OH239363   6.601   6.190   2.634  0.0206 -0.4105  0.0465
 5983TIP3    H139364   6.638   6.121   2.580 -1.5404 -1.3206  0.0728
 5983TIP3    H239365   6.650   6.268   2.610  0.2685 -1.0568 -1.7202
 5984TIP3   OH239366   4.658   1.839  11.136 -0.3173 -0.1192 -0.3226
 5984TIP3    H139367   4.657   1.772  11.068  2.7498 -0.8256  0.1763
 5984TIP3    H239368   4.736   1.820  11.188 -0.8632  2.2046  1.5574
 5985TIP3   OH239369   2.221   0.413  11.455  0.4561 -0.4312  0.6412
 5985TIP3    H139370   2.287   0.476  11.483  0.5085 -0.5883  0.8725
 5985TIP3    H239371   2.178   0.386  11.536 -0.6222  0.4741  0.4015
 5986TIP3   OH239372   3.281   1.911  13.465 -0.2646 -0.4709 -0.1333
 5986TIP3    H139373   3.327   1.971  13.406 -2.8680 -0.1756 -2.0739
 5986TIP3    H239374   3.233   1.969  13.524 -2.1059 -0.5580 -1.4594
 5987TIP3   OH239375   0.711   5.015  14.542 -0.2613 -0.5773  0.7218
 5987TIP3    H139376   0.667   5.024  14.457 -0.6408  1.1455  1.0711
 5987TIP3    H239377   0.670   5.080  14.598  2.6567  1.1020  1.1110
 5988TIP3   OH239378   2.267   2.648  14.993  0.0388 -0.0767 -0.4024
 5988TIP3    H139379   2.275   2.567  14.943 -0.1983  0.0957 -0.7225
 5988TIP3    H239380   2.173   2.659  15.007  0.1679 -1.2609  1.9864
 5989TIP3   OH239381   2.531   5.647   1.405 -0.2665  0.2393 -0.5479
 5989TIP3    H139382   2.563   5.734   1.429 -1.7055  0.6785 -0.1010
 5989TIP3    H239383   2.505   5.655   1.313  0.2771  0.0703 -0.7182
 5990TIP3   OH239384   6.510   4.544  13.618 -0.6779  0.1451  0.6479
 5990TIP3    H139385   6.460   4.492  13.555  0.7221 -1.6967  0.9765
 5990TIP3    H239386   6.540   4.620  13.569  1.6689 -1.9738 -1.4436
 5991TIP3   OH239387   6.089   5.590  11.738 -0.2799  0.0565  0.1452
 5991TIP3    H139388   6.066   5.659  11.675 -0.3541  0.6700  0.8325
 5991TIP3    H239389   6.159   5.628  11.790 -1.9380  0.5863  2.1444
 5992TIP3   OH239390   2.120   3.348   4.833 -0.0414  0.2378  0.5966
 5992TIP3    H139391   2.108   3.273   4.891 -1.3532 -0.8153 -0.9251
 5992TIP3    H239392   2.071   3.325   4.754  1.7741  1.5147 -1.0130
 5993TIP3   OH239393   4.866   0.469  12.787  0.2164  0.2163 -0.0746
 5993TIP3    H139394   4.889   0.558  12.813  1.6905 -0.2271  0.2795
 5993TIP3    H239395   4.867   0.471  12.691 -3.5615  1.4486 -0.2236
 5994TIP3   OH239396   5.593   4.838  13.916  0.2816  0.7172 -0.3060
 5994TIP3    H139397   5.657   4.896  13.958  0.2643  0.0350  0.6779
 5994TIP3    H239398   5.526   4.898  13.883  1.6863  1.5158 -1.8999
 5995TIP3   OH239399   3.358   0.101  15.596 -0.1775 -0.3761 -0.6309
 5995TIP3    H139400   3.311   0.033  15.644 -0.4340  0.8221  0.8755
 5995TIP3    H239401   3.421   0.136  15.658  0.0265  0.6847 -1.4089
 5996TIP3   OH239402   2.238   3.217  14.897 -0.2142  0.0150  0.6296
 5996TIP3    H139403   2.153   3.234  14.858  0.7692 -0.9833 -2.2626
 5996TIP3    H239404   2.225   3.140  14.952 -0.9659 -0.9368 -0.8251
 5997TIP3   OH239405   5.941   3.166  11.925  0.3034  0.3284 -0.4378
 5997TIP3    H139406   5.957   3.260  11.921  0.9173  0.1872 -1.6195
 5997TIP3    H239407   6.001   3.128  11.861 -0.3873 -0.8161 -0.4466
 5998TIP3   OH239408   2.458   1.446  14.979  0.7606  0.2442  0.2619
 5998TIP3    H139409   2.391   1.496  15.025 -0.9011 -1.2945 -0.3668
 5998TIP3    H239410   2.429   1.444  14.888  1.9794  0.0239 -0.1414
 5999TIP3   OH239411   0.456   6.301   0.482 -0.4741 -0.4979 -0.1201
 5999TIP3    H139412   0.431   6.209   0.491  0.3028 -0.8782 -1.5322
 5999TIP3    H239413   0.551   6.300   0.478 -0.4349  0.4194  0.1980
 6000TIP3   OH239414   3.104   3.701   4.537  0.1548  0.2830 -0.1061
 6000TIP3    H139415   3.152   3.629   4.495 -0.5857 -0.1062 -0.3185
 6000TIP3    H239416   3.072   3.663   4.619 -1.3065 -0.0483 -0.7973
 6001TIP3   OH239417   1.500   1.349   5.746  0.1261 -0.3255 -0.0419
 6001TIP3    H139418   1.469   1.349   5.656  0.4138  1.8851 -0.2082
 6001TIP3    H239419   1.509   1.442   5.768  1.8050 -0.8321  1.6600
 6002TIP3   OH239420   5.118   4.541   5.982 -0.4173  0.0578 -0.8599
 6002TIP3    H139421   5.041   4.513   6.031  0.3519 -0.9353 -0.1701
 6002TIP3    H239422   5.150   4.618   6.029 -0.6445  0.1099 -0.7908
 6003TIP3   OH239423   0.294   2.616  13.231  0.3063  0.0771  0.5918
 6003TIP3    H139424   0.253   2.695  13.263  1.5547  0.9469  0.1435
 6003TIP3    H239425   0.237   2.586  13.160 -0.9084 -0.2387  1.6635
 6004TIP3   OH239426   2.206   1.049   4.795  0.1631  0.0145  0.4472
 6004TIP3    H139427   2.117   1.014   4.806  0.5182 -0.3628  2.5565
 6004TIP3    H239428   2.260   0.972   4.778  0.4037 -0.0694  1.4986
 6005TIP3   OH239429   6.469   0.137  15.666 -0.3799  0.7124 -0.2997
 6005TIP3    H139430   6.564   0.147  15.659 -0.2623  0.6299  0.9268
 6005TIP3    H239431   6.454   0.043  15.655 -0.4962  0.9059 -2.0382
 6006TIP3   OH239432   6.291   6.737  15.325  0.0630 -0.2694 -0.4053
 6006TIP3    H139433   6.335   6.654  15.342  1.3748  0.3545 -0.6772
 6006TIP3    H239434   6.248   6.724  15.240 -0.7117 -1.0409  0.0847
 6007TIP3   OH239435   2.701   4.095  13.569 -0.9349 -0.1591 -0.0727
 6007TIP3    H139436   2.612   4.074  13.596 -0.8416 -1.8605 -0.9468
 6007TIP3    H239437   2.704   4.073  13.476  0.0616  1.0555 -0.3618
 6008TIP3   OH239438   2.368   1.336   1.784 -0.2515  0.2603  0.0115
 6008TIP3    H139439   2.274   1.319   1.788  0.1495 -2.2372  2.4094
 6008TIP3    H239440   2.408   1.249   1.787  2.2302  1.0624 -3.2663
 6009TIP3   OH239441   5.918   0.199  11.820 -0.1182 -0.6586 -0.3942
 6009TIP3    H139442   5.993   0.142  11.837  1.1935  1.1622  0.1508
 6009TIP3    H239443   5.954   0.275  11.775 -1.7043  0.0737 -0.5096
 6010TIP3   OH239444   6.311   4.817   0.945  0.5316  0.3722  0.7063
 6010TIP3    H139445   6.369   4.886   0.911 -0.6128  0.4589 -1.2269
 6010TIP3    H239446   6.253   4.798   0.872 -0.9032 -0.7757  2.1042
 6011TIP3   OH239447   6.496   5.263   1.789 -0.6886  0.3769  0.1471
 6011TIP3    H139448   6.502   5.187   1.732  0.1413 -0.2459  1.0364
 6011TIP3    H239449   6.442   5.325   1.740  0.1545 -0.0427 -1.4073
 6012TIP3   OH239450   3.809   6.574   1.250  0.3045 -0.2324 -0.1760
 6012TIP3    H139451   3.848   6.550   1.334 -1.2920 -0.3101  0.5750
 6012TIP3    H239452   3.715   6.583   1.268 -0.2495 -1.2830 -2.1631
 6013TIP3   OH239453   2.930   0.772  15.569 -0.0294  0.2999 -0.1013
 6013TIP3    H139454   2.846   0.790  15.611 -0.2940 -0.6848 -0.1895
 6013TIP3    H239455   2.995   0.784  15.638 -0.0328  2.8056 -0.4392
 6014TIP3   OH239456   6.189   5.079   1.646  0.2267  0.4320  0.1395
 6014TIP3    H139457   6.132   5.072   1.569 -0.5706 -0.0623  0.7554
 6014TIP3    H239458   6.276   5.098   1.611 -0.1439  0.2845 -0.8753
 6015TIP3   OH239459   6.442   3.322  15.892  0.0715  0.0793 -0.3847
 6015TIP3    H139460   6.436   3.334  15.798  1.3815 -0.8903 -0.6127
 6015TIP3    H239461   6.535   3.332  15.912  0.1764 -2.0853  0.4356
 6016TIP3   OH239462   4.470   0.306   4.180  0.0221 -0.3251 -0.2359
 6016TIP3    H139463   4.463   0.399   4.201  1.1025 -0.2884  0.0637
 6016TIP3    H239464   4.461   0.302   4.085  2.8449  0.4774 -0.6259
 6017TIP3   OH239465   3.601   3.069  14.416  0.0531 -0.0127 -0.0051
 6017TIP3    H139466   3.569   3.156  14.440 -0.2498 -0.2089  0.3033
 6017TIP3    H239467   3.694   3.071  14.435  0.3103  0.6752 -1.2157
 6018TIP3   OH239468   2.890   5.147  15.295 -0.3435  0.6361 -0.4061
 6018TIP3    H139469   2.985   5.141  15.300 -0.2247  1.5322 -1.4122
 6018TIP3    H239470   2.867   5.098  15.215 -0.8653 -0.6888  0.5059
 6019TIP3   OH239471   6.013   5.502   4.946  0.3628 -0.0823  0.4446
 6019TIP3    H139472   6.011   5.527   5.039  2.0037  0.2485  0.4250
 6019TIP3    H239473   5.969   5.417   4.943  0.9649 -0.4617  1.6591
 6020TIP3   OH239474   0.766   4.868  13.562  0.0632 -0.2721 -0.3749
 6020TIP3    H139475   0.744   4.922  13.486 -0.1175  0.9697  0.5241
 6020TIP3    H239476   0.741   4.922  13.637  0.9526 -1.1522  0.5813
 6021TIP3   OH239477   2.271   3.238  15.831 -0.4041 -0.3845 -0.3787
 6021TIP3    H139478   2.235   3.173  15.891  0.8807 -0.0803  0.7721
 6021TIP3    H239479   2.357   3.258  15.867  0.9058 -1.0165 -2.9382
 6022TIP3   OH239480   2.177   3.466   1.433  0.3388  0.2587 -0.0308
 6022TIP3    H139481   2.196   3.525   1.360 -1.6927  0.0795 -0.7934
 6022TIP3    H239482   2.150   3.384   1.391  0.8020 -0.4358  0.9748
 6023TIP3   OH239483   4.500   0.566   1.926 -0.2878 -0.3914  0.0359
 6023TIP3    H139484   4.457   0.540   1.844  1.1649  1.8772 -1.5476
 6023TIP3    H239485   4.485   0.660   1.933 -1.2357 -0.6414  3.0016
 6024TIP3   OH239486   2.325   1.730  16.836  0.6286 -0.3767  0.4155
 6024TIP3    H139487   2.372   1.777  16.768 -1.5688  2.3845  0.6260
 6024TIP3    H239488   2.375   1.746  16.916  1.2569 -0.5231  0.0494
 6025TIP3   OH239489   4.832   0.062  12.791  0.0653 -0.5863 -0.1852
 6025TIP3    H139490   4.907   0.116  12.816  0.5514 -2.0022  1.5939
 6025TIP3    H239491   4.763   0.125  12.769  1.9005  0.7778 -2.5490
 6026TIP3   OH239492   3.102   1.998  17.074 -0.5950 -0.2011  0.3541
 6026TIP3    H139493   3.102   2.035  16.986  0.2141  0.6026  0.6730
 6026TIP3    H239494   3.194   2.004  17.102 -1.4313  4.1088  3.0775
 6027TIP3   OH239495   1.259   4.201  16.869 -0.2776  0.1783  0.2358
 6027TIP3    H139496   1.240   4.222  16.778 -1.9101 -1.2395  0.1844
 6027TIP3    H239497   1.323   4.130  16.865 -0.6307 -0.1400  0.1659
 6028TIP3   OH239498   5.553   5.504  13.030 -0.1272 -0.3093  0.0258
 6028TIP3    H139499   5.546   5.476  13.121 -1.3417 -0.0509  0.0236
 6028TIP3    H239500   5.464   5.528  13.005  0.3369  0.4716 -0.9576
 6029TIP3   OH239501   1.144   3.026   5.465  0.2976 -0.1535 -0.0608
 6029TIP3    H139502   1.155   3.118   5.440 -1.6560  0.4403  1.1083
 6029TIP3    H239503   1.072   3.026   5.527 -0.7495 -2.6786 -1.1383
 6030TIP3   OH239504   2.831   5.988  13.322 -0.6495 -0.0640  0.0902
 6030TIP3    H139505   2.817   5.981  13.227 -1.9654 -0.3475  0.2878
 6030TIP3    H239506   2.913   5.941  13.337 -0.6813 -0.4456 -0.8440
 6031TIP3   OH239507   3.253   2.376  16.167 -0.1005 -0.3193  0.2153
 6031TIP3    H139508   3.313   2.319  16.121 -0.2879 -0.4248  0.0996
 6031TIP3    H239509   3.301   2.403  16.246  0.7956  1.0791 -0.7776
 6032TIP3   OH239510   1.048   1.259   5.506 -0.1634  0.2627 -0.4822
 6032TIP3    H139511   0.987   1.186   5.502  1.1417 -0.9120  0.0222
 6032TIP3    H239512   1.094   1.257   5.422 -0.5331  0.9019 -0.7091
 6033TIP3   OH239513   4.637   0.510  15.391  0.3376 -0.5576  0.6232
 6033TIP3    H139514   4.670   0.457  15.319 -0.0989 -1.6683  1.2090
 6033TIP3    H239515   4.564   0.459  15.426  0.4954 -0.0072  1.7935
 6034TIP3   OH239516   0.439   2.580   2.453  0.1388 -0.0314 -0.1286
 6034TIP3    H139517   0.358   2.626   2.475  0.0930 -0.5689  0.8813
 6034TIP3    H239518   0.456   2.524   2.528 -0.2783 -2.3935 -1.6871
 6035TIP3   OH239519   1.293   5.978  12.772 -0.0223 -0.4528  0.1561
 6035TIP3    H139520   1.212   5.997  12.724  0.6394  0.2226 -0.7569
 6035TIP3    H239521   1.358   6.035  12.731  0.6291  0.0181  1.7646
 6036TIP3   OH239522   6.487   3.958  16.003 -0.2896 -0.3717  0.4568
 6036TIP3    H139523   6.401   3.946  16.043 -1.2373 -0.2648 -1.4481
 6036TIP3    H239524   6.502   3.877  15.955  0.9148 -0.5796  1.1378
 6037TIP3   OH239525   4.747   5.040  12.226  0.1413  0.6200  0.6027
 6037TIP3    H139526   4.653   5.049  12.240 -0.4697 -0.9106 -1.8467
 6037TIP3    H239527   4.772   5.121  12.182 -0.4804  0.2548 -0.4761
 6038TIP3   OH239528   4.879   6.226   5.262 -0.2713 -0.1485 -0.1564
 6038TIP3    H139529   4.964   6.224   5.219 -0.6789 -1.3257 -0.9521
 6038TIP3    H239530   4.847   6.315   5.248  0.1532 -0.1523 -1.2194
 6039TIP3   OH239531   2.731   5.364   2.200 -0.6006  0.4184  0.0518
 6039TIP3    H139532   2.644   5.330   2.222 -0.9257  1.3085  0.2008
 6039TIP3    H239533   2.718   5.459   2.191 -0.0040  0.3571 -1.6959
 6040TIP3   OH239534   6.694   4.655  10.385 -0.4657 -0.2599 -0.8573
 6040TIP3    H139535   6.676   4.648  10.291 -0.4230 -0.2520 -0.8667
 6040TIP3    H239536   6.609   4.646  10.427 -0.6513  0.9156 -0.9575
 6041TIP3   OH239537   4.277   2.055  17.362 -0.1667 -0.1326 -0.8791
 6041TIP3    H139538   4.200   2.021  17.316 -0.6557  1.3923 -1.2448
 6041TIP3    H239539   4.325   1.977  17.389 -1.5420 -1.1100 -1.1484
 6042TIP3   OH239540   2.084   6.196   1.501  0.8523  0.3994 -0.1932
 6042TIP3    H139541   2.041   6.281   1.507 -1.3319 -0.5940 -0.8497
 6042TIP3    H239542   2.135   6.201   1.420  0.1893  0.8629 -0.5904
 6043TIP3   OH239543   1.119   3.569  15.473  0.0894 -0.0177  0.0397
 6043TIP3    H139544   1.042   3.621  15.496  1.1763  1.8884 -0.3977
 6043TIP3    H239545   1.136   3.591  15.382  1.7609  0.4660  0.4337
 6044TIP3   OH239546   5.664   3.158   0.913  0.1244  0.5275 -0.3273
 6044TIP3    H139547   5.754   3.189   0.923  0.4488  0.2769 -2.0962
 6044TIP3    H239548   5.656   3.086   0.975  0.6927  1.3926  0.8000
 6045TIP3   OH239549   0.228   5.965   4.220  0.0638  0.7751 -0.4247
 6045TIP3    H139550   0.186   5.882   4.197 -0.2050  1.1361 -1.3079
 6045TIP3    H239551   0.309   5.966   4.170  0.5035  0.6650  0.2682
 6046TIP3   OH239552   5.343   3.609   1.163 -0.2667  0.2544  0.1671
 6046TIP3    H139553   5.273   3.640   1.220  0.4012 -0.7324  1.5927
 6046TIP3    H239554   5.404   3.564   1.222 -0.0910 -1.7959 -1.4436
 6047TIP3   OH239555   1.004   5.080  13.084 -0.4178 -0.0398 -0.6120
 6047TIP3    H139556   0.997   5.047  13.173 -1.1603 -1.0982 -1.0445
 6047TIP3    H239557   0.946   5.157  13.082 -1.2925 -0.6731 -0.4597
 6048TIP3   OH239558   4.444   6.521   5.639 -0.2091  0.2759 -0.3307
 6048TIP3    H139559   4.520   6.571   5.669  0.1121 -0.4457  0.0901
 6048TIP3    H239560   4.382   6.587   5.608  0.3893  0.9006 -0.2124
 6049TIP3   OH239561   0.911   3.577   0.000 -0.0176 -0.1566 -0.0743
 6049TIP3    H139562   0.914   3.579   0.096  0.1706  3.0241 -0.0494
 6049TIP3    H239563   0.989   3.528  -0.026 -0.7227 -2.1633  1.3486
 6050TIP3   OH239564   0.437   5.313   5.093 -0.0531 -0.1065  0.3014
 6050TIP3    H139565   0.498   5.380   5.063  1.4754 -1.1228  0.9823
 6050TIP3    H239566   0.362   5.320   5.033  0.6058  1.3544 -0.4064
 6051TIP3   OH239567   1.151   3.138  12.038  0.4012  0.4159  0.0254
 6051TIP3    H139568   1.089   3.176  11.975 -0.0018 -3.5434 -2.2968
 6051TIP3    H239569   1.236   3.170  12.009  0.1292 -0.5730 -2.0510
 6052TIP3   OH239570   1.049   0.369   2.267 -0.6401 -0.4375  0.0538
 6052TIP3    H139571   0.984   0.366   2.197  0.1541  1.8713 -0.8655
 6052TIP3    H239572   0.999   0.397   2.344 -1.2517 -1.5849  0.0937
 6053TIP3   OH239573   4.512   3.525   1.824  0.8359  0.3222 -0.1088
 6053TIP3    H139574   4.503   3.496   1.734  2.2626 -1.7565  0.3558
 6053TIP3    H239575   4.607   3.529   1.839  0.6244  0.3960  1.3738
 6054TIP3   OH239576   0.655   3.232  13.414  0.4729 -0.1142  0.8120
 6054TIP3    H139577   0.696   3.316  13.435 -0.4284  0.7565 -0.7170
 6054TIP3    H239578   0.562   3.247  13.430  0.1687 -0.4320 -0.5588
 6055TIP3   OH239579   5.887   4.951  11.638 -0.0373 -0.2980  0.3846
 6055TIP3    H139580   5.927   4.950  11.725  1.8034  0.4106 -0.4025
 6055TIP3    H239581   5.830   4.875  11.637  1.3025 -1.3715  1.6055
 6056TIP3   OH239582   3.967   0.295  14.214  0.7766  0.2440 -0.3271
 6056TIP3    H139583   3.939   0.228  14.151  0.1490  2.1545 -2.1935
 6056TIP3    H239584   3.997   0.368  14.160  1.6732  1.4095  1.6300
 6057TIP3   OH239585   1.423   0.543  16.576  0.0512  0.8571 -0.3600
 6057TIP3    H139586   1.472   0.483  16.521  0.1744  1.5942 -1.0793
 6057TIP3    H239587   1.441   0.630  16.539  2.3274  1.7475  2.3996
 6058TIP3   OH239588   2.493   4.596   1.272  0.3542  0.2338 -0.0569
 6058TIP3    H139589   2.493   4.686   1.306 -0.3911  0.4399 -0.5673
 6058TIP3    H239590   2.436   4.548   1.332  1.0353  0.0183  0.4196
 6059TIP3   OH239591   6.316   0.463  16.608 -0.7185 -0.2979 -0.7549
 6059TIP3    H139592   6.309   0.519  16.531 -1.1408  1.6140  0.5950
 6059TIP3    H239593   6.226   0.440  16.630 -0.6516 -0.3063 -0.4763
 6060TIP3   OH239594   3.169   5.025   5.286  0.2193 -0.4808 -0.1163
 6060TIP3    H139595   3.195   5.082   5.359  0.8240 -2.3399  1.2171
 6060TIP3    H239596   3.075   5.010   5.299 -0.4960  1.9454 -1.8154
 6061TIP3   OH239597   6.026   0.959  11.389  0.1612  0.5132  0.3359
 6061TIP3    H139598   6.028   0.894  11.319  0.4393  1.0078 -0.1300
 6061TIP3    H239599   5.998   1.039  11.346  0.4721  0.8571  0.7618
 6062TIP3   OH239600   1.143   6.504  14.632  0.2687  0.2894  0.6788
 6062TIP3    H139601   1.058   6.541  14.657 -0.8220 -1.2692 -0.5641
 6062TIP3    H239602   1.174   6.561  14.562 -0.3101  0.1977  0.3429
 6063TIP3   OH239603   6.689   6.482  13.669  0.0038  0.4810 -0.6172
 6063TIP3    H139604   6.642   6.529  13.738 -0.5480 -2.6175  1.3242
 6063TIP3    H239605   6.620   6.443  13.615  0.4104  0.4226 -1.1008
 6064TIP3   OH239606   4.258   6.228  11.910  0.4105 -0.0078 -0.2895
 6064TIP3    H139607   4.276   6.321  11.894 -1.7303  0.7417  1.1260
 6064TIP3    H239608   4.319   6.204  11.980 -0.6886  1.1181  1.1308
 6065TIP3   OH239609   5.950   2.236  14.701 -0.9469 -0.0346 -0.2717
 6065TIP3    H139610   5.954   2.141  14.701  2.3223 -0.0329 -2.3045
 6065TIP3    H239611   5.879   2.257  14.640 -3.0433 -1.0293  1.6728
 6066TIP3   OH239612   3.380   5.879  13.205 -0.0436 -0.4396 -0.1800
 6066TIP3    H139613   3.338   5.825  13.137 -0.4038 -0.9611  0.4393
 6066TIP3    H239614   3.375   5.825  13.284 -2.1386  1.2414  0.9236
 6067TIP3   OH239615   4.811   0.437   0.578  0.0136  0.5699  0.6389
 6067TIP3    H139616   4.847   0.429   0.490 -1.5739  0.0408  0.0015
 6067TIP3    H239617   4.878   0.400   0.635  0.1880 -1.0718 -0.5623
 6068TIP3   OH239618   6.358   6.679  14.104 -0.1033 -0.1437 -0.4101
 6068TIP3    H139619   6.301   6.627  14.048 -1.2375  0.3839  0.2261
 6068TIP3    H239620   6.325   6.663  14.193  0.5952  0.3616 -0.0485
 6069TIP3   OH239621   6.523   4.157  16.846  0.6668 -0.6474 -0.1290
 6069TIP3    H139622   6.529   4.104  16.767  2.4728 -0.4602 -0.1585
 6069TIP3    H239623   6.608   4.202  16.852  0.8977 -1.2496  2.2932
 6070TIP3   OH239624   2.903   6.293  13.194  0.1900 -1.0154  0.3196
 6070TIP3    H139625   2.968   6.224  13.184  1.0346 -0.5732  2.3564
 6070TIP3    H239626   2.953   6.373  13.211 -0.8306 -0.6205  1.7253
 6071TIP3   OH239627   3.273   5.487  14.697  0.5138 -0.6932  0.1318
 6071TIP3    H139628   3.232   5.542  14.764 -0.9753  2.0701 -2.7791
 6071TIP3    H239629   3.210   5.416  14.684 -1.1226  0.8463 -0.8841
 6072TIP3   OH239630   3.198   3.125   4.753  0.2699  0.4293  0.1480
 6072TIP3    H139631   3.224   3.053   4.811  1.8136  1.4015  0.7370
 6072TIP3    H239632   3.135   3.176   4.805  1.9915  1.5562  1.2345
 6073TIP3   OH239633   0.375   2.558  14.775 -0.4544  0.4741 -0.3113
 6073TIP3    H139634   0.442   2.614  14.814 -0.9789  0.5645  0.4757
 6073TIP3    H239635   0.292   2.601  14.796 -0.9117 -0.9394  0.9220
 6074TIP3   OH239636   4.224   6.738  14.043 -0.3126 -0.3236 -0.0832
 6074TIP3    H139637   4.134   6.731  14.010 -0.1893  2.9492 -1.6093
 6074TIP3    H239638   4.215   6.787  14.125 -0.0555 -2.4666  1.2944
 6075TIP3   OH239639   2.625   5.162   4.741  0.3627 -0.1094  0.4432
 6075TIP3    H139640   2.616   5.082   4.793 -0.3425  0.3885  1.1130
 6075TIP3    H239641   2.634   5.232   4.806 -0.4258  0.5095 -0.0956
 6076TIP3   OH239642   4.052   3.675  16.462 -0.4510 -0.7614  0.4401
 6076TIP3    H139643   4.106   3.603  16.495 -0.7834 -0.9032  0.6749
 6076TIP3    H239644   3.988   3.691  16.531 -1.0527 -0.9535 -0.0627
 6077TIP3   OH239645   5.289   3.689  14.959 -0.2605  0.2362  0.1734
 6077TIP3    H139646   5.263   3.619  15.019  0.3661  0.5188  0.7956
 6077TIP3    H239647   5.217   3.696  14.897  0.3430 -2.0573 -0.9115
 6078TIP3   OH239648   1.339   0.250   4.341 -0.3651  0.0573 -0.1804
 6078TIP3    H139649   1.263   0.306   4.360 -0.2750  0.2736 -0.4484
 6078TIP3    H239650   1.405   0.276   4.405 -1.1114 -1.3723  1.2475
 6079TIP3   OH239651   2.228   5.834  13.268  0.1075  0.1836 -0.2629
 6079TIP3    H139652   2.253   5.926  13.280 -2.4815  0.9615 -0.0533
 6079TIP3    H239653   2.178   5.834  13.186 -1.7773 -0.5419  0.8031
 6080TIP3   OH239654   5.281   0.649   6.438 -0.2982 -0.1696  0.9748
 6080TIP3    H139655   5.241   0.572   6.478  1.0784 -0.1897  2.4229
 6080TIP3    H239656   5.271   0.718   6.504 -0.9376  0.7313 -0.0372
 6081TIP3   OH239657   3.309   2.546   5.321  0.1431  0.2310  0.6368
 6081TIP3    H139658   3.336   2.467   5.369  1.5044  0.3512  0.1049
 6081TIP3    H239659   3.355   2.617   5.366 -1.5544  0.8388  1.5014
 6082TIP3   OH239660   2.810   5.548   3.918  0.2653  0.1568 -0.4988
 6082TIP3    H139661   2.777   5.619   3.972 -0.5852 -0.3459 -0.3316
 6082TIP3    H239662   2.878   5.588   3.865 -0.1076  1.0669 -0.3186
 6083TIP3   OH239663   4.631   5.513   3.876  0.5658 -0.3682  0.4913
 6083TIP3    H139664   4.551   5.564   3.862  0.9349  0.3924  1.0571
 6083TIP3    H239665   4.614   5.465   3.958  1.8299  2.2440  2.4427
 6084TIP3   OH239666   3.818   3.983   4.334  0.2836  0.5570 -0.2560
 6084TIP3    H139667   3.774   4.010   4.254 -0.6695 -1.9053 -0.6587
 6084TIP3    H239668   3.843   3.892   4.318  0.3339  0.0880  2.1226
 6085TIP3   OH239669   2.892   5.006  16.940 -0.2906 -0.1947 -0.1446
 6085TIP3    H139670   2.929   4.928  16.897  0.3692  0.5449 -0.9567
 6085TIP3    H239671   2.806   5.018  16.899 -1.0550 -1.3457  1.0473
 6086TIP3   OH239672   5.252   2.098  16.970 -0.3806 -0.1865 -0.2840
 6086TIP3    H139673   5.302   2.097  17.052  0.9937 -1.7925 -1.0965
 6086TIP3    H239674   5.318   2.113  16.902 -1.1035 -1.5243 -1.3113
 6087TIP3   OH239675   1.498   4.087   1.388  0.3169  0.0862 -0.2326
 6087TIP3    H139676   1.565   4.020   1.372 -0.6357 -0.6126 -1.4281
 6087TIP3    H239677   1.416   4.039   1.392 -0.3659  1.1667 -0.8649
 6088TIP3   OH239678   3.547   2.775  16.664 -0.0463  0.0250 -0.1997
 6088TIP3    H139679   3.579   2.809  16.581 -1.8569  2.5080 -0.0051
 6088TIP3    H239680   3.551   2.850  16.724  1.9862 -1.8781  2.2911
 6089TIP3   OH239681   2.398   4.428   5.857 -0.3765  0.3359 -0.1502
 6089TIP3    H139682   2.320   4.400   5.810 -0.3812 -0.2107  0.1740
 6089TIP3    H239683   2.431   4.503   5.807 -1.2488  0.7340 -0.1396
 6090TIP3   OH239684   6.519   1.963  16.147  0.2894  0.3534 -0.4349
 6090TIP3    H139685   6.445   1.934  16.200  1.9891  0.3577  2.1295
 6090TIP3    H239686   6.545   1.886  16.097 -0.1279 -0.2674  0.2827
 6091TIP3   OH239687   3.654   4.627  16.865  0.4407 -0.2774  0.7299
 6091TIP3    H139688   3.593   4.579  16.921 -0.0591 -0.1173  0.3264
 6091TIP3    H239689   3.693   4.692  16.924 -0.0986 -0.0924  0.8887
 6092TIP3   OH239690   2.763   4.830  11.451  1.1911  0.3925 -0.3501
 6092TIP3    H139691   2.669   4.849  11.451  1.4578  1.7965  0.3637
 6092TIP3    H239692   2.798   4.887  11.382  1.3948 -0.9561 -1.4095
 6093TIP3   OH239693   6.266   0.918  16.842  0.5309 -0.3468 -0.2288
 6093TIP3    H139694   6.338   0.947  16.899  1.5836  0.7905 -2.0383
 6093TIP3    H239695   6.205   0.875  16.901  0.4961  2.6173  2.1694
 6094TIP3   OH239696   2.764   1.122  17.268 -0.2644  0.2746 -0.4528
 6094TIP3    H139697   2.785   1.029  17.266 -0.6573  0.1868 -1.8776
 6094TIP3    H239698   2.737   1.142  17.179 -0.0366  1.7991 -0.2098
 6095TIP3   OH239699   5.865   5.340  14.322  0.1237 -0.1329  0.2399
 6095TIP3    H139700   5.929   5.302  14.262  0.8292  1.8994 -0.3887
 6095TIP3    H239701   5.782   5.338  14.273  0.6580  1.3519 -0.7976
 6096TIP3   OH239702   0.388   6.474  14.914  0.3524 -0.2223 -0.1774
 6096TIP3    H139703   0.341   6.425  14.847 -1.1314  1.0577 -0.1284
 6096TIP3    H239704   0.410   6.557  14.873 -1.0349  0.7855  1.0488
 6097TIP3   OH239705   1.990   6.317  10.853  0.6391 -0.1355 -0.3367
 6097TIP3    H139706   2.029   6.405  10.858  2.1329 -0.7579 -0.5319
 6097TIP3    H239707   1.896   6.333  10.845  0.3277  1.3937  3.9622
 6098TIP3   OH239708   3.404   0.268  14.075 -0.5612 -0.0289 -0.3466
 6098TIP3    H139709   3.472   0.335  14.076  1.7223 -2.1549  1.4355
 6098TIP3    H239710   3.399   0.239  13.984 -0.8494  1.7733 -0.9389
 6099TIP3   OH239711   1.450   6.242  11.174 -0.6698  0.0358 -0.2296
 6099TIP3    H139712   1.427   6.335  11.173  0.2809  0.2831 -0.4792
 6099TIP3    H239713   1.538   6.240  11.136 -0.4246 -0.8960  0.3832
 6100TIP3   OH239714   3.081   2.678   1.290 -0.0686  0.5598 -0.2217
 6100TIP3    H139715   3.161   2.666   1.240  0.1467 -0.2144  0.3011
 6100TIP3    H239716   3.024   2.606   1.263  0.1144  0.0305  0.7518
 6101TIP3   OH239717   2.197   6.182   3.134  0.4870  0.5362  0.4689
 6101TIP3    H139718   2.180   6.133   3.053  1.3874  0.9393  0.0229
 6101TIP3    H239719   2.139   6.142   3.199 -1.3762  1.1498 -0.7079
 6102TIP3   OH239720   6.540   6.406  14.055  0.0223 -0.4325 -0.0038
 6102TIP3    H139721   6.576   6.466  14.119 -0.7474 -0.6913  0.6911
 6102TIP3    H239722   6.609   6.341  14.040  1.4194  1.3360 -1.8146
 6103TIP3   OH239723   4.622   4.441  16.614 -0.0975 -0.4426 -0.2551
 6103TIP3    H139724   4.557   4.374  16.592 -0.7402  0.4852 -1.3543
 6103TIP3    H239725   4.572   4.523  16.613  1.0492  0.2800 -0.9755
 6104TIP3   OH239726   1.726   3.563  15.348  0.0754  0.5648 -0.1086
 6104TIP3    H139727   1.757   3.651  15.368  1.4072  0.0681  0.1632
 6104TIP3    H239728   1.674   3.537  15.424  1.0090  0.5396  0.5428
 6105TIP3   OH239729   1.475   1.396   6.157 -0.2550  0.6606 -0.4027
 6105TIP3    H139730   1.526   1.320   6.128  0.8497  1.7572 -1.4685
 6105TIP3    H239731   1.434   1.429   6.077 -1.7496  0.4816  0.2536
 6106TIP3   OH239732   5.584   6.679   3.450  0.1428 -0.1995 -0.0018
 6106TIP3    H139733   5.663   6.699   3.399  1.1004 -0.5950  1.2682
 6106TIP3    H239734   5.602   6.593   3.489 -2.4004 -2.0270 -2.4649
 6107TIP3   OH239735   2.142   6.481   4.273  0.5014  0.3464  0.3944
 6107TIP3    H139736   2.210   6.449   4.332  0.2388  0.6371  0.8686
 6107TIP3    H239737   2.134   6.413   4.206  0.8190  0.0170  0.6840
 6108TIP3   OH239738   5.337   1.574  12.993 -0.4441 -0.9722  0.3841
 6108TIP3    H139739   5.343   1.480  12.973 -0.7448 -1.1553  1.0795
 6108TIP3    H239740   5.245   1.595  12.979 -0.0456 -0.3513 -1.4704
 6109TIP3   OH239741   3.716   1.223   5.745  0.2102  0.6064  0.4602
 6109TIP3    H139742   3.730   1.198   5.837 -1.1867  1.5942  0.9910
 6109TIP3    H239743   3.686   1.142   5.703 -1.0724  0.5768  1.3672
 6110TIP3   OH239744   4.316   1.447   2.798  0.3296  0.3848  0.2623
 6110TIP3    H139745   4.383   1.506   2.762  0.8475 -0.4663 -0.1800
 6110TIP3    H239746   4.340   1.361   2.765 -0.0140 -0.1905  1.4826
 6111TIP3   OH239747   2.309   6.249  17.223  0.1187  0.0442 -0.7261
 6111TIP3    H139748   2.284   6.169  17.270  0.3239  0.1675 -0.4047
 6111TIP3    H239749   2.350   6.304  17.290 -3.3822  2.0304  0.0263
 6112TIP3   OH239750   6.141   0.087   3.154  0.1523 -0.6578 -0.3073
 6112TIP3    H139751   6.067   0.143   3.134  0.6678  0.5956  1.0611
 6112TIP3    H239752   6.167   0.050   3.070  0.3632  1.9202 -1.4961
 6113TIP3   OH239753   1.673   5.484  16.117 -0.0658  0.9673 -0.5182
 6113TIP3    H139754   1.671   5.405  16.063 -1.7167  0.3701  0.3362
 6113TIP3    H239755   1.581   5.505  16.134  0.3049  3.3065 -0.9956
 6114TIP3   OH239756   2.734   2.679   5.651 -0.0862  0.1644 -0.0032
 6114TIP3    H139757   2.785   2.709   5.576 -0.9554  0.8945 -0.3160
 6114TIP3    H239758   2.746   2.584   5.652 -0.5458  0.0752 -1.4229
 6115TIP3   OH239759   3.020   1.376  10.733  0.0841 -0.1908  0.2220
 6115TIP3    H139760   2.998   1.396  10.824  1.0198 -0.0973  0.4434
 6115TIP3    H239761   3.065   1.291  10.737  2.2005  0.8552  0.1805
 6116TIP3   OH239762   1.057   3.965  16.043  0.3558  0.1258 -0.4453
 6116TIP3    H139763   1.060   4.053  16.081 -0.7659 -0.3266  0.8074
 6116TIP3    H239764   1.105   3.911  16.105 -0.5198 -0.4384 -0.2376
 6117TIP3   OH239765   5.781   3.486  13.595 -0.3834 -1.4403 -0.7846
 6117TIP3    H139766   5.874   3.484  13.614 -0.2686  0.3115 -0.9331
 6117TIP3    H239767   5.755   3.394  13.589  0.7953 -2.0209  1.7488
 6118TIP3   OH239768   2.329   6.607   4.908 -0.2624  0.4136  0.5781
 6118TIP3    H139769   2.237   6.605   4.884 -0.1127  0.9450 -0.0727
 6118TIP3    H239770   2.364   6.523   4.878 -0.6056  0.0512  1.1661
 6119TIP3   OH239771   0.261   1.850  14.493  0.1649 -0.0478  0.7343
 6119TIP3    H139772   0.175   1.840  14.452  0.5542  1.3709 -0.5269
 6119TIP3    H239773   0.257   1.934  14.537  1.5032  0.9817 -1.0020
 6120TIP3   OH239774   4.850   1.480   1.919 -0.1825 -0.5715 -0.5561
 6120TIP3    H139775   4.919   1.535   1.881  0.0053 -0.8486 -0.6195
 6120TIP3    H239776   4.851   1.503   2.012  0.4484 -1.0488 -0.4378
 6121TIP3   OH239777   2.550   2.139   5.884  0.4752 -0.3501 -0.0381
 6121TIP3    H139778   2.467   2.100   5.911  0.2886  0.8620  1.2508
 6121TIP3    H239779   2.526   2.221   5.841  0.9888 -0.1820 -0.0189
 6122TIP3   OH239780   1.724   5.970   5.233 -0.1040 -0.0396 -0.5485
 6122TIP3    H139781   1.817   5.949   5.244 -0.9199 -3.5148  1.0811
 6122TIP3    H239782   1.685   5.954   5.319 -1.8460  4.5315 -0.2396
 6123TIP3   OH239783   1.828   4.892  11.984  0.2100  0.1325 -0.3018
 6123TIP3    H139784   1.871   4.827  12.039  0.2883  1.1195  0.8638
 6123TIP3    H239785   1.883   4.970  11.991 -1.3071  1.1939  0.6312
 6124TIP3   OH239786   3.957   4.998  11.772  0.3765 -0.3456 -0.2465
 6124TIP3    H139787   3.992   4.985  11.860 -0.3199  0.8059  0.2187
 6124TIP3    H239788   3.961   5.092  11.758 -1.7284 -0.2570 -0.4966
 6125TIP3   OH239789   1.374   3.909  11.687  0.5187  0.4283  0.1266
 6125TIP3    H139790   1.445   3.923  11.750 -0.0058  2.7822  0.2813
 6125TIP3    H239791   1.413   3.930  11.602  0.3662  0.4574  0.0633
 6126TIP3   OH239792   3.314   4.538   5.229  0.3601  0.2912  0.4357
 6126TIP3    H139793   3.340   4.542   5.321 -1.0180  1.7635  0.8168
 6126TIP3    H239794   3.357   4.613   5.189  0.0862  0.2951  0.1408
 6127TIP3   OH239795   1.226   5.950  15.240  0.3936  0.4762 -0.2210
 6127TIP3    H139796   1.298   5.887  15.231 -2.0330 -2.4257 -1.1295
 6127TIP3    H239797   1.177   5.942  15.159 -1.0654  2.2210  0.4297
 6128TIP3   OH239798   4.693   6.126  16.075 -0.2396 -0.0570 -0.0066
 6128TIP3    H139799   4.604   6.130  16.111  0.4518  1.4168  1.7217
 6128TIP3    H239800   4.698   6.199  16.013 -0.4367 -0.5846 -0.6536
 6129TIP3   OH239801   1.774   2.808   1.065  0.2344 -0.1919  0.1848
 6129TIP3    H139802   1.811   2.793   0.978  3.7064  0.6759  1.3425
 6129TIP3    H239803   1.796   2.899   1.085 -2.8584  0.4895  1.0126
 6130TIP3   OH239804   5.340   4.889   1.096  0.8683 -0.1747  0.1501
 6130TIP3    H139805   5.376   4.967   1.053 -0.7810  0.2358 -0.5732
 6130TIP3    H239806   5.272   4.923   1.154 -1.4312 -1.1503 -1.7977
 6131TIP3   OH239807   3.019   3.654  12.250 -0.5461 -0.2898  0.2388
 6131TIP3    H139808   2.961   3.705  12.194 -0.7033 -0.3122  0.3823
 6131TIP3    H239809   2.988   3.670  12.339 -1.3046 -1.5064  0.2186
 6132TIP3   OH239810   6.153   4.289   5.161 -0.2272  0.5985  0.1481
 6132TIP3    H139811   6.086   4.347   5.197  0.1858  1.0300  0.2153
 6132TIP3    H239812   6.236   4.328   5.186  0.0822 -0.7702  1.4511
 6133TIP3   OH239813   0.617   6.507   2.790 -0.0545 -0.2199 -0.0471
 6133TIP3    H139814   0.618   6.575   2.856 -2.1002 -0.3245  0.1558
 6133TIP3    H239815   0.641   6.427   2.837 -2.4469 -0.4734  0.8697
 6134TIP3   OH239816   0.006   4.310  16.819 -0.8133 -0.5024 -0.5656
 6134TIP3    H139817   0.054   4.352  16.748 -0.5275 -1.2403 -0.8230
 6134TIP3    H239818  -0.003   4.377  16.887 -1.3924  0.3153 -1.4318
 6135TIP3   OH239819   6.457   2.840   0.033  0.3440  0.7537  0.0924
 6135TIP3    H139820   6.469   2.840   0.128 -1.1126  0.2995  0.2868
 6135TIP3    H239821   6.382   2.783   0.017  0.2888  1.1702 -1.2968
 6136TIP3   OH239822   5.385   6.218  15.243  0.3666 -0.6261  0.7442
 6136TIP3    H139823   5.444   6.289  15.265  2.1555 -0.9722 -2.2897
 6136TIP3    H239824   5.418   6.143  15.292  2.7182 -0.8502 -0.9931
 6137TIP3   OH239825   3.213   5.996  12.257  0.3610  0.5785 -0.3335
 6137TIP3    H139826   3.251   6.007  12.170  0.4226  0.1856 -0.3592
 6137TIP3    H239827   3.120   5.978  12.241  0.4760 -0.0381 -0.3505
 6138TIP3   OH239828   1.726   1.507  17.119 -0.1497  0.0445  0.3940
 6138TIP3    H139829   1.815   1.510  17.152 -0.1134  0.7253  0.2283
 6138TIP3    H239830   1.713   1.589  17.072 -0.5697 -0.4266 -0.3501
 6139TIP3   OH239831   3.599   5.810   4.033 -0.0581 -0.0433 -0.1789
 6139TIP3    H139832   3.597   5.870   4.107 -0.9078  0.4167 -0.5560
 6139TIP3    H239833   3.592   5.723   4.072 -0.6691  0.2033  0.2772
 6140TIP3   OH239834   4.452   2.234   4.705  0.2992 -0.1483  0.6278
 6140TIP3    H139835   4.481   2.151   4.743  0.3811 -0.3248  0.1897
 6140TIP3    H239836   4.486   2.232   4.616  0.3583  0.3895  0.6378
 6141TIP3   OH239837   4.390   1.812  16.844 -0.8401 -0.1635  0.4677
 6141TIP3    H139838   4.425   1.795  16.757 -0.2292  0.1157  0.6520
 6141TIP3    H239839   4.441   1.756  16.902  0.0761  1.0531  0.8784
 6142TIP3   OH239840   5.515   2.628   2.735 -0.0802  0.4538 -0.0934
 6142TIP3    H139841   5.567   2.707   2.721  1.3732 -0.4400  0.1043
 6142TIP3    H239842   5.530   2.574   2.658 -0.2656 -0.0659  0.2225
 6143TIP3   OH239843   5.893   3.475  12.440 -0.6556 -0.2531 -0.6004
 6143TIP3    H139844   5.862   3.403  12.385 -1.9154 -0.3804  0.2358
 6143TIP3    H239845   5.936   3.432  12.513  0.4716 -0.0926 -1.1423
 6144TIP3   OH239846   3.388   2.605  13.589  0.0011 -0.1323 -0.1616
 6144TIP3    H139847   3.363   2.685  13.543 -2.5310 -2.2051 -2.7940
 6144TIP3    H239848   3.392   2.630  13.681 -2.5914  2.6423 -0.6521
 6145TIP3   OH239849   1.952   0.935   2.884 -0.5251 -0.5345  0.4996
 6145TIP3    H139850   1.963   0.902   2.973 -0.2800 -1.1234  0.2543
 6145TIP3    H239851   1.939   0.857   2.831  2.0563 -0.4388 -0.4130
 6146TIP3   OH239852   2.979   3.722  14.953 -0.5739  0.4374 -0.1844
 6146TIP3    H139853   2.916   3.673  14.900  0.6324 -0.4767 -0.8526
 6146TIP3    H239854   3.030   3.773  14.889 -0.1862  0.6230  0.2607
 6147TIP3   OH239855   0.182   3.541  15.806 -0.0010 -0.8551 -0.5372
 6147TIP3    H139856   0.175   3.612  15.743 -0.8175 -0.1003  0.3780
 6147TIP3    H239857   0.274   3.514  15.801  0.7211  1.2518  0.1131
 6148TIP3   OH239858   0.479   0.096  14.039 -0.1335 -0.0939  0.3988
 6148TIP3    H139859   0.389   0.079  14.066 -0.1986  0.0091  0.2428
 6148TIP3    H239860   0.486   0.191  14.034 -0.4992 -0.1271 -1.2256
 6149TIP3   OH239861   5.928   0.183  12.125  0.6687  0.1318 -0.2184
 6149TIP3    H139862   6.018   0.171  12.156  0.3729 -0.7559  0.3130
 6149TIP3    H239863   5.938   0.205  12.033  1.3723 -1.6321 -0.5964
 6150TIP3   OH239864   4.903   2.051  15.683  0.1638 -0.2770  0.2586
 6150TIP3    H139865   4.925   2.101  15.761  0.8445  0.8123 -0.6034
 6150TIP3    H239866   4.982   2.002  15.662  0.0885 -0.3227  0.0782
 6151TIP3   OH239867   0.671   4.766   2.867 -0.0483  0.0418  0.6117
 6151TIP3    H139868   0.735   4.722   2.811  1.3466  1.8606  0.6880
 6151TIP3    H239869   0.686   4.731   2.954  1.0847  0.7004  0.6871
 6152TIP3   OH239870   6.452   6.443   3.908  0.1628 -0.1900  0.2723
 6152TIP3    H139871   6.446   6.477   3.818  2.1675 -1.0930 -0.2665
 6152TIP3    H239872   6.386   6.492   3.957  0.7479  2.1400 -1.1402
 6153TIP3   OH239873   6.446   1.565   1.058  0.6762 -0.0997 -0.0811
 6153TIP3    H139874   6.463   1.496   0.994  1.4848  0.5377 -0.5725
 6153TIP3    H239875   6.501   1.543   1.132  2.4404  1.0216 -0.9907
 6154TIP3   OH239876   3.050   5.580  14.267 -0.0306 -0.6926  0.2377
 6154TIP3    H139877   3.072   5.618  14.353  1.0834 -0.4121 -0.1490
 6154TIP3    H239878   3.116   5.512  14.254 -1.7444 -2.5010  0.7230
 6155TIP3   OH239879   3.414   1.303   4.485 -0.1318 -0.2055  0.0760
 6155TIP3    H139880   3.435   1.393   4.460  1.3973 -0.8276 -0.9901
 6155TIP3    H239881   3.453   1.293   4.572 -0.3956  0.1697  0.2434
 6156TIP3   OH239882   5.634   5.082  12.569 -0.0636 -0.0465  0.2723
 6156TIP3    H139883   5.629   5.000  12.521  1.4961  0.0643 -0.1577
 6156TIP3    H239884   5.546   5.118  12.566 -0.6221 -1.3779 -0.0947
 6157TIP3   OH239885   1.748   3.658   2.931 -0.3110 -0.2264 -0.3259
 6157TIP3    H139886   1.671   3.644   2.875 -0.7561  3.5639 -0.9280
 6157TIP3    H239887   1.823   3.644   2.873 -0.5675 -1.3283 -0.4264
 6158TIP3   OH239888   2.552   2.766   0.076  0.2288 -0.3310  0.0366
 6158TIP3    H139889   2.532   2.856   0.050 -0.2970 -1.0157 -2.1116
 6158TIP3    H239890   2.646   2.767   0.096  0.3590  0.5805 -0.5636
 6159TIP3   OH239891   1.555   4.659   2.477 -0.6441  0.3585 -0.3496
 6159TIP3    H139892   1.649   4.664   2.495 -0.8648  0.3733  0.9195
 6159TIP3    H239893   1.548   4.664   2.382  0.6405  0.3216 -0.4631
 6160TIP3   OH239894   3.617   1.900   6.199 -0.3561 -0.6836  0.0555
 6160TIP3    H139895   3.625   1.826   6.140  1.2695 -0.4431 -0.0694
 6160TIP3    H239896   3.666   1.971   6.157 -2.6667  0.8109 -0.3034
 6161TIP3   OH239897   2.222   5.000   1.494 -0.2796 -0.4436 -0.2150
 6161TIP3    H139898   2.276   5.061   1.444 -1.5593  1.1026  0.2155
 6161TIP3    H239899   2.166   4.959   1.429 -0.4673 -0.0326 -0.3101
 6162TIP3   OH239900   0.600   0.856   2.624 -0.6997  0.4657 -0.4347
 6162TIP3    H139901   0.532   0.880   2.687  0.0559 -1.0799  1.0233
 6162TIP3    H239902   0.673   0.914   2.645  0.2533 -1.3189  1.4810
 6163TIP3   OH239903   4.427   5.759  16.934 -0.6433  0.0180 -0.0027
 6163TIP3    H139904   4.485   5.688  16.905 -2.9280 -2.2131  0.5856
 6163TIP3    H239905   4.486   5.821  16.978  1.6753 -0.6209 -1.9600
 6164TIP3   OH239906   5.202   5.418  13.710  0.0219  0.1099  0.1037
 6164TIP3    H139907   5.189   5.453  13.798 -1.1444 -0.7287  0.2815
 6164TIP3    H239908   5.120   5.435  13.665 -0.1609 -1.3494 -0.1533
 6165TIP3   OH239909   6.027   0.828   4.536 -0.0290 -0.4388  0.3694
 6165TIP3    H139910   5.961   0.760   4.548  0.6491 -1.3689 -0.9038
 6165TIP3    H239911   6.039   0.867   4.623 -2.8986  0.3998  0.4841
 6166TIP3   OH239912   2.784   6.428   1.411 -0.4478  0.6513 -1.0724
 6166TIP3    H139913   2.869   6.443   1.369 -0.8607  0.6532 -1.9412
 6166TIP3    H239914   2.728   6.499   1.378 -0.3600  1.6457  0.7882
 6167TIP3   OH239915   0.848   1.373   3.292  0.4147 -0.4418  0.5833
 6167TIP3    H139916   0.900   1.337   3.220  0.8899  0.9571  0.1928
 6167TIP3    H239917   0.764   1.395   3.253  1.1115  1.5568  0.0695
 6168TIP3   OH239918   6.478   0.766   6.006 -0.0853  0.4356 -0.4906
 6168TIP3    H139919   6.554   0.820   5.983 -0.1654  1.0624  0.6805
 6168TIP3    H239920   6.516   0.680   6.025  0.4649  0.9564  0.9126
 6169TIP3   OH239921   0.384   5.660   0.613 -0.5331 -0.6647 -0.1525
 6169TIP3    H139922   0.327   5.655   0.536 -0.2602  0.3844 -0.4342
 6169TIP3    H239923   0.418   5.749   0.612  0.4129 -1.0028  0.5178
 6170TIP3   OH239924   4.216   4.410  14.968  0.3548 -0.2510 -0.1423
 6170TIP3    H139925   4.209   4.344  15.036  1.2900 -0.5214 -0.2831
 6170TIP3    H239926   4.218   4.360  14.886  0.8722 -0.0444 -0.2616
 6171TIP3   OH239927   5.794   0.052  14.438  0.0186 -0.3569  0.9978
 6171TIP3    H139928   5.703   0.039  14.410  0.3691 -0.4155 -0.1637
 6171TIP3    H239929   5.817   0.138  14.403  0.3880 -0.3137  1.3499
 6172TIP3   OH239930   2.769   3.235   1.381 -0.8085  0.1116 -0.1010
 6172TIP3    H139931   2.757   3.212   1.474  0.2433  0.0672  0.0292
 6172TIP3    H239932   2.741   3.157   1.334 -1.7007  0.2620  0.1499
 6173TIP3   OH239933   0.535   3.820  13.757  0.2846 -0.2458  0.3722
 6173TIP3    H139934   0.457   3.825  13.812  0.7785  0.7338  1.0108
 6173TIP3    H239935   0.607   3.840  13.816  1.0391 -1.2464 -0.1861
 6174TIP3   OH239936   6.283   3.947  16.597 -0.3851  0.3460 -0.5904
 6174TIP3    H139937   6.254   3.858  16.578 -0.4114 -0.1073  1.3841
 6174TIP3    H239938   6.373   3.951  16.563  0.9784 -1.6682  2.3530
 6175TIP3   OH239939   3.784   4.138   2.539  0.6206 -0.3727 -0.1218
 6175TIP3    H139940   3.724   4.099   2.476  0.9340  0.1150 -0.7354
 6175TIP3    H239941   3.729   4.193   2.595  0.1643 -1.7298  0.8015
 6176TIP3   OH239942   4.693   5.896  17.033  0.1082  0.0067  0.0633
 6176TIP3    H139943   4.694   5.810  17.075  0.8934 -0.6804 -1.2736
 6176TIP3    H239944   4.746   5.952  17.090 -0.8110 -0.2523  1.1986
 6177TIP3   OH239945   0.514   4.624  15.103  0.6961  0.2739  0.5994
 6177TIP3    H139946   0.535   4.535  15.133 -0.9376 -0.1586  0.5521
 6177TIP3    H239947   0.476   4.667  15.180 -2.0846 -0.3438 -0.3320
 6178TIP3   OH239948   6.001   0.471  11.887 -0.2923 -0.2540 -0.4230
 6178TIP3    H139949   5.953   0.461  11.969 -3.1539 -3.4014 -2.2646
 6178TIP3    H239950   5.984   0.561  11.860 -1.8755 -0.0946  0.9405
 6179TIP3   OH239951   5.275   0.385  12.212  0.0253  0.8120  0.3272
 6179TIP3    H139952   5.210   0.345  12.269 -0.2226  2.0605  0.9638
 6179TIP3    H239953   5.236   0.382  12.125 -1.1723  2.0366  0.7781
 6180TIP3   OH239954   4.165   5.990  14.989  0.3432 -0.3909  0.5437
 6180TIP3    H139955   4.236   6.001  14.926  0.0029 -1.1046  0.0269
 6180TIP3    H239956   4.178   5.903  15.026 -0.1701 -0.4659  0.5594
 6181TIP3   OH239957   4.816   1.741  14.347 -0.3322 -0.0009  0.1999
 6181TIP3    H139958   4.726   1.766  14.368 -0.6356 -0.8029 -0.1201
 6181TIP3    H239959   4.839   1.676  14.414 -0.1011 -0.0249  0.0977
 6182TIP3   OH239960   6.065   0.488  15.161  0.0385 -0.0801  0.2471
 6182TIP3    H139961   6.096   0.554  15.099 -0.7478 -1.4677 -1.7374
 6182TIP3    H239962   6.031   0.538  15.235  1.5349  1.6288 -0.1460
 6183TIP3   OH239963   5.193   3.032  15.802 -0.4879 -0.1635  0.2842
 6183TIP3    H139964   5.123   3.028  15.737  0.4455  0.9414 -0.8264
 6183TIP3    H239965   5.223   2.941  15.809 -2.4211 -0.8022  1.2985
 6184TIP3   OH239966   6.226   5.969  12.133  0.2999 -0.0878 -0.0210
 6184TIP3    H139967   6.142   5.931  12.159  1.3972 -0.6453  3.0993
 6184TIP3    H239968   6.235   6.048  12.186  1.8863 -0.2094 -0.0519
 6185TIP3   OH239969   2.462   4.897   3.246  0.1811  0.6332  0.0188
 6185TIP3    H139970   2.388   4.957   3.233 -0.3267 -0.3090 -1.6157
 6185TIP3    H239971   2.453   4.868   3.337 -1.5063  0.4933 -0.1695
 6186TIP3   OH239972   0.194   5.611  11.671 -0.2726 -0.0088  0.5859
 6186TIP3    H139973   0.173   5.557  11.594  0.3107 -1.0124  1.1050
 6186TIP3    H239974   0.267   5.565  11.712  1.8200  2.3993 -0.1963
 6187TIP3   OH239975   2.427   2.018  16.370  0.1111 -0.3672  0.2366
 6187TIP3    H139976   2.443   2.006  16.464 -2.5545 -0.2095  0.7955
 6187TIP3    H239977   2.483   1.953  16.328  1.3907 -0.4393  1.9057
 6188TIP3   OH239978   6.331   1.161   1.022 -0.4217  0.0432  0.1452
 6188TIP3    H139979   6.404   1.187   1.078 -1.1279 -1.1845  1.6938
 6188TIP3    H239980   6.316   1.238   0.967  0.2535  1.3433  1.6785
 6189TIP3   OH239981   0.236   2.417  16.751 -0.3282  0.5748 -0.4225
 6189TIP3    H139982   0.268   2.329  16.768  1.4942  1.0500 -1.1653
 6189TIP3    H239983   0.271   2.470  16.822 -1.7148  0.6786  0.2251
 6190TIP3   OH239984   5.707   4.166  13.262 -0.2607  0.0565 -0.2054
 6190TIP3    H139985   5.760   4.090  13.283  0.1158  0.5180  0.5470
 6190TIP3    H239986   5.696   4.212  13.345  0.1271  1.2046 -0.7607
 6191TIP3   OH239987   2.601   4.580  14.879  0.7403  0.2901  0.1961
 6191TIP3    H139988   2.595   4.604  14.787  2.7461 -0.8029 -0.2814
 6191TIP3    H239989   2.610   4.485  14.879 -2.8181 -0.2162  1.7797
 6192TIP3   OH239990   1.322   1.964   4.157  0.0366 -0.3705  0.2806
 6192TIP3    H139991   1.283   2.040   4.112 -0.5168 -1.5408 -1.3319
 6192TIP3    H239992   1.414   1.987   4.166  0.0770  0.1386 -1.0571
 6193TIP3   OH239993   2.464   0.095   4.818  0.1801  0.0653 -0.1917
 6193TIP3    H139994   2.433   0.033   4.884  0.6594 -2.2771 -2.0590
 6193TIP3    H239995   2.450   0.051   4.735  3.3702  1.1896 -1.4632
 6194TIP3   OH239996   1.858   2.140  14.306  0.9879 -0.1506  0.8078
 6194TIP3    H139997   1.892   2.158  14.219  2.9433 -0.4054  1.4715
 6194TIP3    H239998   1.875   2.047  14.321 -0.2222 -0.3389  1.0957
 6195TIP3   OH239999   1.596   3.264   4.187 -0.0779 -0.4695  0.1263
 6195TIP3    H140000   1.520   3.229   4.234  1.7929 -2.4108  1.9847
 6195TIP3    H240001   1.578   3.357   4.177 -2.2945 -0.7105  1.3272
 6196TIP3   OH240002   3.518   6.701  14.397 -0.0822  0.2083 -1.0571
 6196TIP3    H140003   3.433   6.742  14.382 -0.0980  0.0330 -1.4455
 6196TIP3    H240004   3.581   6.771  14.385 -0.2359  0.6561  0.5043
 6197TIP3   OH240005   1.556   3.688   3.780 -0.0831  0.1641  0.2673
 6197TIP3    H140006   1.504   3.672   3.701 -1.2677 -0.2774  1.0966
 6197TIP3    H240007   1.552   3.783   3.792 -0.7640  0.1343  0.3434
 6198TIP3   OH240008   0.353   1.389  11.907 -0.3900  0.4322 -0.1821
 6198TIP3    H140009   0.301   1.467  11.928 -0.4200  0.4265 -0.2333
 6198TIP3    H240010   0.413   1.379  11.981  1.9119  2.4467 -1.6221
 6199TIP3   OH240011   0.644   2.952   1.798  0.1591 -0.2265 -0.0153
 6199TIP3    H140012   0.589   3.027   1.776  0.1636 -0.9506 -2.8953
 6199TIP3    H240013   0.725   2.966   1.748  0.2655 -1.9625 -0.4065
 6200TIP3   OH240014   6.074   1.143   2.150 -0.0352 -0.0196 -0.2640
 6200TIP3    H140015   6.151   1.101   2.189 -0.0434  0.2114  0.0033
 6200TIP3    H240016   6.075   1.232   2.185 -0.4852 -0.0482 -0.1735
 6201TIP3   OH240017   3.944   0.049  12.683 -0.5090 -0.5055  0.3524
 6201TIP3    H140018   3.981   0.046  12.595  1.9032  0.4767  1.2282
 6201TIP3    H240019   3.967  -0.035  12.722  1.2501  0.1949  0.9787
 6202TIP3   OH240020   2.536   3.948  14.847 -0.0887  0.0591 -0.2952
 6202TIP3    H140021   2.618   3.998  14.846 -0.4528  0.6547 -0.8583
 6202TIP3    H240022   2.559   3.867  14.893  0.3784  0.9514  1.1227
 6203TIP3   OH240023   2.420   2.915  12.107  0.2286 -0.2592 -0.3816
 6203TIP3    H140024   2.489   2.860  12.070  0.5244 -0.4109  0.3847
 6203TIP3    H240025   2.348   2.854  12.123  0.2585 -0.2721 -0.2973
 6204TIP3   OH240026   2.543   6.064  16.555  0.6019  1.1123  0.0731
 6204TIP3    H140027   2.492   6.140  16.583  0.2002  0.5347  0.9734
 6204TIP3    H240028   2.489   6.023  16.487  0.5023  1.2667  0.0596
 6205TIP3   OH240029   5.826   4.742  13.594  0.3453  0.5130 -0.3105
 6205TIP3    H140030   5.858   4.750  13.505  4.5128 -0.1547  0.9009
 6205TIP3    H240031   5.830   4.831  13.630  2.2152  0.2819  0.1567
 6206TIP3   OH240032   6.550   6.410   4.813  0.2569 -0.8426 -0.0317
 6206TIP3    H140033   6.460   6.381   4.796 -1.0140  1.3096  2.2891
 6206TIP3    H240034   6.560   6.490   4.762  0.8464 -0.9941 -0.1690
 6207TIP3   OH240035   0.734   4.663   2.137 -0.4271 -0.4485 -0.0238
 6207TIP3    H140036   0.737   4.603   2.212 -4.2316  2.0129  2.4054
 6207TIP3    H240037   0.647   4.651   2.099 -0.3813  1.7807 -0.9955
 6208TIP3   OH240038   5.924   3.690   1.894  0.4856  0.3157  0.4668
 6208TIP3    H140039   5.896   3.763   1.839  0.7408 -0.1699 -0.3141
 6208TIP3    H240040   5.950   3.731   1.977  3.6078  1.5236 -0.9478
 6209TIP3   OH240041   5.703   3.257  17.334 -0.1977  0.1816 -0.0521
 6209TIP3    H140042   5.639   3.200  17.375  0.3689 -0.3911  0.0552
 6209TIP3    H240043   5.734   3.208  17.258  0.1726  0.4158 -0.0581
 6210TIP3   OH240044   4.260   0.348  17.196  0.1275 -0.0845  0.7956
 6210TIP3    H140045   4.219   0.402  17.264 -0.6543  0.2897  0.0315
 6210TIP3    H240046   4.258   0.259  17.232  0.1886  0.1796  1.4749
 6211TIP3   OH240047   2.245   5.635  11.307  0.1187  0.1053  0.2054
 6211TIP3    H140048   2.315   5.700  11.316  0.7344 -0.6807  1.6089
 6211TIP3    H240049   2.292   5.551  11.304 -0.7375 -0.4522  1.4131
 6212TIP3   OH240050   3.421   5.957   6.251  0.1132  0.1299  0.6693
 6212TIP3    H140051   3.360   5.989   6.184 -1.8758 -1.4350  1.6025
 6212TIP3    H240052   3.409   5.862   6.250  1.3286 -0.0653  2.0579
 6213TIP3   OH240053   3.833   1.876  11.690 -0.0048  0.1513  0.4990
 6213TIP3    H140054   3.908   1.910  11.641 -0.2251  1.6809  1.1576
 6213TIP3    H240055   3.864   1.795  11.729  0.7044 -0.2092 -0.7664
 6214TIP3   OH240056   0.384   3.368  14.201  0.6181  0.2944  0.3534
 6214TIP3    H140057   0.290   3.386  14.202  0.6858  0.6621  2.0362
 6214TIP3    H240058   0.423   3.446  14.162  0.3062  0.6119  0.6667
 6215TIP3   OH240059   5.858   3.521  14.959 -0.0636 -0.2649  0.4342
 6215TIP3    H140060   5.945   3.533  14.922  0.4828  2.0775  2.1981
 6215TIP3    H240061   5.860   3.434  14.998  0.8738 -0.9252 -1.0256
 6216TIP3   OH240062   4.138   3.046   2.026  0.8038  0.1859 -0.0689
 6216TIP3    H140063   4.095   2.971   1.985  1.2911  0.1641 -0.5417
 6216TIP3    H240064   4.210   3.007   2.077  0.3746  0.2369  0.5911
 6217TIP3   OH240065   3.900   4.169  16.751 -0.9734  0.1351 -0.6042
 6217TIP3    H140066   3.916   4.263  16.738 -1.9167  0.5366  0.9090
 6217TIP3    H240067   3.814   4.165  16.791 -0.8339 -1.3798 -0.4055
 6218TIP3   OH240068   0.490   3.066  12.787 -0.4029  0.5021 -0.0511
 6218TIP3    H140069   0.519   2.974  12.789  1.5811  1.1001  1.8638
 6218TIP3    H240070   0.529   3.105  12.865 -1.2775  2.9820 -0.7833
 6219TIP3   OH240071   4.383   2.171  14.744 -0.3417 -0.1409 -0.0574
 6219TIP3    H140072   4.322   2.114  14.697 -0.4022  0.0105 -0.1660
 6219TIP3    H240073   4.463   2.169  14.692 -0.8981  1.2293 -1.0211
 6220TIP3   OH240074   1.610   0.607  17.056  0.3145  0.0238 -0.1332
 6220TIP3    H140075   1.655   0.624  17.139 -1.2040 -0.1668  0.7585
 6220TIP3    H240076   1.532   0.663  17.059  0.5595  0.5284 -1.7475
 6221TIP3   OH240077   6.115   3.113   5.993 -0.5571 -0.2705  0.3319
 6221TIP3    H140078   6.048   3.181   5.991 -1.7628 -1.4349 -0.9314
 6221TIP3    H240079   6.170   3.136   6.068 -1.0695  1.9233  0.1085
 6222TIP3   OH240080   1.703   4.243  14.472 -0.0457  0.2437 -0.2516
 6222TIP3    H140081   1.684   4.224  14.380 -0.2609  1.5425 -0.5016
 6222TIP3    H240082   1.668   4.331  14.486  1.9523  0.9979  0.4580
 6223TIP3   OH240083   6.072   4.818   2.489 -0.3477  0.2826 -0.3154
 6223TIP3    H140084   6.164   4.823   2.515 -0.9352  1.3848  1.7578
 6223TIP3    H240085   6.025   4.805   2.571 -1.9520 -2.1745 -1.5038
 6224TIP3   OH240086   3.151   0.408  12.290  0.5630 -0.1962  0.0766
 6224TIP3    H140087   3.124   0.448  12.373 -0.1120 -0.9902  0.2446
 6224TIP3    H240088   3.196   0.328  12.316  0.9521 -0.1075 -0.3069
 6225TIP3   OH240089   3.485   0.579  17.032  0.2378  0.0771  0.0165
 6225TIP3    H140090   3.421   0.508  17.033 -1.0303  1.1802 -0.0378
 6225TIP3    H240091   3.518   0.582  17.121  0.9858 -1.1392 -0.1858
 6226TIP3   OH240092   4.598   3.059   4.264 -0.5050  0.4991 -0.1250
 6226TIP3    H140093   4.668   3.060   4.198  1.5126 -0.2744  1.8608
 6226TIP3    H240094   4.552   2.976   4.248 -0.5681  0.6943 -1.0347
 6227TIP3   OH240095   6.737   1.400   5.566 -0.1123  0.0990 -0.3235
 6227TIP3    H140096   6.689   1.435   5.641  1.0302 -0.4619  0.7101
 6227TIP3    H240097   6.669   1.375   5.503 -1.0757  0.9918  0.3310
 6228TIP3   OH240098   6.200   3.501  14.058 -0.8246  0.0979 -0.1855
 6228TIP3    H140099   6.105   3.507  14.048 -0.8812  0.6827  0.6248
 6228TIP3    H240100   6.223   3.417  14.017 -1.4099  0.8788 -2.2377
 6229TIP3   OH240101   1.705   1.396  11.988  0.4236  0.3404 -0.1294
 6229TIP3    H140102   1.616   1.368  12.011  0.5746 -1.2005 -1.2770
 6229TIP3    H240103   1.760   1.360  12.058  0.1325  1.6334  0.7979
 6230TIP3   OH240104   4.794   1.631  15.357  0.2779 -0.2680 -0.2810
 6230TIP3    H140105   4.831   1.683  15.428 -1.0288  1.1293 -0.5749
 6230TIP3    H240106   4.703   1.618  15.382 -0.5272  1.2388 -2.1690
 6231TIP3   OH240107   5.133   4.076  15.375 -0.5880 -0.2605  0.2918
 6231TIP3    H140108   5.192   4.065  15.449  0.7264  1.0533 -0.4984
 6231TIP3    H240109   5.054   4.114  15.412  0.5897  1.7765  0.8871
 6232TIP3   OH240110   2.571   0.228  15.518 -0.3857  0.9224 -0.2477
 6232TIP3    H140111   2.515   0.161  15.478  1.8830 -1.1085 -0.2745
 6232TIP3    H240112   2.560   0.305  15.462 -3.2055  0.7343 -0.1268
 6233TIP3   OH240113   4.081   3.151  16.453  0.0725  0.3012  0.0599
 6233TIP3    H140114   4.116   3.238  16.434  0.6517  0.4437  1.6270
 6233TIP3    H240115   4.158   3.094  16.454 -0.0470  0.1399  0.9552
 6234TIP3   OH240116   1.769   1.978  11.836 -0.3433  0.1254 -0.5518
 6234TIP3    H140117   1.832   2.025  11.890 -0.7692 -0.5433  0.5521
 6234TIP3    H240118   1.717   2.046  11.793 -1.1286  0.6851  1.2147
 6235TIP3   OH240119   3.686   3.303  11.922 -0.3604  0.0880 -0.0541
 6235TIP3    H140120   3.639   3.302  11.839 -1.7769 -1.4507  0.6889
 6235TIP3    H240121   3.776   3.279  11.899 -0.9562 -1.3570 -1.0617
 6236TIP3   OH240122   4.566   2.810  15.194 -0.4838 -0.8583 -0.3172
 6236TIP3    H140123   4.554   2.740  15.259 -0.1683  1.0385  1.9045
 6236TIP3    H240124   4.652   2.846  15.213 -1.6111  1.7039  0.2507
 6237TIP3   OH240125   4.547   5.618   3.117 -0.3813 -0.0185  0.3646
 6237TIP3    H140126   4.462   5.577   3.134 -0.7500  0.4152 -0.3814
 6237TIP3    H240127   4.601   5.549   3.081 -1.3469  0.3637 -1.9680
 6238TIP3   OH240128   4.696   2.988  11.066  0.8266  0.0951 -0.2570
 6238TIP3    H140129   4.658   2.907  11.032 -0.0210 -0.3451  1.5924
 6238TIP3    H240130   4.639   3.012  11.139  1.2474  2.2064 -0.5622
 6239TIP3   OH240131   1.290   5.952  15.978  0.0350  0.1008  0.2079
 6239TIP3    H140132   1.268   5.860  15.994  1.8392 -0.3109  0.5186
 6239TIP3    H240133   1.240   5.974  15.899 -2.0818 -0.4731  1.2961
 6240TIP3   OH240134   0.621   3.295  10.629  0.2197 -0.0161 -0.0453
 6240TIP3    H140135   0.658   3.366  10.577 -0.8833  1.9455  1.7242
 6240TIP3    H240136   0.535   3.279  10.589 -0.1167  0.6369  0.4074
 6241TIP3   OH240137   0.212   1.069   6.553 -0.1656  0.5535  0.0757
 6241TIP3    H140138   0.270   1.139   6.583  1.1561 -0.4267 -0.1186
 6241TIP3    H240139   0.231   0.996   6.612  0.8464 -0.6797 -1.6872
 6242TIP3   OH240140   4.179   0.560   2.642 -0.0062 -0.7853  0.5430
 6242TIP3    H140141   4.153   0.534   2.554  2.7015  1.8319 -1.2324
 6242TIP3    H240142   4.112   0.622   2.670 -0.2088 -0.6499 -0.2188
 6243TIP3   OH240143   4.619   5.833   0.003 -0.2075  0.2712  0.2373
 6243TIP3    H140144   4.594   5.859   0.092  0.2992  0.5856  0.2919
 6243TIP3    H240145   4.539   5.799  -0.035 -1.2519  3.0353 -0.2564
 6244TIP3   OH240146   3.393   6.543   6.422 -0.2474  0.1653  0.0465
 6244TIP3    H140147   3.421   6.631   6.394  1.2851 -0.7070 -1.3360
 6244TIP3    H240148   3.451   6.522   6.495  0.5672 -0.3265 -0.7095
 6245TIP3   OH240149   0.462   5.265  14.228 -0.0679  0.1560 -0.6754
 6245TIP3    H140150   0.452   5.221  14.143 -1.1168  1.3568 -1.2179
 6245TIP3    H240151   0.430   5.354  14.212 -3.5621 -0.4565  1.7396
 6246TIP3   OH240152   4.535   1.422  15.861 -0.0067 -0.2480  0.7626
 6246TIP3    H140153   4.561   1.389  15.775 -0.5043  1.0713  0.0810
 6246TIP3    H240154   4.564   1.513  15.862  1.5390 -0.6843  2.6845
 6247TIP3   OH240155   3.568   5.648  11.784  0.1562 -0.1795  1.0073
 6247TIP3    H140156   3.486   5.659  11.735 -0.8405 -0.7115  2.4484
 6247TIP3    H240157   3.633   5.623  11.718 -0.7748  0.5265 -0.2161
 6248TIP3   OH240158   5.626   2.374   4.562  0.1651 -0.4881  0.7874
 6248TIP3    H140159   5.638   2.286   4.525  0.6676 -1.0190  2.1489
 6248TIP3    H240160   5.534   2.394   4.547 -0.0904 -1.4893  0.9464
 6249TIP3   OH240161   0.692   5.487  12.408 -0.5757  0.0220 -0.2895
 6249TIP3    H140162   0.606   5.525  12.424 -0.7494 -0.9199  1.1744
 6249TIP3    H240163   0.702   5.421  12.476  0.5195 -1.2117 -1.6045
 6250TIP3   OH240164   1.118   6.575  12.535  0.2752  0.0459 -0.6075
 6250TIP3    H140165   1.182   6.588  12.466 -1.1751 -1.0957 -2.2724
 6250TIP3    H240166   1.044   6.631  12.511  0.0697  0.2738  0.4915
 6251TIP3   OH240167   3.493   6.516  14.844  0.1834  0.0462  0.1590
 6251TIP3    H140168   3.465   6.590  14.790  0.8207  0.6199  0.5946
 6251TIP3    H240169   3.418   6.499  14.902 -0.4230 -0.4409 -0.7586
 6252TIP3   OH240170   1.403   4.482  15.488 -0.3415 -0.1425  0.4560
 6252TIP3    H140171   1.315   4.501  15.454 -0.3080  0.6777  0.7873
 6252TIP3    H240172   1.399   4.509  15.580  0.1041 -0.5965  0.6119
 6253TIP3   OH240173   3.615   5.049   3.063  0.3314  0.0715  0.5464
 6253TIP3    H140174   3.688   5.050   3.002  0.6073 -0.2292  0.8673
 6253TIP3    H240175   3.624   4.967   3.111 -0.7481 -0.4147 -0.0413
 6254TIP3   OH240176   2.897   5.413  11.415  0.1966  0.6310  0.1331
 6254TIP3    H140177   2.988   5.391  11.396  0.0528 -0.1962  0.3592
 6254TIP3    H240178   2.865   5.455  11.336  1.1699  2.2289  0.5358
 6255TIP3   OH240179   1.023   1.857  14.103  0.3633 -0.4827  0.3118
 6255TIP3    H140180   0.957   1.891  14.043  0.5867  1.0663  0.8733
 6255TIP3    H240181   1.077   1.934  14.124  2.2346 -1.6515  0.0130
 6256TIP3   OH240182   1.246   6.438  17.353  0.6948 -0.2026 -0.3137
 6256TIP3    H140183   1.233   6.499  17.425  2.0163  0.2585 -0.4491
 6256TIP3    H240184   1.160   6.433  17.311  0.2741  0.6485  0.4095
 6257TIP3   OH240185   2.931   6.485  16.077  0.1910  0.2425 -0.9045
 6257TIP3    H140186   2.977   6.569  16.079  0.2821  0.1838 -0.4107
 6257TIP3    H240187   2.842   6.508  16.049 -0.0853  0.6514  0.2691
 6258TIP3   OH240188   1.495   4.750  16.159  0.0628  0.3986  0.0929
 6258TIP3    H140189   1.421   4.784  16.110 -1.0121 -2.1017 -0.1785
 6258TIP3    H240190   1.467   4.751  16.250  0.0847  0.4051  0.1009
 6259TIP3   OH240191   1.451   0.241   5.214  0.5593  0.0767 -0.6923
 6259TIP3    H140192   1.511   0.316   5.217  0.9684 -0.2689  0.2434
 6259TIP3    H240193   1.470   0.193   5.294 -1.6075  0.4357  0.1052
 6260TIP3   OH240194   6.118   2.304   0.957 -0.0977 -0.4543  0.2412
 6260TIP3    H140195   6.137   2.241   1.026 -0.5283 -0.9484 -0.0784
 6260TIP3    H240196   6.030   2.336   0.976 -0.7749 -1.5998 -0.7998
 6261TIP3   OH240197   3.304   0.888   3.992  0.0285 -0.0675  0.2999
 6261TIP3    H140198   3.319   0.976   4.026  0.2255 -0.1530  0.4334
 6261TIP3    H240199   3.323   0.894   3.898 -0.7397  0.2247  0.1545
 6262TIP3   OH240200   2.939   3.777  13.763 -0.1478 -0.6994 -0.2576
 6262TIP3    H140201   2.844   3.788  13.767 -0.0769  0.0620 -0.3881
 6262TIP3    H240202   2.954   3.719  13.688 -0.3896  1.2446 -1.9148
 6263TIP3   OH240203   6.005   2.701  12.974  0.2037 -0.8388 -0.3437
 6263TIP3    H140204   6.003   2.661  12.886 -0.0629 -0.8827 -0.3180
 6263TIP3    H240205   6.080   2.660  13.016  2.0806  1.2183 -1.5029
 6264TIP3   OH240206   3.476   1.330   3.277 -0.0313 -0.2631  0.0877
 6264TIP3    H140207   3.448   1.242   3.250  1.6822 -1.1992  1.1726
 6264TIP3    H240208   3.549   1.315   3.336 -1.5194  1.7999  2.6929
 6265TIP3   OH240209   6.049   4.977  16.817  0.5083 -1.0081  0.1714
 6265TIP3    H140210   5.988   4.990  16.744  0.0858 -1.6630  0.4012
 6265TIP3    H240211   6.132   4.955  16.775  0.0326 -2.3612 -0.1059
 6266TIP3   OH240212   5.999   1.226  13.725  0.0194  0.2202 -0.2359
 6266TIP3    H140213   5.978   1.154  13.785 -0.7352 -1.8090 -2.7130
 6266TIP3    H240214   5.934   1.294  13.745 -0.1993 -0.3786  1.2131
 6267TIP3   OH240215   4.157   4.118   4.858 -0.2345 -0.1015  0.3366
 6267TIP3    H140216   4.236   4.122   4.912 -0.3249 -0.2570  0.4796
 6267TIP3    H240217   4.103   4.190   4.889 -0.4918 -0.4820  0.7734
 6268TIP3   OH240218   0.542   3.277   0.417 -0.4170 -0.2525 -0.1462
 6268TIP3    H140219   0.628   3.246   0.445 -0.3661  1.7903  2.2796
 6268TIP3    H240220   0.560   3.355   0.364 -0.7477  0.7823  1.2137
 6269TIP3   OH240221   6.052   4.686  16.660  0.2133 -0.1216 -0.0580
 6269TIP3    H140222   5.959   4.694  16.640  0.5051  0.4938 -1.2431
 6269TIP3    H240223   6.096   4.734  16.590  1.4183 -0.2317  0.6002
 6270TIP3   OH240224   4.309   5.575   2.451  0.0491  0.3080  0.4664
 6270TIP3    H140225   4.251   5.637   2.494  1.5518  0.4766  2.3515
 6270TIP3    H240226   4.300   5.595   2.358 -1.4542  1.5663  0.8347
 6271TIP3   OH240227   0.905   4.035   2.413 -0.1442  0.1713 -0.0191
 6271TIP3    H140228   0.991   4.017   2.376 -0.0640  0.7934 -0.1408
 6271TIP3    H240229   0.879   3.953   2.455 -0.2108 -0.5415 -1.3947
 6272TIP3   OH240230   5.727   0.776  15.251  0.0843  0.1187 -0.3310
 6272TIP3    H140231   5.683   0.693  15.265  0.6420 -0.4681 -1.8864
 6272TIP3    H240232   5.660   0.842  15.269 -0.5860 -0.6763  0.1543
 6273TIP3   OH240233   4.666   2.160  15.839 -0.2525 -0.3154  0.0170
 6273TIP3    H140234   4.724   2.236  15.836 -0.4042 -0.0686  1.9277
 6273TIP3    H240235   4.669   2.124  15.750  1.4919  0.6555 -0.3721
 6274TIP3   OH240236   1.608   6.620  15.172 -0.3778  0.0539 -0.2196
 6274TIP3    H140237   1.620   6.611  15.267 -2.2969  2.6444  0.3766
 6274TIP3    H240238   1.513   6.621  15.160 -0.1716  0.7538 -2.0326
 6275TIP3   OH240239   0.362   6.252   5.499  0.2089 -0.2688  0.1144
 6275TIP3    H140240   0.375   6.246   5.404  0.3434  1.3501  0.0072
 6275TIP3    H240241   0.373   6.345   5.519 -0.2006 -0.5305  1.6710
 6276TIP3   OH240242   3.322   0.576   0.742  0.3469  0.7499  0.1550
 6276TIP3    H140243   3.382   0.537   0.679  0.3328  0.4135  0.3477
 6276TIP3    H240244   3.377   0.598   0.818 -0.1459 -1.9308  1.4115
 6277TIP3   OH240245   0.910   4.143  16.949 -0.2014  0.1230 -0.5552
 6277TIP3    H140246   0.937   4.235  16.946  0.2999  0.0332  0.6226
 6277TIP3    H240247   0.878   4.125  16.861  0.2531  1.2576 -0.9776
 6278TIP3   OH240248   4.165   5.786   0.443 -0.2457  0.3050 -0.1778
 6278TIP3    H140249   4.070   5.794   0.433 -0.4484  0.0607  1.3161
 6278TIP3    H240250   4.184   5.827   0.528  0.9861  0.3592 -0.4538
 6279TIP3   OH240251   1.039   1.777   5.750  0.3276  0.1273 -0.2607
 6279TIP3    H140252   1.085   1.861   5.757  1.7940 -0.6832  0.2749
 6279TIP3    H240253   1.083   1.731   5.679  2.6826 -1.9791  2.3218
 6280TIP3   OH240254   6.299   3.547   4.928 -0.3513 -0.4438 -0.6428
 6280TIP3    H140255   6.234   3.563   4.859 -0.5416 -0.2961 -0.4258
 6280TIP3    H240256   6.250   3.555   5.010 -0.5718 -2.4819 -0.5081
 6281TIP3   OH240257   4.636   0.839   4.493 -0.4572 -0.6397 -0.1692
 6281TIP3    H140258   4.681   0.812   4.412  1.8007 -2.2548  1.5077
 6281TIP3    H240259   4.677   0.923   4.515 -0.4125 -0.6453 -0.2287
 6282TIP3   OH240260   5.669   5.507  14.997 -0.5164 -0.2015  0.1660
 6282TIP3    H140261   5.715   5.507  14.913  0.5834  3.3200  0.6105
 6282TIP3    H240262   5.736   5.481  15.060 -0.3178  0.6716  0.3254
 6283TIP3   OH240263   0.411   2.482  13.904 -0.2954 -0.4489 -0.0499
 6283TIP3    H140264   0.465   2.467  13.826 -1.4160 -0.7366 -0.7865
 6283TIP3    H240265   0.375   2.396  13.925  0.1175 -0.4038  0.8937
 6284TIP3   OH240266   2.139   6.528   3.369  0.2219 -0.8616 -0.0182
 6284TIP3    H140267   2.055   6.481   3.370  0.2617 -0.9461 -0.5344
 6284TIP3    H240268   2.167   6.527   3.460 -1.1768  0.7056  0.4894
 6285TIP3   OH240269   1.250   1.002   4.186  0.4562  0.2425  0.2598
 6285TIP3    H140270   1.233   1.000   4.092  1.5286  1.8736 -0.0155
 6285TIP3    H240271   1.239   1.094   4.210 -1.6425 -0.3969  2.1402
 6286TIP3   OH240272   1.051   2.086  15.109  0.3460 -0.1258  0.3377
 6286TIP3    H140273   0.978   2.131  15.066 -0.9100 -0.7349  1.7177
 6286TIP3    H240274   1.041   1.994  15.085 -0.7224 -0.5763  2.2659
 6287TIP3   OH240275   0.776   1.469   0.838 -0.3275  0.7281 -0.0293
 6287TIP3    H140276   0.820   1.394   0.876  1.1287  1.0391 -1.0009
 6287TIP3    H240277   0.800   1.543   0.895 -0.1161  0.7901 -0.1980
 6288TIP3   OH240278   3.647   2.179  15.849 -0.1351  0.9502 -0.3723
 6288TIP3    H140279   3.700   2.240  15.899  0.4630  0.3652 -0.2891
 6288TIP3    H240280   3.709   2.129  15.797 -0.6120  0.3433 -0.3702
 6289TIP3   OH240281   5.418   4.521   5.161 -0.1821 -0.3376 -0.2036
 6289TIP3    H140282   5.400   4.433   5.129 -1.3967 -0.3567  0.5009
 6289TIP3    H240283   5.406   4.577   5.084 -0.7873 -0.6309 -0.3271
 6290TIP3   OH240284   1.379   6.155  11.831  0.1674 -0.3488  0.1424
 6290TIP3    H140285   1.376   6.060  11.826  1.2085 -0.3451 -0.9563
 6290TIP3    H240286   1.463   6.174  11.874  1.5720  0.0894 -2.6013
 6291TIP3   OH240287   0.641   3.037   5.319 -0.4287  0.2236  0.3273
 6291TIP3    H140288   0.662   3.053   5.227 -0.8169 -0.3540  0.1354
 6291TIP3    H240289   0.546   3.025   5.320 -0.3466 -0.4158  0.7069
 6292TIP3   OH240290   3.250   5.911  13.928 -0.0542 -0.1489  0.4181
 6292TIP3    H140291   3.313   5.949  13.989 -0.0519 -0.4837  0.6217
 6292TIP3    H240292   3.218   5.832  13.971  0.1044 -0.5014 -0.1008
 6293TIP3   OH240293   4.725   6.596   0.282  0.3408  0.1137 -0.1534
 6293TIP3    H140294   4.811   6.581   0.242  0.7464 -0.9136  1.0156
 6293TIP3    H240295   4.727   6.544   0.362 -1.7643 -0.7960 -0.6170
 6294TIP3   OH240296   0.276   0.665  15.699  0.3162  0.1496 -0.1379
 6294TIP3    H140297   0.327   0.668  15.618 -0.4829  0.4124 -0.6459
 6294TIP3    H240298   0.189   0.696  15.674  0.7727  3.0601  1.3648
 6295TIP3   OH240299   0.945   0.060  12.497 -0.1986  0.5533 -0.3255
 6295TIP3    H140300   0.850   0.073  12.504 -0.1492  0.3785  0.8854
 6295TIP3    H240301   0.981   0.148  12.486 -0.4755  0.6390 -0.5582
 6296TIP3   OH240302   2.145   0.937  11.297 -0.3953 -0.6470 -0.2141
 6296TIP3    H140303   2.146   0.956  11.204 -4.4627 -0.6922 -0.4327
 6296TIP3    H240304   2.140   0.841  11.302 -0.6099 -0.6235  0.0510
 6297TIP3   OH240305   0.066   5.884   3.616  0.1466  0.0145 -0.1782
 6297TIP3    H140306   0.125   5.823   3.661  0.3351  0.8630  0.7720
 6297TIP3    H240307   0.119   5.963   3.604 -0.7506  0.7687  0.6340
 6298TIP3   OH240308   0.734   5.134   4.931 -0.4007  0.4336 -0.1913
 6298TIP3    H140309   0.776   5.219   4.949  1.5669 -0.7641  1.4044
 6298TIP3    H240310   0.779   5.101   4.853  0.7973 -0.2609  0.7473
 6299TIP3   OH240311   5.302   0.585   2.445  0.3261  0.4409 -0.1233
 6299TIP3    H140312   5.224   0.594   2.501  0.6645 -0.7085  0.5591
 6299TIP3    H240313   5.281   0.513   2.386 -0.3990  2.2393 -2.1699
 6300TIP3   OH240314   3.575   4.578  14.165  0.3742 -0.5349 -0.2139
 6300TIP3    H140315   3.653   4.606  14.118  0.3818 -2.1946 -1.3034
 6300TIP3    H240316   3.514   4.651  14.157  1.2349  0.1454 -0.7412
 6301TIP3   OH240317   5.516   5.579  14.694 -0.6562 -0.0526 -0.1242
 6301TIP3    H140318   5.569   5.560  14.617 -0.2645 -0.2764  0.1914
 6301TIP3    H240319   5.572   5.555  14.768  0.3821  3.4629  0.4073
 6302TIP3   OH240320   4.167   5.561   5.493  0.7388 -0.3362 -0.0782
 6302TIP3    H140321   4.086   5.611   5.494  0.6577 -0.3478 -2.0383
 6302TIP3    H240322   4.215   5.590   5.571 -0.5017  0.7274  0.3196
 6303TIP3   OH240323   2.479   4.239  13.947 -0.8333 -0.2751 -0.0598
 6303TIP3    H140324   2.528   4.318  13.967 -0.5203 -0.4606 -0.0953
 6303TIP3    H240325   2.470   4.193  14.031  0.4192 -1.0188 -0.3106
 6304TIP3   OH240326   1.633   4.098  12.008 -0.0872  0.1957 -0.2454
 6304TIP3    H140327   1.672   4.012  11.991 -1.8252 -0.8624  0.7054
 6304TIP3    H240328   1.656   4.118  12.099 -0.7016  0.1239 -0.0647
 6305TIP3   OH240329   3.682   3.039   3.050  0.0582  0.0034  0.3684
 6305TIP3    H140330   3.733   3.032   3.131  1.3342 -4.3270 -0.5552
 6305TIP3    H240331   3.592   3.020   3.076 -0.0429  1.2754  1.0568
 6306TIP3   OH240332   1.065   3.082   2.942  0.8769  0.7539 -0.4012
 6306TIP3    H140333   1.126   3.091   2.869 -0.1880  1.0454 -1.2854
 6306TIP3    H240334   1.013   3.005   2.920  1.6000 -0.1372  0.8710
 6307TIP3   OH240335   4.495   1.910   3.450 -0.5775 -0.0913  0.1721
 6307TIP3    H140336   4.570   1.850   3.451  1.1397  1.9544  0.2012
 6307TIP3    H240337   4.449   1.888   3.369 -0.3322 -1.7905  0.4465
 6308TIP3   OH240338   4.577   3.442   4.976 -0.5405  0.2623  0.3256
 6308TIP3    H140339   4.589   3.375   4.909 -1.2239  0.4778 -0.0212
 6308TIP3    H240340   4.657   3.494   4.973  0.2627 -0.9056  1.0273
 6309TIP3   OH240341   5.835   2.113  15.737 -0.1848  0.1987  0.2831
 6309TIP3    H140342   5.743   2.137  15.736 -0.0930  0.5304 -0.2064
 6309TIP3    H240343   5.861   2.121  15.829 -0.3859  1.0798  0.2640
 6310TIP3   OH240344   4.205   4.219  13.478  0.0011 -0.1688 -0.1569
 6310TIP3    H140345   4.290   4.239  13.439 -0.5129  1.2660 -0.6093
 6310TIP3    H240346   4.215   4.130  13.513  0.9465 -0.9317 -2.2170
 6311TIP3   OH240347   3.291   3.306  13.797  0.1444 -0.1767 -0.5846
 6311TIP3    H140348   3.198   3.285  13.797  0.1581 -0.2646  0.0426
 6311TIP3    H240349   3.296   3.393  13.835  0.2574  0.1457 -1.3291
 6312TIP3   OH240350   6.255   0.071  10.764 -0.3455  0.2765 -0.1537
 6312TIP3    H140351   6.270   0.161  10.733  1.4848 -0.4642 -1.6489
 6312TIP3    H240352   6.343   0.035  10.774 -1.0012 -2.0783 -1.9512
 6313TIP3   OH240353   3.543   5.258  12.994  0.4692 -0.1897 -0.7887
 6313TIP3    H140354   3.520   5.168  12.968  1.7139 -0.5462 -0.7382
 6313TIP3    H240355   3.639   5.258  12.996  0.4835  0.3379  1.9898
 6314TIP3   OH240356   5.858   5.519  16.733  0.4855  0.1194  1.2377
 6314TIP3    H140357   5.896   5.602  16.762  1.6214  0.2471 -0.4744
 6314TIP3    H240358   5.915   5.452  16.770 -0.2662  0.0789  2.3808
 6315TIP3   OH240359   2.304   4.066  12.963 -0.0977  0.4094  0.0715
 6315TIP3    H140360   2.240   3.995  12.968  2.4440 -2.1543 -1.0418
 6315TIP3    H240361   2.260   4.133  12.911 -2.3737 -0.6141  0.5504
 6316TIP3   OH240362   4.831   1.677  11.307 -0.1055 -0.1409 -0.1304
 6316TIP3    H140363   4.902   1.703  11.249 -1.5772  1.1406 -1.4309
 6316TIP3    H240364   4.871   1.612  11.366  2.2560  0.9300 -0.4367
 6317TIP3   OH240365   2.544   5.651   1.145 -0.4812 -0.2274 -0.3617
 6317TIP3    H140366   2.638   5.646   1.161 -0.7980 -1.2541  1.5228
 6317TIP3    H240367   2.527   5.582   1.081 -0.1002 -0.8134  0.1612
 6318TIP3   OH240368   1.153   4.169   4.403 -0.0797  0.1504  0.7234
 6318TIP3    H140369   1.175   4.077   4.384  0.6686  0.4130  0.2254
 6318TIP3    H240370   1.136   4.207   4.317  0.3724  0.6538  0.8492
 6319TIP3   OH240371   4.893   5.016  14.068 -0.5542  0.4032  0.0525
 6319TIP3    H140372   4.921   5.085  14.129 -0.4713  1.3425 -1.0303
 6319TIP3    H240373   4.870   4.943  14.125  0.9469  0.7328  1.1605
 6320TIP3   OH240374   1.525   2.242   1.522  0.2230 -0.4918 -0.2914
 6320TIP3    H140375   1.449   2.297   1.498  0.0091 -0.7710 -0.2531
 6320TIP3    H240376   1.600   2.298   1.505  0.0075 -0.2082 -0.3265
 6321TIP3   OH240377   0.317   1.970  16.322 -0.3415 -0.1408  0.3109
 6321TIP3    H140378   0.354   1.882  16.326  0.3062 -0.0639 -1.9965
 6321TIP3    H240379   0.222   1.957  16.329 -0.1580 -0.7475  2.2583
 6322TIP3   OH240380   3.043   1.611   3.469  0.3923  0.3280 -0.2037
 6322TIP3    H140381   3.132   1.611   3.435  0.6512  0.0917  0.4457
 6322TIP3    H240382   2.995   1.552   3.411  0.5488  0.7925 -0.8151
 6323TIP3   OH240383   0.169   4.437  16.645  0.4787 -0.3987  0.2240
 6323TIP3    H140384   0.259   4.470  16.641  0.5636 -0.6961 -0.4369
 6323TIP3    H240385   0.133   4.455  16.558  0.5323 -2.0380 -0.1627
 6324TIP3   OH240386   1.492   6.052   6.372 -0.2664  0.2413 -0.1443
 6324TIP3    H140387   1.582   6.069   6.402  0.1641 -0.2246 -1.1325
 6324TIP3    H240388   1.472   5.964   6.404  1.8748 -2.2722 -4.7686
 6325TIP3   OH240389   6.143   4.646  11.804  0.0493  0.1526  0.0710
 6325TIP3    H140390   6.115   4.639  11.713  0.0621  0.5307  0.0373
 6325TIP3    H240391   6.219   4.705  11.801  0.9231 -0.9208  0.1404
 6326TIP3   OH240392   3.634   1.388   2.236 -0.7271 -0.1399  0.2818
 6326TIP3    H140393   3.727   1.388   2.260 -1.3184  0.7457  2.8517
 6326TIP3    H240394   3.606   1.297   2.250 -0.6683  0.0081  1.4685
 6327TIP3   OH240395   3.111   6.286   4.788 -0.2155  0.4578 -0.2409
 6327TIP3    H140396   3.177   6.338   4.742  0.3476 -0.0978 -0.0846
 6327TIP3    H240397   3.106   6.324   4.876 -2.2278  2.3476 -1.0868
 6328TIP3   OH240398   1.823   4.131  15.057  0.7931  0.9072 -0.1817
 6328TIP3    H140399   1.750   4.132  15.119 -0.0221  0.9311 -1.1170
 6328TIP3    H240400   1.851   4.039  15.057  0.4825  0.8088 -0.1391
 6329TIP3   OH240401   3.428   0.301  12.024 -0.2934  0.1521 -0.3504
 6329TIP3    H140402   3.442   0.229  12.086  1.3081  0.7392  0.0270
 6329TIP3    H240403   3.358   0.270  11.967  0.0602 -1.5395  0.0618
 6330TIP3   OH240404   6.475   5.948  11.053 -0.3116  0.1746 -0.6344
 6330TIP3    H140405   6.444   5.985  10.970 -1.5874  0.0938 -0.2209
 6330TIP3    H240406   6.395   5.929  11.102  0.4199  1.6442  1.2617
 6331TIP3   OH240407   1.914   0.065  13.980  0.4334  0.6152  0.7486
 6331TIP3    H140408   1.854   0.127  13.939  0.9076  0.2165 -0.6079
 6331TIP3    H240409   2.000   0.108  13.975  0.4108  0.8475  1.9710
 6332TIP3   OH240410   0.228   0.445  15.873 -0.5342  0.3037  0.5130
 6332TIP3    H140411   0.144   0.428  15.831 -1.7516 -0.6596  3.1151
 6332TIP3    H240412   0.256   0.530  15.839 -3.4356  1.4764  0.8085
 6333TIP3   OH240413   0.711   2.187  12.061  0.4607  1.0347 -0.0535
 6333TIP3    H140414   0.748   2.099  12.054 -0.1114  0.7736  0.1322
 6333TIP3    H240415   0.628   2.182  12.015  0.1660  1.3275  0.4386
 6334TIP3   OH240416   0.365   1.350  11.453 -0.3735  0.3394 -0.2237
 6334TIP3    H140417   0.282   1.363  11.498 -0.7759  0.9382 -1.1022
 6334TIP3    H240418   0.430   1.394  11.508 -1.0964  2.5643 -1.0018
 6335TIP3   OH240419   3.722   2.614  17.199 -0.0360  0.4744  0.4172
 6335TIP3    H140420   3.745   2.551  17.267  0.6729 -0.0000 -0.2501
 6335TIP3    H240421   3.626   2.610  17.193 -0.0509  0.0479  0.9260
 6336TIP3   OH240422   6.511   6.483  12.165  0.4774  0.2793  0.0498
 6336TIP3    H140423   6.595   6.494  12.120  0.1681 -0.5097 -0.7494
 6336TIP3    H240424   6.491   6.390  12.155 -0.1300  0.3090  0.8919
 6337TIP3   OH240425   3.030   0.975  13.521  0.0613 -0.2930 -0.1401
 6337TIP3    H140426   3.125   0.977  13.507  0.2792  1.9816  1.2069
 6337TIP3    H240427   3.020   0.918  13.598  0.5131  0.6882  0.6638
 6338TIP3   OH240428   1.548   2.261  16.971  0.3300  0.0952  0.4250
 6338TIP3    H140429   1.624   2.284  17.025  1.0136 -1.6356  0.2436
 6338TIP3    H240430   1.512   2.183  17.012 -1.5502  1.0516  0.6631
 6339TIP3   OH240431   4.921   2.011  14.406  0.0292  0.6867 -0.1088
 6339TIP3    H140432   5.005   1.966  14.417  0.5776  1.1459 -1.9976
 6339TIP3    H240433   4.856   1.941  14.405  0.6330  0.1222 -0.8287
 6340TIP3   OH240434   3.891   4.317  10.952  0.5255  0.0685  0.3501
 6340TIP3    H140435   3.971   4.363  10.927 -0.4225  1.7955  0.3724
 6340TIP3    H240436   3.918   4.226  10.960  1.8860  0.0979 -2.5160
 6341TIP3   OH240437   0.289   0.711  12.098 -0.0717 -0.0514 -0.0023
 6341TIP3    H140438   0.298   0.633  12.152 -0.7385 -0.8709 -1.0369
 6341TIP3    H240439   0.313   0.682  12.010  1.7217  1.4392 -0.0534
 6342TIP3   OH240440   2.071   0.683   2.639  0.0841  0.1405  0.2024
 6342TIP3    H140441   2.096   0.768   2.602 -0.2861  0.3785  0.4919
 6342TIP3    H240442   2.054   0.628   2.563  2.6023 -0.4088 -0.0658
 6343TIP3   OH240443   4.031   0.658  15.941 -0.2269  0.0223 -0.1435
 6343TIP3    H140444   3.985   0.740  15.961  0.2512  0.6668 -1.5503
 6343TIP3    H240445   4.089   0.644  16.015 -0.6990  0.6665  0.3617
 6344TIP3   OH240446   5.121   3.777   1.275  0.1359  0.5621 -0.0996
 6344TIP3    H140447   5.130   3.871   1.292 -1.9367  1.0054 -1.1195
 6344TIP3    H240448   5.038   3.753   1.316  0.0593 -0.5690 -0.8675
 6345TIP3   OH240449   1.217   2.320   4.183 -0.0603 -0.4928  0.2134
 6345TIP3    H140450   1.132   2.312   4.226  0.6886 -0.8967  1.6885
 6345TIP3    H240451   1.209   2.269   4.103 -0.7569 -1.7498  1.0561
 6346TIP3   OH240452   6.291   3.466   4.230  0.0155 -0.0298  0.6130
 6346TIP3    H140453   6.273   3.554   4.263 -0.0944  0.5075 -0.8053
 6346TIP3    H240454   6.208   3.437   4.193  0.1671 -0.5502  0.6766
 6347TIP3   OH240455   3.747   2.885   1.328  0.3730 -0.0193  0.1947
 6347TIP3    H140456   3.675   2.834   1.291 -0.0471  1.3516 -0.9914
 6347TIP3    H240457   3.826   2.844   1.293  0.0178  0.5437 -1.3197
 6348TIP3   OH240458   4.686   1.931  13.835  0.2076  0.5819 -0.0620
 6348TIP3    H140459   4.767   1.981  13.823  0.9344 -0.5320  0.0631
 6348TIP3    H240460   4.641   1.974  13.908  0.8873  0.9609  0.1375
 6349TIP3   OH240461   1.043   0.073  11.378  0.1062  0.0204 -0.0754
 6349TIP3    H140462   1.111   0.006  11.376 -1.2495 -1.5062  1.3085
 6349TIP3    H240463   1.034   0.096  11.471 -0.4670  1.0386 -0.3639
 6350TIP3   OH240464   3.936   2.060   0.429 -0.0233  0.0273  0.3707
 6350TIP3    H140465   3.892   2.089   0.509 -0.7484  0.0704 -0.0281
 6350TIP3    H240466   4.025   2.040   0.456 -0.4888 -0.7979  1.3790
 6351TIP3   OH240467   2.712   6.686   4.559  0.5351  0.0803 -0.3857
 6351TIP3    H140468   2.777   6.714   4.494 -0.5818  0.2728 -1.4598
 6351TIP3    H240469   2.629   6.720   4.525 -0.1095 -0.0061  1.0512
 6352TIP3   OH240470   5.004   5.436  13.131  0.0883 -0.0042  0.0325
 6352TIP3    H140471   5.020   5.442  13.225  2.4924 -1.7062 -0.1685
 6352TIP3    H240472   5.088   5.458  13.091 -0.1625 -1.7083 -1.5650
 6353TIP3   OH240473   5.057   3.516   3.321 -0.2248  0.4464 -0.6275
 6353TIP3    H140474   5.078   3.578   3.251 -1.0112  1.6178  0.1322
 6353TIP3    H240475   5.040   3.572   3.397  0.1364 -0.7779  0.3704
 6354TIP3   OH240476   5.970   1.591  16.553  0.1667 -0.3058  0.1522
 6354TIP3    H140477   5.999   1.655  16.618  0.0221 -1.2635  1.1895
 6354TIP3    H240478   5.908   1.640  16.498  2.9200  1.5199 -1.5690
 6355TIP3   OH240479   3.328   1.307   1.318 -0.0551 -0.8154 -0.0147
 6355TIP3    H140480   3.336   1.334   1.409 -0.4992 -1.6133  0.2705
 6355TIP3    H240481   3.340   1.387   1.268 -0.8718 -0.1661  0.7856
 6356TIP3   OH240482   0.085   5.614  16.256  0.1320 -0.1801  0.0386
 6356TIP3    H140483   0.038   5.665  16.322 -1.2867 -0.8942 -0.4017
 6356TIP3    H240484   0.061   5.655  16.173  0.7810 -0.1808 -0.1540
 6357TIP3   OH240485   4.731   0.510   4.602  0.2627  0.1639 -0.5484
 6357TIP3    H140486   4.704   0.601   4.587  1.7646  0.6703 -0.3332
 6357TIP3    H240487   4.759   0.479   4.516  2.2119  0.7837 -0.1870
 6358TIP3   OH240488   3.951   5.290  10.986 -0.7187  0.3442  0.0091
 6358TIP3    H140489   3.890   5.230  10.943 -0.3493 -0.4237  0.5440
 6358TIP3    H240490   4.006   5.323  10.915 -0.3783 -0.5970 -0.1732
 6359TIP3   OH240491   5.481   5.890  12.989  0.1167 -0.2820 -0.5977
 6359TIP3    H140492   5.392   5.855  12.990  0.6165 -1.9638  3.3812
 6359TIP3    H240493   5.526   5.839  12.921 -1.1895 -1.6999 -0.4615
 6360TIP3   OH240494   0.355   4.635   3.880  0.1214  0.2205  0.6170
 6360TIP3    H140495   0.294   4.569   3.914  1.9332 -1.8853 -0.0066
 6360TIP3    H240496   0.436   4.619   3.927  0.9869  1.1939 -0.4791
 6361TIP3   OH240497   6.576   1.257   2.752  0.4662 -0.3431  0.2815
 6361TIP3    H140498   6.610   1.265   2.663 -0.0580  0.4344  0.1440
 6361TIP3    H240499   6.482   1.273   2.743  0.5137  0.4367  1.0697
 6362TIP3   OH240500   2.766   3.649  15.799  0.7267 -0.1837  0.1150
 6362TIP3    H140501   2.688   3.606  15.834  1.9491 -0.5359  2.6228
 6362TIP3    H240502   2.824   3.660  15.874  3.3875 -0.4970 -1.7206
 6363TIP3   OH240503   4.564   5.374   4.122 -0.7104  0.3286 -0.4468
 6363TIP3    H140504   4.500   5.404   4.186 -0.3957 -1.3245  0.7112
 6363TIP3    H240505   4.513   5.321   4.060 -0.6333 -0.1802 -0.0827
 6364TIP3   OH240506   5.859   1.943  11.153 -0.5958  0.5408  0.1460
 6364TIP3    H140507   5.954   1.945  11.137 -0.4044  2.3429  1.2701
 6364TIP3    H240508   5.850   1.965  11.245 -2.0650 -1.3044  0.4987
 6365TIP3   OH240509   1.185   1.434   3.588  0.0187 -0.0009 -0.0960
 6365TIP3    H140510   1.235   1.385   3.522  2.4298  0.8669  0.9672
 6365TIP3    H240511   1.094   1.409   3.573  0.8737 -2.6936 -1.3146
 6366TIP3   OH240512   5.326   3.224   1.666  0.1223  0.0666  0.2170
 6366TIP3    H140513   5.402   3.167   1.678 -0.3873 -0.6038  0.3637
 6366TIP3    H240514   5.269   3.175   1.607 -0.6488  0.0902  0.9258
 6367TIP3   OH240515   2.751   1.829  11.764  0.1507 -0.2331 -0.2277
 6367TIP3    H140516   2.763   1.826  11.669 -0.8351  0.9331 -0.4244
 6367TIP3    H240517   2.705   1.749  11.785  0.7696 -0.7161 -0.6579
 6368TIP3   OH240518   6.200   2.904  10.975  0.4123 -0.0548 -0.2900
 6368TIP3    H140519   6.121   2.850  10.982  1.1156 -1.1200 -0.4074
 6368TIP3    H240520   6.268   2.844  10.944  1.6121  0.4900  1.1404
 6369TIP3   OH240521   3.550   6.548  12.015  0.7510  0.0450  0.4220
 6369TIP3    H140522   3.477   6.521  11.960 -0.5141  0.7592  1.6767
 6369TIP3    H240523   3.601   6.469  12.028  0.7081 -0.2841 -1.1869
 6370TIP3   OH240524   0.756   2.674  12.680 -0.4042  0.2968  0.8257
 6370TIP3    H140525   0.816   2.631  12.740 -0.5881 -0.7223  0.2964
 6370TIP3    H240526   0.687   2.609  12.664 -0.2008  0.4254 -0.7199
 6371TIP3   OH240527   0.519   1.699  11.137 -0.1125  0.2794 -0.0929
 6371TIP3    H140528   0.585   1.650  11.186  0.2323 -0.3585 -1.1391
 6371TIP3    H240529   0.487   1.637  11.071 -1.1850  0.8306 -0.1126
 6372TIP3   OH240530   6.494   6.466   2.338 -0.0028 -0.0573 -0.4144
 6372TIP3    H140531   6.450   6.428   2.414  2.7102 -0.1231  1.2814
 6372TIP3    H240532   6.514   6.391   2.282  0.0202 -0.3364 -0.0377
 6373TIP3   OH240533   6.168   2.780   6.111  0.0403 -0.5399  0.0871
 6373TIP3    H140534   6.109   2.829   6.053 -0.2500 -1.4624 -0.4242
 6373TIP3    H240535   6.196   2.844   6.176  0.9273  0.7165 -1.4470
 6374TIP3   OH240536   2.516   2.152  12.415 -0.0373  0.5587  0.1925
 6374TIP3    H140537   2.487   2.172  12.504  0.8916 -0.7951  0.8303
 6374TIP3    H240538   2.600   2.198  12.406  0.8117 -0.8306  0.7281
 6375TIP3   OH240539   4.921   2.567  12.999  0.0030  0.5652 -0.2842
 6375TIP3    H140540   4.873   2.625  13.059 -0.4941 -0.0226 -0.0993
 6375TIP3    H240541   4.960   2.500  13.056 -0.1522  0.2241 -0.5719
 6376TIP3   OH240542   5.415   0.255  12.501 -0.2742 -0.1487  0.1573
 6376TIP3    H140543   5.325   0.289  12.504 -0.6884 -1.0511 -1.1299
 6376TIP3    H240544   5.453   0.282  12.584 -1.3287  1.3554  0.2013
 6377TIP3   OH240545   1.737   3.870   0.353 -0.6812  0.3712 -0.1471
 6377TIP3    H140546   1.747   3.861   0.258 -0.6265 -2.1850  0.0310
 6377TIP3    H240547   1.651   3.833   0.372 -0.8292  1.1584  0.7921
 6378TIP3   OH240548   3.028   3.991  15.813  0.3311  0.2697 -0.2078
 6378TIP3    H140549   3.033   4.052  15.740  0.0898  0.3634 -0.1479
 6378TIP3    H240550   3.107   4.009  15.865 -1.0107  2.4261  1.2717
 6379TIP3   OH240551   4.466   4.548  15.366  0.2464 -0.3850 -0.4444
 6379TIP3    H140552   4.441   4.480  15.428  0.7121 -1.5600 -1.4986
 6379TIP3    H240553   4.390   4.555  15.307 -0.1603  0.6639  0.1833
 6380TIP3   OH240554   5.185   4.653  12.945  0.2830  0.3111 -0.1022
 6380TIP3    H140555   5.247   4.701  12.999  0.2014  0.1441  0.1397
 6380TIP3    H240556   5.203   4.683  12.856  1.0679 -0.1126 -0.1005
 6381TIP3   OH240557   3.976   5.150   3.613 -0.2666 -0.5621  0.5180
 6381TIP3    H140558   4.035   5.082   3.580 -0.1978 -0.0934 -0.3713
 6381TIP3    H240559   4.022   5.232   3.596 -0.9070 -0.2238  0.3657
 6382TIP3   OH240560   5.723   2.202   5.290  0.1753 -0.0948  0.6878
 6382TIP3    H140561   5.661   2.159   5.231  0.0616  0.1442  0.6349
 6382TIP3    H240562   5.808   2.164   5.267  0.4230  1.2904 -0.8668
 6383TIP3   OH240563   6.151   3.366   0.245 -0.3430 -0.1902  0.0725
 6383TIP3    H140564   6.124   3.354   0.336 -0.4844 -2.0416 -0.1860
 6383TIP3    H240565   6.134   3.282   0.203 -1.8766  1.0953 -2.1137
 6384TIP3   OH240566   1.517   4.220   1.615  0.1155  0.2458  0.8612
 6384TIP3    H140567   1.542   4.182   1.531  0.7762  0.3515  1.0055
 6384TIP3    H240568   1.495   4.145   1.670  0.5113  0.1299  0.8593
 6385TIP3   OH240569   5.896   3.784  13.848  0.2318  0.2468  0.0727
 6385TIP3    H140570   5.986   3.791  13.879  0.7160  0.4519 -1.2935
 6385TIP3    H240571   5.902   3.799  13.754 -1.2455  0.3386 -0.0346
 6386TIP3   OH240572   1.123   0.196  17.038 -0.1999  0.3461  0.2149
 6386TIP3    H140573   1.086   0.216  17.124  0.3889  1.7993  0.1440
 6386TIP3    H240574   1.050   0.158  16.989 -0.5126 -0.6129  1.3765
 6387TIP3   OH240575   0.189   2.138  15.510 -0.1372  0.0155  0.5546
 6387TIP3    H140576   0.111   2.185  15.542  0.6554  0.3121  2.1831
 6387TIP3    H240577   0.262   2.182  15.553  0.7665 -1.6450  0.7950
 6388TIP3   OH240578   4.087   1.231  13.822 -0.3911 -0.0069  0.6919
 6388TIP3    H140579   4.009   1.179  13.803  0.6384 -1.5884  0.6244
 6388TIP3    H240580   4.123   1.192  13.901  0.9959 -0.0850  0.0481
 6389TIP3   OH240581   0.494   1.794  14.378 -0.7840 -0.1591  0.4186
 6389TIP3    H140582   0.486   1.860  14.309  1.8132  0.9247  1.0317
 6389TIP3    H240583   0.422   1.815  14.438 -1.1616  0.9137 -0.3584
 6390TIP3   OH240584   4.183   0.603  16.157 -0.3975  0.4751 -0.8194
 6390TIP3    H140585   4.179   0.595  16.253 -0.9183 -0.4483 -0.9108
 6390TIP3    H240586   4.275   0.588  16.136 -0.6207 -1.3874 -0.6192
 6391TIP3   OH240587   5.220   4.328  11.970  0.3328 -0.1302 -0.1230
 6391TIP3    H140588   5.292   4.373  11.927  1.1505 -0.9663  0.3560
 6391TIP3    H240589   5.259   4.286  12.046 -0.5755 -0.9473 -0.0862
 6392TIP3   OH240590   1.557   5.348   3.457  0.4444 -0.0298 -0.9307
 6392TIP3    H140591   1.584   5.436   3.482 -3.8079  1.1438  0.3214
 6392TIP3    H240592   1.579   5.293   3.532  0.6431  0.5096 -0.5926
 6393TIP3   OH240593   5.172   1.418   5.268 -0.3336  0.1685  0.2111
 6393TIP3    H140594   5.232   1.349   5.239 -1.3697 -0.2268 -1.0612
 6393TIP3    H240595   5.176   1.414   5.364  1.7411  0.2482  0.1627
 6394TIP3   OH240596   2.157   2.906   5.514 -0.5576  0.4341  0.8786
 6394TIP3    H140597   2.249   2.881   5.507 -0.4670  1.1572 -0.9102
 6394TIP3    H240598   2.113   2.858   5.444 -0.9177  2.6679 -0.5377
 6395TIP3   OH240599   3.202   3.356   4.028  0.2923  0.1338  0.5096
 6395TIP3    H140600   3.267   3.338   3.960  0.1295 -1.1596  0.6891
 6395TIP3    H240601   3.118   3.340   3.985  0.2036 -1.2522  1.1558
 6396TIP3   OH240602   1.423   1.682   0.033 -0.2762  0.0969  0.4062
 6396TIP3    H140603   1.332   1.696   0.059 -0.0819  0.5562  0.8478
 6396TIP3    H240604   1.421   1.689  -0.063 -0.5763  0.9032  0.4651
 6397TIP3   OH240605   4.279   6.339  14.145  0.4240 -0.4881 -0.0059
 6397TIP3    H140606   4.362   6.380  14.121 -0.0997  0.0291 -0.9985
 6397TIP3    H240607   4.294   6.245  14.132  0.8911 -0.4128 -0.0352
 6398TIP3   OH240608   6.094   5.261   2.657  0.2864 -0.1412 -0.4486
 6398TIP3    H140609   6.038   5.286   2.584  1.8345  0.0785 -1.6017
 6398TIP3    H240610   6.075   5.168   2.672  0.9890 -0.5908 -2.1294
 6399TIP3   OH240611   2.760   1.517   4.163 -0.3593  0.0416  0.2172
 6399TIP3    H140612   2.762   1.456   4.236  2.0907  0.2198  0.3947
 6399TIP3    H240613   2.851   1.548   4.155 -0.9565  1.5297 -1.6351
 6400TIP3   OH240614   6.710   5.433  12.409 -0.5113  0.1836 -0.6429
 6400TIP3    H140615   6.725   5.486  12.330  0.9283  0.8467  0.0439
 6400TIP3    H240616   6.630   5.384  12.390  0.0369 -0.0133 -2.7046
 6401TIP3   OH240617   4.566   3.570  15.958  0.5066  0.6624 -0.7526
 6401TIP3    H140618   4.597   3.660  15.954  1.3259  0.3746 -1.1775
 6401TIP3    H240619   4.517   3.557  15.877  1.2985  0.4168 -1.2057
 6402TIP3   OH240620   3.082   5.466  11.678 -0.5186  0.2233 -0.3714
 6402TIP3    H140621   3.170   5.504  11.676 -0.5086  0.3556  1.2438
 6402TIP3    H240622   3.097   5.371  11.680 -0.5029  0.1389 -2.6648
 6403TIP3   OH240623   2.462   5.212  10.538  0.6475  0.6788 -0.5366
 6403TIP3    H140624   2.411   5.275  10.589  1.0194 -1.0904  2.1914
 6403TIP3    H240625   2.553   5.232  10.560  0.7501 -1.2282  1.0505
 6404TIP3   OH240626   1.308   2.169  16.667  0.4872  0.4012 -0.3671
 6404TIP3    H140627   1.297   2.231  16.739  2.0225  1.9179 -1.3751
 6404TIP3    H240628   1.402   2.168  16.650  0.4819 -2.0460 -0.5783
 6405TIP3   OH240629   5.401   4.696  16.072 -0.1756 -0.2516  0.4055
 6405TIP3    H140630   5.448   4.667  16.151 -0.0035  1.5090  0.9941
 6405TIP3    H240631   5.440   4.781  16.052 -0.6297 -0.4182 -1.2560
 6406TIP3   OH240632   2.356   2.832  14.780 -0.3636  0.4012 -0.3652
 6406TIP3    H140633   2.387   2.773  14.711 -1.0137  0.9011 -1.0992
 6406TIP3    H240634   2.325   2.774  14.849 -1.0732 -0.1301 -1.1098
 6407TIP3   OH240635   6.202   4.461  16.554  0.3658  0.4849  0.0821
 6407TIP3    H140636   6.151   4.382  16.534  1.0178  0.2751 -0.8254
 6407TIP3    H240637   6.153   4.532  16.513 -0.3034  0.5964  1.0291
 6408TIP3   OH240638   6.441   3.801   4.079 -0.4479 -0.1918 -0.3611
 6408TIP3    H140639   6.439   3.706   4.069  0.1337 -0.4257  1.3489
 6408TIP3    H240640   6.500   3.816   4.153 -0.1336  1.5398 -0.9126
 6409TIP3   OH240641   2.601   1.389  16.194  0.1393 -0.1082  0.2422
 6409TIP3    H140642   2.685   1.411  16.236 -0.4722  1.2894  0.8026
 6409TIP3    H240643   2.603   1.294  16.185  2.1922 -0.0545 -0.6343
 6410TIP3   OH240644   5.174   5.392  15.085 -0.1142  0.2272  0.1084
 6410TIP3    H140645   5.268   5.381  15.072  0.7197  0.8317  4.2692
 6410TIP3    H240646   5.162   5.487  15.089 -0.9380  0.1563 -0.4166
 6411TIP3   OH240647   1.464   5.842   0.790 -0.0676 -0.3126 -0.1213
 6411TIP3    H140648   1.474   5.791   0.871 -1.8284 -1.1130 -0.3495
 6411TIP3    H240649   1.479   5.778   0.720  0.0115  0.0408 -0.4300
 6412TIP3   OH240650   5.044   0.791  13.212 -0.2387  0.5217  0.0925
 6412TIP3    H140651   5.018   0.702  13.235 -0.0456  0.4746  0.1281
 6412TIP3    H240652   5.124   0.780  13.159 -0.7730  0.6126 -0.7598
 6413TIP3   OH240653   2.951   0.639   5.120 -0.2419  0.9675 -0.0536
 6413TIP3    H140654   2.961   0.601   5.033  2.8173 -1.7966  1.2919
 6413TIP3    H240655   2.999   0.580   5.178 -2.5571  2.3588  3.6637
 6414TIP3   OH240656   0.909   0.548   4.634 -0.5238  0.3366  0.3490
 6414TIP3    H140657   1.002   0.568   4.642 -0.4765  1.4086 -2.0360
 6414TIP3    H240658   0.898   0.519   4.544 -2.5194  0.2021  0.5829
 6415TIP3   OH240659   5.960   3.253   3.051 -0.2264  0.0998  0.3647
 6415TIP3    H140660   6.005   3.308   2.986 -0.3029  0.7546  0.8587
 6415TIP3    H240661   5.884   3.305   3.077 -1.9300 -1.4483 -1.2822
 6416TIP3   OH240662   1.006   1.160  11.998  0.0871 -0.1826 -0.6681
 6416TIP3    H140663   1.043   1.197  12.078  0.0273  0.3895 -0.8991
 6416TIP3    H240664   1.048   1.210  11.927  0.7504 -1.2187 -1.0350
 6417TIP3   OH240665   2.565   4.579   1.620 -0.2024  0.3596  0.6493
 6417TIP3    H140666   2.539   4.506   1.676 -3.7867  1.0049  0.0579
 6417TIP3    H240667   2.521   4.655   1.658  0.9718  1.6523 -0.4793
 6418TIP3   OH240668   3.469   5.689  15.732 -0.0737  0.0173  0.0323
 6418TIP3    H140669   3.526   5.622  15.768 -1.5889 -1.6527 -0.5581
 6418TIP3    H240670   3.402   5.702  15.800 -0.3310  0.2441 -0.2610
 6419TIP3   OH240671   4.994   0.437   2.046  0.1015 -0.0421 -0.0763
 6419TIP3    H140672   4.916   0.484   2.016  0.2594  0.2215 -0.0855
 6419TIP3    H240673   5.067   0.487   2.008  0.2806 -0.1008  0.1933
 6420TIP3   OH240674   6.003   4.069   3.357  0.4784 -0.3998 -0.1762
 6420TIP3    H140675   5.959   4.087   3.440  3.2970  0.5922  1.1943
 6420TIP3    H240676   6.054   3.990   3.374  1.6303  0.2088 -0.7026
 6421TIP3   OH240677   4.697   5.439  16.284 -0.7036 -0.0149  0.0007
 6421TIP3    H140678   4.713   5.454  16.377 -2.5088  1.4127  0.1364
 6421TIP3    H240679   4.736   5.515  16.240  1.9698 -1.6587 -0.6865
 6422TIP3   OH240680   0.860   3.599  11.343  0.3604  0.1727  0.4988
 6422TIP3    H140681   0.846   3.693  11.331 -1.2207 -0.0893  0.0142
 6422TIP3    H240682   0.799   3.558  11.281 -0.8568 -1.1791  2.4733
 6423TIP3   OH240683   6.512   2.028  15.666  0.0908  0.6693 -0.1806
 6423TIP3    H140684   6.466   1.944  15.657  0.4512  0.4816 -0.2830
 6423TIP3    H240685   6.455   2.091  15.622 -0.7030  0.6717  0.7922
 6424TIP3   OH240686   3.817   0.905   2.875 -0.1938 -0.0696 -0.0411
 6424TIP3    H140687   3.724   0.900   2.898 -0.3486  1.5409 -0.2071
 6424TIP3    H240688   3.862   0.906   2.959 -0.0743 -3.4634  0.0762
 6425TIP3   OH240689   0.704   0.679  13.791  0.1031  0.2584 -0.6862
 6425TIP3    H140690   0.763   0.691  13.865 -0.0087 -0.5386 -0.4592
 6425TIP3    H240691   0.761   0.677  13.715  0.1259  2.4143 -0.8090
 6426TIP3   OH240692   3.397   4.381  13.175  0.5731  0.2672 -0.0235
 6426TIP3    H140693   3.440   4.452  13.127  1.6708  0.2405  0.8678
 6426TIP3    H240694   3.419   4.397  13.267 -2.1157  0.7541  0.6220
 6427TIP3   OH240695   5.047   6.655  11.721  0.5088 -0.0308  0.8005
 6427TIP3    H140696   5.139   6.681  11.717  0.1256  1.2918 -0.2602
 6427TIP3    H240697   5.005   6.723  11.775  0.0501 -0.2267  0.6973
 6428TIP3   OH240698   1.441   3.208  16.765  0.5502 -0.3179  0.0420
 6428TIP3    H140699   1.497   3.155  16.708  1.1815 -0.5045  0.8291
 6428TIP3    H240700   1.379   3.144  16.802  1.6494 -0.6379  1.4112
 6429TIP3   OH240701   5.794   4.115   2.057 -0.3341  0.4809  0.2186
 6429TIP3    H140702   5.702   4.090   2.068 -0.2494 -1.4334 -2.5516
 6429TIP3    H240703   5.799   4.152   1.969  1.5589  0.5638  0.3149
 6430TIP3   OH240704   1.064   2.033  14.796  0.3983 -0.0472  0.8935
 6430TIP3    H140705   1.068   1.975  14.872 -0.0832  1.3134  2.0206
 6430TIP3    H240706   1.132   2.001  14.737  0.8751 -1.0737  1.9674
 6431TIP3   OH240707   6.053   1.019   1.506  0.5522  0.7595  0.0804
 6431TIP3    H140708   6.043   0.973   1.423  0.7063  1.7344 -0.5054
 6431TIP3    H240709   6.139   1.061   1.500  0.9450  0.1243  1.1073
 6432TIP3   OH240710   0.015   6.639  16.523 -0.1629  0.1112  0.0844
 6432TIP3    H140711   0.011   6.544  16.536 -0.3600  0.1864  0.6193
 6432TIP3    H240712   0.104   6.662  16.547 -0.1183  0.0625 -0.0334
 6433TIP3   OH240713   3.654   6.618   5.353  0.3787 -0.5426  0.2566
 6433TIP3    H140714   3.709   6.591   5.426 -1.7983  0.7653  2.5395
 6433TIP3    H240715   3.617   6.702   5.380 -1.6545 -0.6911 -1.7140
 6434TIP3   OH240716   6.450   1.625  11.822  0.1569 -0.0113  0.3905
 6434TIP3    H140717   6.546   1.628  11.819  0.2063 -1.2532 -0.8292
 6434TIP3    H240718   6.429   1.539  11.786 -1.3918 -0.2998  1.8837
 6435TIP3   OH240719   1.372   0.055  15.780  0.0071  0.5612 -0.2610
 6435TIP3    H140720   1.297   0.018  15.825 -0.1406 -0.1863 -1.0880
 6435TIP3    H240721   1.416  -0.021  15.741  1.3056  0.9588  0.3784
 6436TIP3   OH240722   3.497   6.198   1.710 -0.1337 -0.6351  0.2132
 6436TIP3    H140723   3.469   6.174   1.622 -0.0602 -1.2853  0.3616
 6436TIP3    H240724   3.580   6.243   1.698  0.9331 -2.5208  0.0766
 6437TIP3   OH240725   2.191   1.502   0.727  0.2454  0.0547  0.4698
 6437TIP3    H140726   2.237   1.434   0.776  0.9581 -0.2425 -0.5837
 6437TIP3    H240727   2.102   1.467   0.715 -0.0002  0.2308  1.7144
 6438TIP3   OH240728   3.950   5.251   6.294 -0.3944 -0.2673  0.0932
 6438TIP3    H140729   3.905   5.247   6.378  0.0800 -1.0882  0.3151
 6438TIP3    H240730   3.912   5.328   6.251 -3.1301 -1.7244 -0.3581
 6439TIP3   OH240731   4.893   2.944  12.850  0.0986  0.1534  0.2957
 6439TIP3    H140732   4.809   2.897  12.851  0.0657  0.2108  0.2966
 6439TIP3    H240733   4.886   3.002  12.774  0.1244  0.1823  0.3159
 6440TIP3   OH240734   4.029   0.853   4.107  0.1235 -0.6370  0.1657
 6440TIP3    H140735   4.066   0.773   4.144  2.2226  0.2287  0.0951
 6440TIP3    H240736   4.041   0.845   4.013  0.4589 -0.1911  0.1669
 6441TIP3   OH240737   6.082   0.926  14.438 -0.1210 -0.1131 -0.2128
 6441TIP3    H140738   6.041   0.989  14.498  0.5559 -0.0473  0.1981
 6441TIP3    H240739   6.024   0.923  14.362  0.4126  1.8565 -0.7331
 6442TIP3   OH240740   0.857   5.570   0.255  0.3750  0.7016  0.1997
 6442TIP3    H140741   0.797   5.539   0.323  1.2446 -2.4526 -0.3195
 6442TIP3    H240742   0.944   5.549   0.289  0.8795  0.2705 -1.3122
 6443TIP3   OH240743   1.523   6.640   0.838 -0.5109  0.4288 -0.5142
 6443TIP3    H140744   1.450   6.685   0.796  0.2708  1.1774 -1.1121
 6443TIP3    H240745   1.549   6.699   0.910 -1.3724 -0.4982  0.5958
 6444TIP3   OH240746   5.321   6.286   0.620 -1.0057 -0.4959 -0.1536
 6444TIP3    H140747   5.338   6.196   0.646 -0.6976 -1.0120 -1.9867
 6444TIP3    H240748   5.407   6.327   0.617 -1.1034 -0.2504  0.2393
 6445TIP3   OH240749   5.626   4.828   0.287  0.0606  0.2166  0.2184
 6445TIP3    H140750   5.624   4.805   0.195 -1.5999  0.6629  0.1167
 6445TIP3    H240751   5.579   4.757   0.331  2.5531 -1.0667  1.0370
 6446TIP3   OH240752   4.624   6.266   3.790 -0.1859  0.1331  0.3568
 6446TIP3    H140753   4.709   6.244   3.828 -1.2545 -0.5726  2.4759
 6446TIP3    H240754   4.627   6.362   3.781  0.6654  0.1652  0.8139
 6447TIP3   OH240755   6.668   2.407  13.834 -0.1866 -0.6684  0.3905
 6447TIP3    H140756   6.696   2.326  13.877 -0.4116 -1.4030 -0.7924
 6447TIP3    H240757   6.599   2.379  13.774  0.3400  0.2603 -0.6776
 6448TIP3   OH240758   4.432   4.531   2.269 -0.3522 -0.7361 -0.1333
 6448TIP3    H140759   4.432   4.503   2.177 -0.6270  0.3895 -0.4846
 6448TIP3    H240760   4.494   4.471   2.311  1.5328  0.1447 -1.5131
 6449TIP3   OH240761   4.550   1.315  11.922 -0.1644  0.1101 -0.5515
 6449TIP3    H140762   4.593   1.323  12.008  1.6667 -1.2210 -1.2752
 6449TIP3    H240763   4.615   1.350  11.861 -1.9267  2.2105 -1.3564
 6450TIP3   OH240764   4.259   5.562   6.172 -0.5815  0.0820  0.1402
 6450TIP3    H140765   4.186   5.603   6.220 -0.9450  0.5196 -0.7660
 6450TIP3    H240766   4.241   5.468   6.176 -0.7174  0.1263  0.6756
 6451TIP3   OH240767   2.539   4.238   1.979 -0.2016 -0.2802  0.1108
 6451TIP3    H140768   2.523   4.226   1.885 -2.3366  1.3830  0.1874
 6451TIP3    H240769   2.467   4.294   2.008  1.5234  0.9107  2.3439
 6452TIP3   OH240770   0.120   4.628  15.179  0.1145  0.0474  0.0032
 6452TIP3    H140771   0.111   4.659  15.089  0.6539  1.6386  0.4656
 6452TIP3    H240772   0.201   4.578  15.180 -0.6716 -1.3073 -0.7133
 6453TIP3   OH240773   1.358   0.041  17.234  0.4001  0.0519  0.2031
 6453TIP3    H140774   1.354   0.057  17.328  2.4230  0.3978  0.2712
 6453TIP3    H240775   1.430  -0.020  17.222  0.9267  0.8766 -1.2024
 6454TIP3   OH240776   1.523   0.080   4.140  0.3562 -0.1349 -0.6983
 6454TIP3    H140777   1.491   0.164   4.173 -0.1792 -0.1014 -1.2920
 6454TIP3    H240778   1.485   0.014   4.198 -1.1863 -0.1309 -1.6698
 6455TIP3   OH240779   3.340   5.200  16.118  0.2312  0.2759 -0.8537
 6455TIP3    H140780   3.301   5.249  16.190  0.0574 -0.2298 -0.5998
 6455TIP3    H240781   3.352   5.111  16.153 -0.3937 -0.1248 -1.6304
 6456TIP3   OH240782   0.965   5.925  14.161 -0.4501 -0.2566 -0.0675
 6456TIP3    H140783   1.001   6.001  14.115  0.1774 -0.9612 -0.7757
 6456TIP3    H240784   1.032   5.902  14.225  0.8461 -2.0682 -1.9324
 6457TIP3   OH240785   0.042   3.044   5.435 -0.2943  0.7096 -0.2536
 6457TIP3    H140786   0.086   2.966   5.402  0.6280  0.2153  1.9523
 6457TIP3    H240787  -0.045   3.040   5.396 -0.0246 -1.0356 -0.7797
 6458TIP3   OH240788   4.353   1.039  15.689  0.7538 -0.4677 -0.1364
 6458TIP3    H140789   4.369   0.951  15.654  0.1889  0.1705 -2.1766
 6458TIP3    H240790   4.350   1.095  15.611 -0.3264  1.1398  0.9987
 6459TIP3   OH240791   0.696   2.920   4.966 -0.1226 -0.0599 -0.2001
 6459TIP3    H140792   0.624   2.969   5.006  0.6758  0.3136  0.8356
 6459TIP3    H240793   0.672   2.913   4.874 -2.8685 -2.4667  0.5788
 6460TIP3   OH240794   6.339   5.671   4.342 -0.0331 -0.0600  0.2806
 6460TIP3    H140795   6.263   5.614   4.335 -0.0967  0.1320 -0.8416
 6460TIP3    H240796   6.341   5.718   4.259  1.5641 -0.3929  0.0931
 6461TIP3   OH240797   1.722   4.011  16.289 -0.2034  0.0467 -0.2497
 6461TIP3    H140798   1.764   3.992  16.373 -2.6226  0.3163  1.1231
 6461TIP3    H240799   1.708   4.106  16.291 -0.3104  0.0475 -0.9358
 6462TIP3   OH240800   5.944   2.374   3.373 -0.1493 -0.1816  0.1427
 6462TIP3    H140801   6.004   2.364   3.299  0.8003  2.2784  0.4867
 6462TIP3    H240802   5.959   2.296   3.426  3.5052  0.7096  0.6833
 6463TIP3   OH240803   4.278   5.477  11.568 -0.2439  0.0153 -0.5084
 6463TIP3    H140804   4.293   5.550  11.628  2.5129 -1.7542  1.1553
 6463TIP3    H240805   4.352   5.481  11.507 -0.1714 -1.2358 -0.5294
 6464TIP3   OH240806   0.313   1.729  12.861 -0.1619  0.6213  0.9234
 6464TIP3    H140807   0.374   1.765  12.797  0.1706 -1.2518  0.1132
 6464TIP3    H240808   0.360   1.655  12.900 -2.1976 -1.6197 -0.5442
 6465TIP3   OH240809   3.763   6.301  14.155  0.3473 -0.0536 -0.7201
 6465TIP3    H140810   3.775   6.341  14.069 -0.9746  1.3216 -0.3154
 6465TIP3    H240811   3.674   6.266  14.153  0.0490  0.5944  0.2807
 6466TIP3   OH240812   4.990   4.781   2.860 -0.6224  0.1583  0.1818
 6466TIP3    H140813   4.897   4.773   2.838 -1.0971  2.8665  0.9270
 6466TIP3    H240814   5.034   4.785   2.775 -0.9892 -2.0537 -0.1974
 6467TIP3   OH240815   1.575   4.531  16.629 -0.0746 -0.8382  0.2828
 6467TIP3    H140816   1.642   4.505  16.565 -0.9540 -1.5537 -0.3714
 6467TIP3    H240817   1.517   4.590  16.581 -0.8077 -1.4754  0.3656
 6468TIP3   OH240818   4.154   0.742  12.810  0.1147  0.9957 -0.3293
 6468TIP3    H140819   4.249   0.756  12.809  0.4414 -0.8944 -1.7984
 6468TIP3    H240820   4.119   0.821  12.851  2.1794  2.6047 -1.4255
 6469TIP3   OH240821   3.505   5.008  12.905 -0.1424  0.0594  0.1341
 6469TIP3    H140822   3.579   4.958  12.872  0.5612  3.3060 -3.9067
 6469TIP3    H240823   3.429   4.954  12.884  0.6761 -0.1377 -2.6791
 6470TIP3   OH240824   1.829   3.933   6.045  0.1113  0.3179 -0.2071
 6470TIP3    H140825   1.894   3.909   6.111 -0.3816 -1.3280 -0.2751
 6470TIP3    H240826   1.775   3.855   6.035 -1.1446  1.2491 -1.0215
 6471TIP3   OH240827   4.566   1.215   1.946 -0.0771  0.5153 -0.6785
 6471TIP3    H140828   4.533   1.235   2.034  0.4782 -0.8642 -0.1259
 6471TIP3    H240829   4.520   1.277   1.889 -1.7300  0.3152  0.3546
 6472TIP3   OH240830   1.365   5.835  12.475 -0.6493  0.1242 -0.3700
 6472TIP3    H140831   1.404   5.786  12.547 -1.6886  1.5576  1.2673
 6472TIP3    H240832   1.341   5.769  12.411  2.7686 -0.9820 -0.7226
 6473TIP3   OH240833   2.663   1.181   6.559 -0.0891  0.3279 -0.9458
 6473TIP3    H140834   2.712   1.151   6.636  0.9998  0.6635 -1.4790
 6473TIP3    H240835   2.574   1.149   6.573  0.0796  0.3941  0.4533
 6474TIP3   OH240836   2.364   5.092  17.300  0.1811  0.1585  0.4046
 6474TIP3    H140837   2.290   5.042  17.334  1.1439 -0.3507  1.8612
 6474TIP3    H240838   2.380   5.159  17.367  0.4052  0.9249 -0.3899
 6475TIP3   OH240839   2.031   2.838   3.343  0.3019  0.5119 -0.4753
 6475TIP3    H140840   2.082   2.899   3.289 -2.7097  2.5296 -1.3085
 6475TIP3    H240841   2.044   2.869   3.432  4.2660 -2.0449  0.0686
 6476TIP3   OH240842   5.930   3.169   0.746  0.1277 -0.1661  0.4673
 6476TIP3    H140843   5.845   3.208   0.762  0.8219  1.6215  0.0278
 6476TIP3    H240844   5.976   3.233   0.692  1.3147 -1.6382 -0.3530
 6477TIP3   OH240845   2.658   1.373  11.218 -0.4217 -0.2976  0.3938
 6477TIP3    H140846   2.698   1.287  11.232  1.4129  0.4495  0.0650
 6477TIP3    H240847   2.732   1.434  11.221 -1.4431  1.0883 -1.1565
 6478TIP3   OH240848   3.658   0.865  16.254 -0.2494  0.3099  0.3918
 6478TIP3    H140849   3.624   0.815  16.328  0.6970  0.6837  1.1004
 6478TIP3    H240850   3.684   0.949  16.292 -2.0763  1.4916 -0.8142
 6479TIP3   OH240851   6.084   6.178  14.045  0.1348 -0.4966  0.5010
 6479TIP3    H140852   6.173   6.209  14.030 -0.1366  0.2321  0.3760
 6479TIP3    H240853   6.092   6.122  14.123  0.8030 -0.9360  0.1295
 6480TIP3   OH240854   5.717   0.340  16.540 -0.2833  0.1718  0.1047
 6480TIP3    H140855   5.707   0.249  16.512 -0.5169 -0.0011  0.7223
 6480TIP3    H240856   5.757   0.384  16.466  0.7611 -0.6544  0.1561
 6481TIP3   OH240857   2.053   0.521  12.502  0.3841  0.3303  0.4484
 6481TIP3    H140858   2.021   0.463  12.571  1.9649 -1.4001 -0.1806
 6481TIP3    H240859   2.130   0.477  12.468 -1.0256  0.3906 -3.3395
 6482TIP3   OH240860   3.701   3.725  10.964 -0.4344 -0.0054  0.3450
 6482TIP3    H140861   3.696   3.648  10.907  0.0923 -1.2481  1.9220
 6482TIP3    H240862   3.791   3.758  10.951 -0.6135  0.2797 -0.2205
 6483TIP3   OH240863   4.350   5.035   0.117 -0.4449 -0.5140  0.8971
 6483TIP3    H140864   4.281   4.989   0.068 -1.9112  2.1114  0.2724
 6483TIP3    H240865   4.409   5.068   0.049 -1.3208  1.3415  0.9643
 6484TIP3   OH240866   3.980   3.292  11.910 -0.3692 -0.1360  0.0925
 6484TIP3    H140867   4.051   3.317  11.969  0.7382 -1.6429 -0.5468
 6484TIP3    H240868   3.979   3.362  11.844  2.2340 -1.2945 -1.3042
 6485TIP3   OH240869   0.632   5.455   0.417 -0.2174 -0.6313 -0.0110
 6485TIP3    H140870   0.628   5.377   0.473  0.4013 -0.6039  0.0764
 6485TIP3    H240871   0.544   5.462   0.380 -0.1827 -1.5844 -0.3031
 6486TIP3   OH240872   4.868   5.314  12.671 -0.0068  0.6943  0.1647
 6486TIP3    H140873   4.940   5.357  12.717  0.1137  1.3629 -0.6216
 6486TIP3    H240874   4.835   5.381  12.611  0.0837 -0.2615 -0.9868
 6487TIP3   OH240875   4.110   6.676  13.601 -0.0849 -0.2430 -0.4182
 6487TIP3    H140876   4.064   6.624  13.534  1.6032 -1.7476 -0.4807
 6487TIP3    H240877   4.079   6.641  13.684  1.9905 -2.3738 -0.4463
 6488TIP3   OH240878   1.247   1.048  12.669  0.3755 -0.0607  0.0352
 6488TIP3    H140879   1.203   0.978  12.623 -1.2421  0.6611  0.4240
 6488TIP3    H240880   1.334   1.013  12.689 -0.9135 -2.5837  1.6857
 6489TIP3   OH240881   1.116   6.402   6.292 -0.3874 -0.6484 -0.3890
 6489TIP3    H140882   1.198   6.450   6.286  0.0705 -1.2403  0.8298
 6489TIP3    H240883   1.128   6.341   6.365 -1.4737 -1.6001 -0.9596
 6490TIP3   OH240884   1.835   0.155  17.148 -0.0622 -0.6795  0.3244
 6490TIP3    H140885   1.808   0.074  17.191 -0.4773 -0.7379 -0.0361
 6490TIP3    H240886   1.753   0.197  17.124  0.1219 -1.6773 -2.3447
 6491TIP3   OH240887   2.467   5.230  10.893  0.9646 -0.0965  0.3202
 6491TIP3    H140888   2.500   5.318  10.910  0.5057 -0.4510  3.6820
 6491TIP3    H240889   2.533   5.172  10.930  1.0277 -1.2048 -1.4134
 6492TIP3   OH240890   2.738   0.977   1.124  0.1926 -0.0758 -0.3927
 6492TIP3    H140891   2.833   0.988   1.123  0.3672 -0.9681  1.5109
 6492TIP3    H240892   2.725   0.887   1.094  0.2573 -1.1407  2.5115
 6493TIP3   OH240893   0.925   4.873  10.649  0.0870  0.2240  0.1965
 6493TIP3    H140894   0.995   4.835  10.596  1.3494  1.4650  0.9155
 6493TIP3    H240895   0.892   4.800  10.701  0.1851 -0.5782 -0.8268
 6494TIP3   OH240896   5.238   6.735   0.061 -0.7946 -0.2620 -0.1280
 6494TIP3    H140897   5.298   6.770  -0.005 -0.3700 -1.5595 -0.4543
 6494TIP3    H240898   5.277   6.760   0.144  1.1509 -2.4427 -0.2769
 6495TIP3   OH240899   4.313   2.730  13.608  0.4962 -0.4404  0.0917
 6495TIP3    H140900   4.241   2.792  13.624 -1.5195 -2.1786 -1.6365
 6495TIP3    H240901   4.282   2.647  13.645  0.4693 -1.8234 -2.8118
 6496TIP3   OH240902   6.275   5.924  13.059 -0.5668  0.0205 -0.8063
 6496TIP3    H140903   6.278   5.829  13.068 -0.5109  0.2384  2.5983
 6496TIP3    H240904   6.363   5.949  13.031 -0.4159 -0.8496 -1.1406
 6497TIP3   OH240905   0.666   1.735  13.894 -0.4794  0.1866  0.0356
 6497TIP3    H140906   0.710   1.719  13.811 -0.1378 -0.3528  0.3125
 6497TIP3    H240907   0.577   1.762  13.870 -0.2883  0.3378 -0.5057
 6498TIP3   OH240908   5.049   5.925  12.977  0.1890 -0.4589  0.3303
 6498TIP3    H140909   4.960   5.908  13.009  0.2826  0.7531  1.2764
 6498TIP3    H240910   5.060   6.020  12.982  2.3269 -0.7080  2.4692
 6499TIP3   OH240911   2.033   4.162   3.603 -0.5463  0.0345  0.7592
 6499TIP3    H140912   2.014   4.256   3.599 -0.8123  0.0056  1.2326
 6499TIP3    H240913   2.061   4.139   3.514  2.2463  1.1068  1.2663
 6500TIP3   OH240914   2.010   5.112   4.247 -0.3592 -0.3883 -0.3583
 6500TIP3    H140915   1.939   5.101   4.310 -0.1973  0.6652  0.0310
 6500TIP3    H240916   2.057   5.028   4.248 -1.9930 -1.3579 -1.1408
 6501TIP3   OH240917   4.186   4.798   4.030 -0.0919  0.8906  0.6275
 6501TIP3    H140918   4.127   4.795   3.955  0.6677 -1.3327  0.0617
 6501TIP3    H240919   4.134   4.762   4.102  0.7460 -2.1289 -0.1101
 6502TIP3   OH240920   1.901   3.822   2.510  0.2582 -0.0200  0.0070
 6502TIP3    H140921   1.805   3.816   2.511  0.2730 -1.3462 -1.7683
 6502TIP3    H240922   1.919   3.912   2.484 -0.5472 -0.0806 -0.8222
 6503TIP3   OH240923   4.958   2.478   1.547  0.3902 -0.1012  0.6892
 6503TIP3    H140924   4.989   2.563   1.578 -0.1345 -0.0663  1.1466
 6503TIP3    H240925   4.880   2.461   1.600  0.5753 -0.9343  0.7006
 6504TIP3   OH240926   0.090   4.748  14.941  0.2597 -0.2318  0.1084
 6504TIP3    H140927   0.051   4.723  14.858 -0.8647  1.1887  0.1717
 6504TIP3    H240928   0.151   4.819  14.919 -0.7416  0.8093  0.5666
 6505TIP3   OH240929   4.831   0.969   0.216 -0.1784  0.4549 -0.5330
 6505TIP3    H140930   4.827   0.975   0.311 -0.6983  1.3525 -0.5954
 6505TIP3    H240931   4.747   0.928   0.191 -0.4408  1.0467 -0.6490
 6506TIP3   OH240932   0.890   5.497   4.693  0.1697  0.1765  0.0009
 6506TIP3    H140933   0.877   5.576   4.640 -1.1900  0.3764  0.5818
 6506TIP3    H240934   0.953   5.523   4.760  0.3718  0.5122 -0.3173
 6507TIP3   OH240935   0.597   1.294  14.640  0.7063  0.0660 -0.1954
 6507TIP3    H140936   0.508   1.270  14.665 -0.0799  1.9683 -0.9494
 6507TIP3    H240937   0.619   1.232  14.570  0.0731 -0.5726  0.1527
 6508TIP3   OH240938   4.347   0.749  15.607  0.0494 -0.3434 -0.2511
 6508TIP3    H140939   4.349   0.674  15.666  1.9689  0.6168  0.9927
 6508TIP3    H240940   4.425   0.739  15.553  0.1721  0.5850 -0.2555
 6509TIP3   OH240941   0.267   3.758   2.506 -0.9553  1.2439 -0.1345
 6509TIP3    H140942   0.262   3.847   2.472 -0.3157  0.9967 -0.9129
 6509TIP3    H240943   0.322   3.764   2.584  0.2445  1.3231 -0.9663
 6510TIP3   OH240944   4.050   2.616  14.495 -0.4035  0.3790  0.2407
 6510TIP3    H140945   4.031   2.706  14.520 -0.3263  0.1782  1.0427
 6510TIP3    H240946   4.131   2.622  14.444 -0.5805  0.7976  0.0015
 6511TIP3   OH240947   5.776   4.111  14.917 -0.4331 -0.4082 -0.2138
 6511TIP3    H140948   5.793   4.161  14.837 -0.2880 -2.0973 -1.3091
 6511TIP3    H240949   5.681   4.116  14.928 -0.3142  0.9869  0.3338
 6512TIP3   OH240950   4.412   4.547  17.077 -0.0746 -0.3652 -0.0102
 6512TIP3    H140951   4.406   4.588  17.163  0.0047 -0.2685 -0.0503
 6512TIP3    H240952   4.411   4.453  17.094  1.9501 -0.3728  0.2544
 6513TIP3   OH240953   3.264   2.119   4.629 -0.2868 -0.0374 -0.1742
 6513TIP3    H140954   3.337   2.154   4.578 -1.4840  1.0735 -1.1665
 6513TIP3    H240955   3.282   2.148   4.719 -1.0379  2.9338 -0.8830
 6514TIP3   OH240956   2.597   5.976   3.149  0.7436  0.5170  0.2586
 6514TIP3    H140957   2.604   6.027   3.068 -0.6527  0.7549  0.2641
 6514TIP3    H240958   2.605   5.885   3.121  0.1655  0.5921 -0.1681
 6515TIP3   OH240959   0.089   6.133  10.640  0.5032 -0.3656  0.2651
 6515TIP3    H140960   0.183   6.145  10.654  0.4066 -0.5337  1.1652
 6515TIP3    H240961   0.069   6.050  10.683 -0.2690  0.2766  1.2028
 6516TIP3   OH240962   3.628   0.782   3.054  0.3618 -0.1864  0.0268
 6516TIP3    H140963   3.652   0.851   3.116 -0.4808 -0.2043  0.3926
 6516TIP3    H240964   3.698   0.718   3.060  1.6896  1.1142 -1.0764
 6517TIP3   OH240965   5.685   6.290   2.256 -0.2000  0.4783 -0.2226
 6517TIP3    H140966   5.625   6.255   2.191  0.6473  0.0149 -0.7783
 6517TIP3    H240967   5.772   6.279   2.217  0.6078 -2.3790  2.0470
 6518TIP3   OH240968   1.718   0.310   4.237  0.2185 -0.2554 -0.1517
 6518TIP3    H140969   1.726   0.222   4.272 -2.2883 -0.3297  0.4378
 6518TIP3    H240970   1.676   0.360   4.307 -0.1883  0.9097 -1.1881
 6519TIP3   OH240971   3.433   1.061  12.577  0.2739  0.0828 -0.1055
 6519TIP3    H140972   3.452   0.973  12.546  1.6681  0.4654 -0.3835
 6519TIP3    H240973   3.375   1.048  12.652  1.2259 -1.1114  0.4447
 6520TIP3   OH240974   6.532   6.055  11.910  0.3160  0.0294 -0.4778
 6520TIP3    H140975   6.569   6.026  11.827  0.9574  2.2549 -1.0247
 6520TIP3    H240976   6.445   6.014  11.912  0.3546 -0.2217 -2.1604
 6521TIP3   OH240977   4.291   4.257   0.075 -0.2667 -0.1658  0.0309
 6521TIP3    H140978   4.322   4.255  -0.016 -1.3589 -0.8393 -0.3366
 6521TIP3    H240979   4.202   4.290   0.070  0.1451  1.2359  1.0357
 6522TIP3   OH240980   0.033   5.510  12.656  0.2197 -0.0800 -0.0148
 6522TIP3    H140981   0.019   5.483  12.565 -0.0683  1.5648 -0.4883
 6522TIP3    H240982   0.112   5.463  12.683  0.5312 -0.2973 -1.2323
 6523TIP3   OH240983   3.859   0.208   0.926 -0.1682  0.3061 -0.6467
 6523TIP3    H140984   3.892   0.159   1.001 -0.5701  0.1964 -0.5384
 6523TIP3    H240985   3.919   0.186   0.854 -1.8943 -2.6236 -1.3801
 6524TIP3   OH240986   6.637   5.591  13.310 -0.3558 -0.3211 -0.6231
 6524TIP3    H140987   6.656   5.516  13.252 -1.9976  0.4231 -2.2324
 6524TIP3    H240988   6.567   5.559  13.367  1.8823 -1.3587  1.7172
 6525TIP3   OH240989   3.686   6.286  10.878  0.2367 -0.0617 -0.0294
 6525TIP3    H140990   3.643   6.253  10.800 -3.4604 -0.4105  1.9328
 6525TIP3    H240991   3.696   6.209  10.934 -1.0320  0.7414  1.3851
 6526TIP3   OH240992   2.656   0.308   5.657  0.9409  0.1767 -0.5292
 6526TIP3    H140993   2.743   0.270   5.671  0.8269 -0.1866 -0.7911
 6526TIP3    H240994   2.623   0.326   5.745  1.7545  1.4292 -0.4435
 6527TIP3   OH240995   6.574   4.825   1.576 -0.6574  0.2396  0.1037
 6527TIP3    H140996   6.563   4.756   1.643  1.6459  0.4873  0.8098
 6527TIP3    H240997   6.562   4.779   1.493  1.7967 -1.3541  0.5090
 6528TIP3   OH240998   2.787   3.680  14.325  0.1996  0.5380  0.6497
 6528TIP3    H140999   2.836   3.681  14.243 -2.4769  0.5511 -1.0756
 6528TIP3    H241000   2.737   3.761  14.324 -2.0105 -0.7415  0.8524
 6529TIP3   OH241001   0.236   4.451   2.484 -0.3455  0.5334  0.2702
 6529TIP3    H141002   0.304   4.461   2.417 -0.7941  2.3672  0.0237
 6529TIP3    H241003   0.200   4.364   2.469  1.6117 -0.2991  0.1112
 6530TIP3   OH241004   2.590   3.278  12.485 -0.4349 -0.4709 -0.0419
 6530TIP3    H141005   2.644   3.328  12.424 -0.5380 -0.5494 -0.1994
 6530TIP3    H241006   2.599   3.187  12.455 -0.0587 -0.5803  0.3824
 6531TIP3   OH241007   2.558   1.565   5.504  0.2685 -0.5245 -0.4727
 6531TIP3    H141008   2.490   1.499   5.516 -0.4851  0.4521  0.9559
 6531TIP3    H241009   2.553   1.619   5.583  2.0100  0.2096 -0.8228
 6532TIP3   OH241010   4.538   1.224  14.821  0.6675  0.1179 -0.1030
 6532TIP3    H141011   4.555   1.249  14.730  0.2635  1.5554  0.1795
 6532TIP3    H241012   4.450   1.186  14.819  1.1008 -0.8890 -0.4741
 6533TIP3   OH241013   3.074   3.099  12.000  0.1972 -0.2970 -0.3683
 6533TIP3    H141014   2.985   3.110  12.033  0.3707  0.5986 -0.1760
 6533TIP3    H241015   3.062   3.059  11.914 -0.4355  0.4775 -0.6539
 6534TIP3   OH241016   5.325   2.093  15.882 -0.4100 -0.3558 -0.0273
 6534TIP3    H141017   5.236   2.126  15.869 -0.5337 -1.0908 -1.2281
 6534TIP3    H241018   5.317   2.033  15.956 -1.1133 -1.0620 -0.6528
 6535TIP3   OH241019   1.962   3.753   1.029 -0.3350 -0.4920  0.3681
 6535TIP3    H141020   1.948   3.814   1.101 -1.2340 -1.1041  0.7273
 6535TIP3    H241021   2.052   3.769   1.001  0.0341 -0.2557  1.6253
 6536TIP3   OH241022   0.449   0.184   1.817  0.9593 -0.0977 -0.0259
 6536TIP3    H141023   0.430   0.166   1.909 -0.3171  0.2929 -0.1961
 6536TIP3    H241024   0.543   0.199   1.815  0.7748  1.6057  1.5285
 6537TIP3   OH241025   3.795   4.022  13.233  0.1053 -0.0394 -0.1395
 6537TIP3    H141026   3.838   3.937  13.242  0.2228 -0.1355 -1.4822
 6537TIP3    H241027   3.866   4.086  13.241  0.6359 -0.2084 -2.7350
 6538TIP3   OH241028   4.364   1.740   5.586 -0.0110 -0.0105  0.0151
 6538TIP3    H141029   4.437   1.730   5.525  0.0928  2.0866 -0.2965
 6538TIP3    H241030   4.361   1.657   5.634  1.6713 -0.6686 -0.9322
 6539TIP3   OH241031   0.833   6.676   0.807 -0.2860 -0.1176  0.2171
 6539TIP3    H141032   0.764   6.736   0.837 -0.3728 -0.2680  0.3222
 6539TIP3    H241033   0.895   6.673   0.880 -1.0173 -1.2921  0.8352
 6540TIP3   OH241034   1.696   6.430  14.413  0.2497 -0.6974  0.0356
 6540TIP3    H141035   1.717   6.493  14.483  0.0656  0.1727 -0.6743
 6540TIP3    H241036   1.605   6.448  14.392  1.0782  1.1403 -2.4583
 6541TIP3   OH241037   1.000   5.082   6.086 -0.2594  0.8263  0.3185
 6541TIP3    H141038   0.969   5.016   6.024 -2.0376  1.3665  0.5565
 6541TIP3    H241039   1.080   5.117   6.046 -1.6273  1.5653 -2.0224
 6542TIP3   OH241040   2.451   0.253  16.386 -0.1153  0.4421 -0.3946
 6542TIP3    H141041   2.466   0.344  16.411  3.2610 -0.6439  2.4610
 6542TIP3    H241042   2.483   0.247  16.296 -2.9992  2.4801 -1.7174
 6543TIP3   OH241043   6.113   6.601  13.573 -0.1364  0.6570 -0.5265
 6543TIP3    H141044   6.094   6.682  13.526 -1.1799  0.3462 -0.6632
 6543TIP3    H241045   6.150   6.542  13.507  2.4361  1.5974 -0.0557
 6544TIP3   OH241046   1.109   5.507  12.465 -0.3413  0.7045  0.2291
 6544TIP3    H141047   1.166   5.535  12.394 -0.5488  1.8795  0.5103
 6544TIP3    H241048   1.166   5.456  12.523 -0.5625 -1.8566 -1.6416
 6545TIP3   OH241049   6.723   1.615   0.670  0.3196 -0.0771 -0.1946
 6545TIP3    H141050   6.732   1.522   0.692 -2.3381 -0.7565 -1.6051
 6545TIP3    H241051   6.709   1.616   0.575  1.2875  1.8666 -0.3483
 6546TIP3   OH241052   4.293   4.472   2.841 -0.7520 -0.4601  0.4647
 6546TIP3    H141053   4.283   4.388   2.796 -0.8835  0.0412 -0.4676
 6546TIP3    H241054   4.268   4.537   2.776 -1.2645  0.2789  1.3711
 6547TIP3   OH241055   3.427   1.002  12.239  0.1752  0.3044 -0.2187
 6547TIP3    H141056   3.357   0.960  12.289  2.3518 -2.3379  0.8635
 6547TIP3    H241057   3.385   1.032  12.159 -2.3703 -0.2459  0.8292
 6548TIP3   OH241058   1.752   5.178  17.387  0.6810 -0.3203 -0.1420
 6548TIP3    H141059   1.675   5.227  17.359  1.7931  0.5594 -1.7918
 6548TIP3    H241060   1.722   5.127  17.463 -1.4939  0.0233 -0.7184
 6549TIP3   OH241061   3.470   2.270   4.018  0.1683  0.3196 -0.2118
 6549TIP3    H141062   3.481   2.185   3.975  0.3474  0.4980 -0.5209
 6549TIP3    H241063   3.559   2.298   4.040  0.2600  1.1428 -1.5133
 6550TIP3   OH241064   1.077   3.058  13.879  0.1357 -0.2874 -0.6113
 6550TIP3    H141065   1.060   2.986  13.940  0.9152  0.1339  0.1114
 6550TIP3    H241066   1.029   3.033  13.800  0.6341 -1.7533 -0.4815
 6551TIP3   OH241067   2.500   5.116  11.636 -0.7109 -0.0421 -0.2181
 6551TIP3    H141068   2.459   5.195  11.673 -0.7740  0.6518 -1.7036
 6551TIP3    H241069   2.432   5.049  11.642 -1.0866  0.3467 -0.0672
 6552TIP3   OH241070   5.148   2.493  11.906 -0.3784  0.3392 -0.0897
 6552TIP3    H141071   5.078   2.554  11.926 -0.3107 -0.0227  1.3392
 6552TIP3    H241072   5.133   2.418  11.964  1.8181  0.7437  1.1177
 6553TIP3   OH241073   6.637   0.466  11.639 -0.0233  0.0443  0.2675
 6553TIP3    H141074   6.690   0.534  11.598 -0.9662  0.8500  0.3428
 6553TIP3    H241075   6.556   0.510  11.663 -1.2172 -1.4183 -0.9053
 6554TIP3   OH241076   1.646   3.455  12.081 -0.0373  0.0943 -0.0192
 6554TIP3    H141077   1.561   3.472  12.040 -0.9466  0.4964  1.9070
 6554TIP3    H241078   1.686   3.542  12.090  0.6296 -0.0980 -0.9653
 6555TIP3   OH241079   2.289   6.691  11.747 -0.2341  0.0904 -0.8928
 6555TIP3    H141080   2.236   6.732  11.814  0.2325  0.4347 -0.7274
 6555TIP3    H241081   2.230   6.631  11.702 -0.9067  0.8942 -1.1001
 6556TIP3   OH241082   2.659   5.610  15.988 -0.8794  0.0321 -0.3453
 6556TIP3    H141083   2.710   5.580  16.063 -1.7310  0.7506  0.5458
 6556TIP3    H241084   2.711   5.584  15.912 -1.0255 -2.6518  0.3890
 6557TIP3   OH241085   0.672   0.937   3.435  0.9399  0.3076  0.2607
 6557TIP3    H141086   0.620   0.976   3.364  1.0536 -0.1800 -0.1030
 6557TIP3    H241087   0.617   0.946   3.513  0.9097  1.0520  0.1541
 6558TIP3   OH241088   2.798   1.714   6.061  0.0871  1.5332  0.1126
 6558TIP3    H141089   2.852   1.790   6.084  1.7318  0.6207 -0.5955
 6558TIP3    H241090   2.787   1.720   5.966 -0.8913  1.5776  0.2170
 6559TIP3   OH241091   2.990   5.196  10.690  0.4406 -0.2734  0.0505
 6559TIP3    H141092   3.040   5.178  10.770  1.5761  0.0185 -0.5660
 6559TIP3    H241093   3.000   5.116  10.638 -1.0144 -0.8004  0.5318
 6560TIP3   OH241094   0.352   3.820  17.169  0.1975 -0.2244 -0.2562
 6560TIP3    H141095   0.296   3.843  17.243  2.2377  0.8759  1.0256
 6560TIP3    H241096   0.430   3.782  17.209  0.9248 -0.5512 -1.9020
 6561TIP3   OH241097   4.533   3.461   5.630 -0.1766  0.4770  0.6344
 6561TIP3    H141098   4.469   3.439   5.698 -1.5222 -2.2135 -1.3280
 6561TIP3    H241099   4.479   3.491   5.556  0.9013 -0.5261 -0.6025
 6562TIP3   OH241100   1.079   5.487  13.694  0.2670  0.1299  0.2886
 6562TIP3    H141101   1.000   5.468  13.745  0.8420 -0.3586  1.0202
 6562TIP3    H241102   1.047   5.512  13.607 -0.7659  1.6723  1.0797
 6563TIP3   OH241103   2.522   4.521   6.131 -0.1095  0.2604 -0.6278
 6563TIP3    H141104   2.466   4.477   6.195 -0.7282  0.3157 -1.1212
 6563TIP3    H241105   2.492   4.487   6.046 -0.0513  1.0236 -0.9574
 6564TIP3   OH241106   4.034   2.387  13.934 -0.1240 -0.3310 -0.1667
 6564TIP3    H141107   3.968   2.448  13.903 -2.3170 -1.5126  1.8828
 6564TIP3    H241108   3.995   2.300  13.921  1.5759 -1.1536 -0.0829
 6565TIP3   OH241109   0.986   6.161  15.705  0.6761  0.3874  0.2307
 6565TIP3    H141110   1.006   6.197  15.791  2.0322  0.0361  0.0888
 6565TIP3    H241111   0.895   6.186  15.688  0.7563  1.4285  1.2674
 6566TIP3   OH241112   2.004   5.486   4.741  0.5867 -0.2205  0.2321
 6566TIP3    H141113   1.958   5.557   4.696 -0.7352 -1.2097 -0.0346
 6566TIP3    H241114   2.050   5.439   4.671  2.5879  1.1172  0.5650
 6567TIP3   OH241115   1.203   2.105   2.531  0.1090  0.2960  0.6156
 6567TIP3    H141116   1.214   2.117   2.625  2.0705 -0.6111  0.5478
 6567TIP3    H241117   1.260   2.170   2.491 -0.8592  0.8125  0.0104
 6568TIP3   OH241118   5.606   3.390  15.669  0.2018  0.4951  0.7299
 6568TIP3    H141119   5.578   3.299  15.670  1.0152  0.1875  3.8740
 6568TIP3    H241120   5.526   3.440  15.652 -0.3649 -0.7219 -0.3293
 6569TIP3   OH241121   1.589   2.031   4.169 -0.1795 -0.0975  0.0505
 6569TIP3    H141122   1.631   2.116   4.181  1.5497 -1.1372  1.8132
 6569TIP3    H241123   1.638   1.991   4.097 -0.5815  0.1409 -0.3582
 6570TIP3   OH241124   2.719   6.622  13.247  0.0507 -0.0921 -0.0309
 6570TIP3    H141125   2.745   6.572  13.169 -0.7051 -0.5911  0.0256
 6570TIP3    H241126   2.797   6.624  13.302  0.6264  0.3505 -0.8403
 6571TIP3   OH241127   4.896   3.425   0.909 -0.3048 -0.6193  0.0318
 6571TIP3    H141128   4.868   3.509   0.946 -0.7343 -0.4167 -0.7304
 6571TIP3    H241129   4.953   3.387   0.977  0.6445  0.6971  0.0172
 6572TIP3   OH241130   5.488   4.132   1.077 -0.2467 -0.4446 -0.0904
 6572TIP3    H141131   5.570   4.162   1.117  0.2258 -1.1137 -0.5236
 6572TIP3    H241132   5.424   4.198   1.101  0.1856 -0.4278  1.1314
 6573TIP3   OH241133   3.984   2.000   1.171 -0.3953 -0.6710 -0.2381
 6573TIP3    H141134   3.899   1.969   1.202 -1.0170 -0.3737 -1.5443
 6573TIP3    H241135   4.019   1.927   1.121  1.3472 -1.7558  2.3844
 6574TIP3   OH241136   3.353   0.839  17.297  1.0156 -0.7284  0.1378
 6574TIP3    H141137   3.344   0.895  17.220 -1.0236 -0.2789  0.6565
 6574TIP3    H241138   3.395   0.894  17.363  0.8593 -0.4497  0.0058
 6575TIP3   OH241139   2.062   5.340   3.599  0.0843  0.6530  0.0272
 6575TIP3    H141140   2.118   5.412   3.570  0.0382  0.8850  0.5119
 6575TIP3    H241141   1.982   5.383   3.630 -1.1098  0.2461 -2.2515
 6576TIP3   OH241142   1.169   2.311   3.347 -0.4635 -0.1741  0.0399
 6576TIP3    H141143   1.183   2.364   3.425 -1.9559  0.0247  0.2172
 6576TIP3    H241144   1.170   2.220   3.378 -2.5017 -0.0602  0.6185
 6577TIP3   OH241145   2.062   5.742  16.763 -0.3634  0.2871 -0.1145
 6577TIP3    H141146   1.993   5.738  16.830 -0.0519  0.8862  0.2544
 6577TIP3    H241147   2.050   5.662  16.712  0.4457 -1.0992  1.7149
 6578TIP3   OH241148   4.814   1.947   2.145  0.1994 -0.1543  0.8715
 6578TIP3    H141149   4.892   1.891   2.140  0.0758 -0.2315 -2.1317
 6578TIP3    H241150   4.838   2.026   2.097 -1.3621  0.0981  0.4522
 6579TIP3   OH241151   2.092   0.265   1.960  0.5167 -0.0791  0.0376
 6579TIP3    H141152   2.110   0.181   2.002 -0.2730 -0.1342  0.2784
 6579TIP3    H241153   2.005   0.289   1.991 -0.5958 -0.6469 -2.4467
 6580TIP3   OH241154   1.353   4.451  14.020 -0.0546 -0.4865 -0.5399
 6580TIP3    H141155   1.333   4.411  13.936 -0.6293 -1.3703  0.0065
 6580TIP3    H241156   1.362   4.545  14.000  1.3698 -0.8679 -1.8350
 6581TIP3   OH241157   2.012   6.053  14.129 -0.0580 -0.4084 -0.8718
 6581TIP3    H141158   2.050   5.984  14.075  0.9027  0.1056 -0.8726
 6581TIP3    H241159   2.079   6.073  14.194 -0.4869  0.2320 -0.6090
 6582TIP3   OH241160   0.784   6.377  14.976 -0.4712  0.5159 -0.2833
 6582TIP3    H141161   0.821   6.405  14.893  0.0127  0.6660 -0.0153
 6582TIP3    H241162   0.735   6.453  15.008 -0.2133  0.6354 -0.1720
 6583TIP3   OH241163   4.366   1.085   4.606  0.3611 -0.8022  0.7434
 6583TIP3    H141164   4.365   1.089   4.510  0.6193 -0.0527  0.7659
 6583TIP3    H241165   4.395   0.995   4.625  0.2276 -0.9854  0.1223
 6584TIP3   OH241166   5.227   3.946  17.241 -0.0014  0.1048 -0.4084
 6584TIP3    H141167   5.159   3.999  17.283  0.5297  1.7089 -1.4665
 6584TIP3    H241168   5.306   3.965  17.291  0.1363  0.1146 -0.6283
 6585TIP3   OH241169   0.347   3.957   1.358 -0.0193 -0.0609 -0.2338
 6585TIP3    H141170   0.381   3.923   1.440  0.1908  1.1563  0.2112
 6585TIP3    H241171   0.310   4.042   1.381 -0.4291  0.0660 -1.3085
 6586TIP3   OH241172   2.876   5.591   5.504 -0.0826 -0.3257 -0.0996
 6586TIP3    H141173   2.864   5.609   5.411  0.3926 -1.6199 -0.4389
 6586TIP3    H241174   2.800   5.631   5.546  0.6487  1.9168 -0.8002
 6587TIP3   OH241175   6.343   5.191  13.731 -0.3050  0.0506 -0.2863
 6587TIP3    H141176   6.312   5.168  13.643  1.9077  1.5747 -1.5415
 6587TIP3    H241177   6.397   5.117  13.757 -1.1594 -0.5151 -0.0628
 6588TIP3   OH241178   2.889   3.283   3.134  0.4232 -0.0324  0.2589
 6588TIP3    H141179   2.910   3.288   3.227  1.6255  2.1365 -0.0773
 6588TIP3    H241180   2.970   3.253   3.092  1.3092  3.0338 -0.4576
 6589TIP3   OH241181   0.146   4.047   1.163 -0.2567 -0.0044  0.6767
 6589TIP3    H141182   0.230   4.085   1.140 -0.0265  0.6808  2.4402
 6589TIP3    H241183   0.146   3.961   1.121  1.5960 -0.2735  1.1244
 6590TIP3   OH241184   1.972   1.494   2.424 -0.2688 -0.3633  0.6372
 6590TIP3    H141185   2.053   1.541   2.404 -1.3363  0.8457 -1.0985
 6590TIP3    H241186   1.998   1.401   2.426  1.2313  0.0239  0.6578
 6591TIP3   OH241187   5.600   3.867  12.975 -0.2246  0.4260 -0.2530
 6591TIP3    H141188   5.637   3.784  13.003 -0.8372 -0.0490 -0.8235
 6591TIP3    H241189   5.675   3.918  12.945  0.4732  0.9872  2.2408
 6592TIP3   OH241190   4.097   5.694  15.058  0.2571  0.6298 -0.4249
 6592TIP3    H141191   4.171   5.635  15.073  2.0829  2.6480 -0.9798
 6592TIP3    H241192   4.032   5.668  15.123  1.8451 -0.5830  0.7551
 6593TIP3   OH241193   4.789   6.186   1.465 -0.9063 -0.4797 -0.3142
 6593TIP3    H141194   4.781   6.165   1.558  1.7806 -1.4146 -0.2090
 6593TIP3    H241195   4.816   6.278   1.464 -0.0166 -0.7223 -0.0766
 6594TIP3   OH241196   3.709   0.820  15.407 -0.2249 -0.4594 -0.4054
 6594TIP3    H141197   3.798   0.854  15.418 -0.7190  0.6003  0.5671
 6594TIP3    H241198   3.690   0.776  15.490 -0.8709 -0.0193 -0.3105
 6595TIP3   OH241199   6.658   2.715   3.196  0.0538  1.0647 -0.3643
 6595TIP3    H141200   6.610   2.797   3.209  0.4584  0.9956  1.9223
 6595TIP3    H241201   6.734   2.740   3.143  1.6007  2.7992  2.4560
 6596TIP3   OH241202   0.314   0.077  15.904 -0.9433 -0.7040  0.3830
 6596TIP3    H141203   0.226   0.040  15.909 -1.2838 -0.1571 -1.0195
 6596TIP3    H241204   0.322   0.107  15.813  0.0291  0.8637  0.9385
 6597TIP3   OH241205   6.340   2.832  15.105  0.4405  0.1742 -0.1770
 6597TIP3    H141206   6.254   2.840  15.145  0.4576 -1.2309  0.1756
 6597TIP3    H241207   6.327   2.773  15.031  0.7378  1.4448 -1.2647
 6598TIP3   OH241208   6.617   0.177   6.444 -0.0583  0.4325 -0.1154
 6598TIP3    H141209   6.710   0.181   6.462 -0.2330  0.7295  0.7722
 6598TIP3    H241210   6.578   0.243   6.502 -1.1255 -1.5994  1.6031
 6599TIP3   OH241211   4.609   5.048  11.755 -0.1897  0.2800  0.4375
 6599TIP3    H141212   4.540   5.004  11.706 -0.0750 -0.8014  1.2066
 6599TIP3    H241213   4.679   4.983  11.762  1.4815  1.7392 -1.4006
 6600TIP3   OH241214   1.895   3.404   1.796  0.2186 -0.2395  0.3230
 6600TIP3    H141215   1.811   3.362   1.812  0.3474 -0.8645 -0.5130
 6600TIP3    H241216   1.917   3.448   1.877 -1.0745  0.2080  0.4418
 6601TIP3   OH241217   5.472   3.886  14.937  0.1406  0.0373 -0.5433
 6601TIP3    H141218   5.411   3.822  14.899 -1.7114  0.7675  1.0278
 6601TIP3    H241219   5.467   3.869  15.031  2.4218  0.1382 -0.3540
 6602TIP3   OH241220   2.721   2.824   4.308  0.2396 -0.1905 -0.3325
 6602TIP3    H141221   2.815   2.839   4.322  0.0863  1.6276 -0.9645
 6602TIP3    H241222   2.717   2.770   4.229  0.7799 -2.0756  0.8694
 6603TIP3   OH241223   0.994   4.045  12.587 -0.6399 -0.7845  0.3015
 6603TIP3    H141224   0.985   3.950  12.597  0.0067 -1.0362 -1.2114
 6603TIP3    H241225   0.997   4.059  12.492  0.2409  0.6532  0.5140
 6604TIP3   OH241226   3.797   2.159  11.479 -0.0040 -0.4688 -0.1110
 6604TIP3    H141227   3.774   2.120  11.395 -0.2136  0.0308 -0.2919
 6604TIP3    H241228   3.735   2.122  11.541  1.0605 -1.9542  0.1202
 6605TIP3   OH241229   0.349   5.326  11.576  0.1058 -0.2478  0.3263
 6605TIP3    H141230   0.385   5.248  11.534  0.7372 -0.4083  1.1465
 6605TIP3    H241231   0.346   5.391  11.506 -0.3571 -0.9725 -0.3501
 6606TIP3   OH241232   2.462   5.575   3.955  0.5044 -0.4514  0.6719
 6606TIP3    H141233   2.482   5.561   3.863 -0.6517  1.4019  0.0806
 6606TIP3    H241234   2.367   5.564   3.962  0.0629  2.5091  0.9031
 6607TIP3   OH241235   5.767   2.247  13.481 -0.3763  0.1266 -0.8988
 6607TIP3    H141236   5.765   2.188  13.405 -0.6570  0.6086 -1.2681
 6607TIP3    H241237   5.785   2.333  13.444  2.0114  0.0100 -0.1798
 6608TIP3   OH241238   3.495   0.395  16.035  0.0048  0.3187 -0.4449
 6608TIP3    H141239   3.500   0.491  16.034 -0.3389  0.3586  0.8241
 6608TIP3    H241240   3.472   0.373  16.125  0.0376 -0.9621 -0.7376
 6609TIP3   OH241241   1.780   4.928   5.011  0.2851  0.1895 -0.1614
 6609TIP3    H141242   1.721   4.886   5.075 -0.7911  1.8583 -0.0034
 6609TIP3    H241243   1.810   4.855   4.957 -1.4882 -0.8295  0.1148
 6610TIP3   OH241244   5.360   1.826  14.693  0.0793 -0.3439  0.6172
 6610TIP3    H141245   5.277   1.834  14.740 -1.4227  2.4539 -2.1592
 6610TIP3    H241246   5.368   1.732  14.674 -2.6586 -0.6623  0.6957
 6611TIP3   OH241247   0.493   6.120  11.621  0.6198  0.3183 -0.4963
 6611TIP3    H141248   0.554   6.125  11.548  1.4808 -0.5238  0.1440
 6611TIP3    H241249   0.440   6.042  11.603 -1.2409  1.7658 -1.7397
 6612TIP3   OH241250   5.456   0.727  15.803 -0.1282 -0.2627  0.8424
 6612TIP3    H141251   5.488   0.763  15.720 -0.3170  0.4698  1.0760
 6612TIP3    H241252   5.535   0.694  15.846 -0.2016 -1.9178 -0.2076
 6613TIP3   OH241253   3.283   1.817   5.721  0.0196 -0.3168 -0.6577
 6613TIP3    H141254   3.226   1.862   5.659  0.3534  0.4508 -0.4172
 6613TIP3    H241255   3.233   1.740   5.748  0.1430 -1.0571 -2.4024
 6614TIP3   OH241256   5.607   4.708   5.404  0.1169  0.0077 -0.2476
 6614TIP3    H141257   5.524   4.704   5.451 -0.6867  1.4632 -1.4356
 6614TIP3    H241258   5.672   4.726   5.472 -0.9461  1.6188  0.4121
 6615TIP3   OH241259   1.114   3.760  17.039 -0.0117  1.2390  0.1307
 6615TIP3    H141260   1.142   3.818  17.110 -0.0995  0.5828  0.7132
 6615TIP3    H241261   1.088   3.679  17.083  0.6471  0.5501 -0.7025
 6616TIP3   OH241262   1.767   6.642  17.192  0.2242 -0.3020  0.0378
 6616TIP3    H141263   1.686   6.595  17.167  0.4977 -0.3415 -0.8323
 6616TIP3    H241264   1.837   6.579  17.173  0.5454  0.2040 -0.4642
 6617TIP3   OH241265   4.494   0.647   6.359  0.3609  0.1928  0.1227
 6617TIP3    H141266   4.455   0.622   6.442  1.3678  1.4792  1.0198
 6617TIP3    H241267   4.451   0.730   6.335 -0.0938 -0.2833 -0.7772
 6618TIP3   OH241268   0.526   6.710   5.341  0.0833  0.2727 -0.0140
 6618TIP3    H141269   0.543   6.687   5.249  1.9998 -1.9941  0.7996
 6618TIP3    H241270   0.444   6.665   5.362  1.1334 -1.6872  0.1164
 6619TIP3   OH241271   6.594   2.974  15.971  0.1592  0.1096 -0.0649
 6619TIP3    H141272   6.619   3.067  15.973 -0.5640  0.2967  0.4438
 6619TIP3    H241273   6.673   2.928  15.999  0.8252  0.4955 -1.2419
 6620TIP3   OH241274   6.330   4.445  11.899  0.7029 -0.4898 -0.0581
 6620TIP3    H141275   6.406   4.426  11.843  0.2719 -0.9410 -0.4992
 6620TIP3    H241276   6.269   4.490  11.842  0.3494 -0.7560  0.1068
 6621TIP3   OH241277   2.868   0.060   2.817  0.1373  0.3063 -0.4443
 6621TIP3    H141278   2.899   0.117   2.747  0.9189  0.0392 -0.3339
 6621TIP3    H241279   2.846   0.119   2.888 -1.6227  0.6568 -1.2422
 6622TIP3   OH241280   1.135   4.452   0.538  0.4343 -0.3257 -0.3230
 6622TIP3    H141281   1.187   4.481   0.462  0.8037  0.7490  0.3228
 6622TIP3    H241282   1.046   4.444   0.504  0.9495 -2.0088 -1.4000
 6623TIP3   OH241283   6.199   3.533  11.639  0.2171  0.5535 -0.4147
 6623TIP3    H141284   6.226   3.517  11.548  0.0080  3.5495 -1.1125
 6623TIP3    H241285   6.265   3.593  11.673  0.5253 -0.8544  1.6140
 6624TIP3   OH241286   6.427   3.168  14.719  0.3259  0.3863  0.0060
 6624TIP3    H141287   6.400   3.142  14.807 -1.2045 -1.4341 -0.9331
 6624TIP3    H241288   6.421   3.263  14.719  1.1825  0.4913  2.1022
 6625TIP3   OH241289   2.346   2.803   4.977 -0.0029 -0.0900  0.2082
 6625TIP3    H141290   2.306   2.723   5.011 -0.2948 -0.2574 -0.5268
 6625TIP3    H241291   2.403   2.774   4.907 -0.4624  0.3893 -0.3720
 6626TIP3   OH241292   0.265   4.725   2.470 -0.3380  0.3229  0.5043
 6626TIP3    H141293   0.215   4.644   2.479 -1.7162  1.2497  1.6695
 6626TIP3    H241294   0.350   4.705   2.510  0.0606 -1.0752 -0.9090
 6627TIP3   OH241295   2.569   0.194   1.200  0.5759  0.5116 -0.3573
 6627TIP3    H141296   2.612   0.115   1.233 -0.0312  0.9165  1.5606
 6627TIP3    H241297   2.588   0.261   1.266 -2.5264  0.8325  0.3818
 6628TIP3   OH241298   4.679   0.685  13.989 -0.2538  0.7851 -0.1816
 6628TIP3    H141299   4.749   0.731  13.943 -1.3707  1.1809 -1.5673
 6628TIP3    H241300   4.706   0.686  14.081  1.9099  0.2173 -0.7543
 6629TIP3   OH241301   1.974   3.048  13.849 -0.4182  0.5922 -0.1989
 6629TIP3    H141302   1.928   3.063  13.932 -0.9786  0.5337 -0.4980
 6629TIP3    H241303   2.059   3.090  13.862  0.2933 -1.1375  1.1593
 6630TIP3   OH241304   5.614   0.334  15.808 -0.2279 -0.0825 -0.0798
 6630TIP3    H141305   5.664   0.294  15.736 -0.1839 -1.5775  0.7411
 6630TIP3    H241306   5.528   0.351  15.770  0.4102  1.0708 -1.0649
 6631TIP3   OH241307   3.810   6.450   2.355 -0.1036  0.0716 -0.1920
 6631TIP3    H141308   3.847   6.529   2.394 -2.7558  1.0163  0.6223
 6631TIP3    H241309   3.764   6.407   2.427 -0.5693 -1.0442 -1.1266
 6632TIP3   OH241310   5.952   1.615   3.190  0.6803 -0.3572  0.2816
 6632TIP3    H141311   5.876   1.594   3.135  0.1644  0.6614  0.5762
 6632TIP3    H241312   6.027   1.610   3.130  0.0081  1.9107 -0.8472
 6633TIP3   OH241313   2.339   4.616   2.508 -0.0034 -0.1609 -0.3441
 6633TIP3    H141314   2.252   4.621   2.467 -1.5345 -1.1594  2.5019
 6633TIP3    H241315   2.362   4.708   2.526 -2.0244  0.0576  1.6653
 6634TIP3   OH241316   4.168   4.078   2.788 -0.3723  0.0151  0.0961
 6634TIP3    H141317   4.209   4.006   2.741 -2.3474 -1.6367  0.7486
 6634TIP3    H241318   4.213   4.080   2.873  0.0409 -0.1051 -0.1181
 6635TIP3   OH241319   1.790   1.809   1.974  0.0785 -0.7231 -0.4941
 6635TIP3    H141320   1.831   1.895   1.960 -2.3060  0.3836 -1.2672
 6635TIP3    H241321   1.855   1.759   2.023  0.6161  2.4097  2.3509
 6636TIP3   OH241322   0.174   4.325   5.151 -0.4808  0.1836 -0.0361
 6636TIP3    H141323   0.202   4.363   5.234 -0.8721  0.1926  0.0930
 6636TIP3    H241324   0.132   4.243   5.175  0.1604 -0.2329 -0.2958
 6637TIP3   OH241325   1.302   6.037   5.613 -0.1600 -0.2290 -0.3140
 6637TIP3    H141326   1.337   5.948   5.609 -0.0998 -0.2337  0.2650
 6637TIP3    H241327   1.317   6.065   5.703  0.6827  0.7247 -0.7347
 6638TIP3   OH241328   0.557   6.603   2.099 -0.1441  0.1617  0.0539
 6638TIP3    H141329   0.553   6.556   2.016 -1.6359 -3.0490  1.7374
 6638TIP3    H241330   0.539   6.694   2.076  1.0457 -0.2860 -3.2494
 6639TIP3   OH241331   5.876   3.217   6.307 -0.2333  0.7407  0.2314
 6639TIP3    H141332   5.813   3.278   6.346 -0.1104  0.9388  0.1185
 6639TIP3    H241333   5.823   3.162   6.250 -0.3613  0.6699  0.4158
 6640TIP3   OH241334   5.060   2.127  16.437 -0.2417  0.0503  0.7069
 6640TIP3    H141335   5.031   2.078  16.514  2.7680  1.5904  3.0534
 6640TIP3    H241336   5.044   2.218  16.459  2.2918  0.6445  0.3998
 6641TIP3   OH241337   1.995   0.809  12.483 -0.3167  0.4060  0.4864
 6641TIP3    H141338   2.041   0.863  12.547  1.7648 -0.1331 -0.4495
 6641TIP3    H241339   2.046   0.728  12.479 -2.1919 -0.8166  0.3730
 6642TIP3   OH241340   1.984   0.539   3.404 -0.3263 -0.0988  0.2518
 6642TIP3    H141341   2.045   0.494   3.462 -1.3951 -2.3703 -0.2728
 6642TIP3    H241342   2.033   0.551   3.322 -0.1703 -0.6917  0.2577
 6643TIP3   OH241343   5.174   3.641  13.198  0.5578 -0.0552 -0.0214
 6643TIP3    H141344   5.082   3.618  13.182  0.5855  0.1402 -0.4822
 6643TIP3    H241345   5.223   3.563  13.175  0.5386 -0.0091 -0.2311
 6644TIP3   OH241346   1.311   5.494   0.684 -0.5181 -0.8208  0.1337
 6644TIP3    H141347   1.385   5.523   0.738 -1.1986 -1.8998  1.7107
 6644TIP3    H241348   1.258   5.440   0.743 -3.2887  0.9523 -0.5225
 6645TIP3   OH241349   4.867   6.526   3.612  0.4750 -0.4605 -0.0522
 6645TIP3    H141350   4.961   6.525   3.629  0.5416  0.6283 -0.2793
 6645TIP3    H241351   4.854   6.465   3.539  1.1044 -0.0952 -0.4754
 6646TIP3   OH241352   6.708   6.241  14.330 -0.2327 -0.4313 -0.2388
 6646TIP3    H141353   6.694   6.335  14.343  0.1909 -0.2261 -1.1868
 6646TIP3    H241354   6.717   6.206  14.419 -0.1048  0.4730  0.1185
 6647TIP3   OH241355   1.372   2.675  16.197  0.0474  0.0397 -0.0840
 6647TIP3    H141356   1.368   2.668  16.101  0.5323  0.1857 -0.1199
 6647TIP3    H241357   1.281   2.675  16.225 -0.0932 -0.8959 -0.4825
 6648TIP3   OH241358   3.903   2.932  11.188  0.1264 -0.1065 -0.4134
 6648TIP3    H141359   3.847   3.007  11.169 -0.9633 -0.8666 -0.2857
 6648TIP3    H241360   3.953   2.919  11.107 -0.0452  0.4407 -0.6129
 6649TIP3   OH241361   3.437   3.322   4.842 -0.3015 -0.6108 -0.6157
 6649TIP3    H141362   3.430   3.303   4.935  0.4413 -0.5992 -0.5480
 6649TIP3    H241363   3.460   3.415   4.838 -1.0484 -0.4337 -0.8373
 6650TIP3   OH241364   5.841   0.077   4.556  0.3181  0.6946  0.2561
 6650TIP3    H141365   5.860  -0.005   4.603  2.3478  1.2266  0.4472
 6650TIP3    H241366   5.759   0.108   4.595  0.1771 -0.6068  1.0535
 6651TIP3   OH241367   0.534   6.140   3.128  0.7483  0.2150 -0.1984
 6651TIP3    H141368   0.440   6.129   3.113  1.1219 -3.0558 -0.8707
 6651TIP3    H241369   0.539   6.187   3.211 -1.5476 -1.9269  1.3093
 6652TIP3   OH241370   4.629   1.285   4.431  0.3393  0.1532 -0.5495
 6652TIP3    H141371   4.640   1.211   4.371 -0.2731 -0.8322  0.5026
 6652TIP3    H241372   4.534   1.293   4.442  0.4092  0.9360 -0.4499
 6653TIP3   OH241373   3.788   6.247   4.210 -0.0476 -0.0428 -0.3264
 6653TIP3    H141374   3.842   6.170   4.189 -0.9802 -0.5063 -1.1105
 6653TIP3    H241375   3.843   6.298   4.269  1.0184 -0.7892 -0.6153
 6654TIP3   OH241376   4.141   3.069   3.189  0.5934 -0.2592 -0.2784
 6654TIP3    H141377   4.167   3.065   3.281  2.0055  1.3795 -0.5527
 6654TIP3    H241378   4.082   3.144   3.184 -0.8520 -1.3670 -0.4439
 6655TIP3   OH241379   5.007   4.543  12.488 -0.1995 -0.4362  0.1081
 6655TIP3    H141380   4.917   4.513  12.500 -0.9969  2.1041  1.1327
 6655TIP3    H241381   5.019   4.544  12.393 -1.4431 -0.3520 -0.0644
 6656TIP3   OH241382   0.170   5.274  11.802 -0.1483  0.8960 -1.0758
 6656TIP3    H141383   0.077   5.251  11.804 -0.0987  0.6967 -1.0266
 6656TIP3    H241384   0.192   5.280  11.709  0.2464 -0.9540 -1.1416
 6657TIP3   OH241385   2.463   3.487  12.080  0.1405  0.1547 -0.2328
 6657TIP3    H141386   2.487   3.394  12.077  0.0778  0.1732 -1.5760
 6657TIP3    H241387   2.387   3.494  12.022  1.2798  1.3690 -1.6593
 6658TIP3   OH241388   3.473   6.066   3.075 -0.6672 -0.2614  0.0732
 6658TIP3    H141389   3.501   6.111   2.996  0.8784 -2.6499 -0.8547
 6658TIP3    H241390   3.510   6.117   3.147  3.5050 -1.3943 -1.0045
 6659TIP3   OH241391   4.435   3.398  14.450 -0.7550 -0.2810  0.5423
 6659TIP3    H141392   4.398   3.366  14.532 -1.3107 -1.8234 -0.2687
 6659TIP3    H241393   4.523   3.361  14.446 -1.7229 -2.6892 -0.8346
 6660TIP3   OH241394   6.635   3.507  11.800  0.1879 -0.1145 -0.2080
 6660TIP3    H141395   6.695   3.578  11.823  0.8603 -0.9912  0.8667
 6660TIP3    H241396   6.676   3.464  11.725 -0.1920  0.5790 -0.8248
 6661TIP3   OH241397   1.104   6.127  12.210 -0.1019  1.0564  0.4812
 6661TIP3    H141398   1.075   6.215  12.233  1.4584  1.3054  1.6968
 6661TIP3    H241399   1.187   6.116  12.257 -0.3743 -1.1524  0.5647
 6662TIP3   OH241400   1.399   0.252   2.514  0.0017 -0.0911  0.1815
 6662TIP3    H141401   1.439   0.336   2.495 -0.8237  0.0312 -1.1765
 6662TIP3    H241402   1.448   0.218   2.589  0.2156  1.6721  0.8867
 6663TIP3   OH241403   5.458   0.219   0.448 -0.3139  0.0615 -0.3254
 6663TIP3    H141404   5.532   0.174   0.489 -1.0283  0.1781  1.1692
 6663TIP3    H241405   5.468   0.311   0.474 -0.3677  0.2859 -1.0718
 6664TIP3   OH241406   3.917   0.380  12.359 -0.4530  0.5825  0.8825
 6664TIP3    H141407   3.962   0.418  12.284  2.5331 -0.8619  1.7694
 6664TIP3    H241408   3.876   0.301  12.325 -1.9900  1.6577  0.1537
 6665TIP3   OH241409   5.339   6.390   3.983  0.8259 -0.4003 -0.1709
 6665TIP3    H141410   5.349   6.458   4.050 -0.2734 -0.3186 -0.0828
 6665TIP3    H241411   5.419   6.337   3.992  0.1275 -1.2247  2.1802
 6666TIP3   OH241412   5.500   6.272   5.602  0.2368 -0.5941  0.3378
 6666TIP3    H141413   5.421   6.218   5.593  0.1732 -0.5778  0.7487
 6666TIP3    H241414   5.523   6.264   5.695 -0.3132  0.8445  0.6292
 6667TIP3   OH241415   5.253   4.851  14.123  0.6877  0.4287 -0.0252
 6667TIP3    H141416   5.207   4.767  14.118  0.3514  0.5550  0.8417
 6667TIP3    H241417   5.277   4.870  14.032 -2.6056  1.2582 -0.8421
 6668TIP3   OH241418   6.606   0.741   6.321  0.0932  0.1928  0.2906
 6668TIP3    H141419   6.525   0.693   6.339 -0.2036  0.0941 -1.2078
 6668TIP3    H241420   6.669   0.673   6.296 -0.5464  0.5565 -2.6243
 6669TIP3   OH241421   5.341   1.969   5.182 -0.3032  0.1024  0.5384
 6669TIP3    H141422   5.357   2.031   5.253 -2.5533  0.5395  0.7577
 6669TIP3    H241423   5.324   1.886   5.227  1.2517 -0.3620  0.3178
 6670TIP3   OH241424   1.919   0.896  12.220 -0.0955 -0.1823  0.2463
 6670TIP3    H141425   1.937   0.852  12.303  1.2165  1.2319  0.7528
 6670TIP3    H241426   1.895   0.825  12.160  2.4224 -1.6707  0.8754
 6671TIP3   OH241427   2.520   3.348   1.037 -0.2203  0.3779 -0.0440
 6671TIP3    H141428   2.534   3.347   0.942  0.7036  1.3254  0.0638
 6671TIP3    H241429   2.446   3.288   1.051  1.2575 -1.8424 -1.0912
 6672TIP3   OH241430   4.601   2.752   0.496  0.3267 -0.1380 -0.4556
 6672TIP3    H141431   4.530   2.698   0.529 -0.3227  0.6854 -0.4624
 6672TIP3    H241432   4.630   2.803   0.571  2.4358 -2.0356  0.1015
 6673TIP3   OH241433   0.831   2.311  11.563 -0.0234  0.0879 -0.2684
 6673TIP3    H141434   0.906   2.285  11.510  0.8266  1.0855  0.4080
 6673TIP3    H241435   0.841   2.263  11.645  1.4507  2.2752  0.9130
 6674TIP3   OH241436   1.479   3.559   6.445  0.0219 -0.2096 -0.1569
 6674TIP3    H141437   1.412   3.491   6.453  0.1769 -0.4660 -0.9296
 6674TIP3    H241438   1.430   3.641   6.445 -0.1540 -0.3041  0.9300
 6675TIP3   OH241439   3.600   6.538   3.311  0.6060  0.0031 -0.1292
 6675TIP3    H141440   3.628   6.499   3.393  1.2727 -1.1788 -0.8879
 6675TIP3    H241441   3.542   6.473   3.271 -0.9984  1.2254  0.0973
 6676TIP3   OH241442   3.973   2.647  13.306  0.2927 -0.1621 -0.3607
 6676TIP3    H141443   3.894   2.690  13.338  1.8260  2.6901 -0.0412
 6676TIP3    H241444   3.967   2.654  13.211  0.6398  1.1556 -0.3143
 6677TIP3   OH241445   5.890   6.117  16.603  0.6917  0.2113 -0.4375
 6677TIP3    H141446   5.813   6.144  16.652  1.2904 -0.5429  0.9694
 6677TIP3    H241447   5.855   6.077  16.523 -0.3120  0.9893 -0.4047
 6678TIP3   OH241448   0.758   1.983   0.414  0.0735 -0.2134 -0.4513
 6678TIP3    H141449   0.723   1.974   0.325 -1.4292 -0.1926  0.1110
 6678TIP3    H241450   0.781   1.894   0.440 -2.4190 -0.7316  0.2468
 6679TIP3   OH241451   3.518   3.549  16.947 -0.6901  0.4142 -0.1827
 6679TIP3    H141452   3.524   3.631  16.898 -0.9362 -0.0079 -0.9337
 6679TIP3    H241453   3.428   3.519  16.931 -0.5189 -0.1325 -0.1184
 6680TIP3   OH241454   5.089   4.208  12.834  0.1943  0.0037  0.6848
 6680TIP3    H141455   5.166   4.151  12.840  0.5294  0.2458 -0.9051
 6680TIP3    H241456   5.068   4.228  12.925  1.8226 -0.3307  1.1813
 6681TIP3   OH241457   2.518   0.316   2.453  0.4768 -0.3788  0.2280
 6681TIP3    H141458   2.469   0.324   2.371 -0.3833 -1.9564  0.5500
 6681TIP3    H241459   2.515   0.404   2.492 -0.3584  0.0347 -0.7233
 6682TIP3   OH241460   0.788   2.951  12.754  0.0450  0.2100 -0.5347
 6682TIP3    H141461   0.740   2.875  12.786  1.8010 -1.2177 -1.1015
 6682TIP3    H241462   0.880   2.925  12.760  0.6756  2.1292 -1.1963
 6683TIP3   OH241463   3.762   1.791   0.719 -0.5379 -0.8435  0.0790
 6683TIP3    H141464   3.693   1.750   0.667 -1.1457 -0.1606  0.3386
 6683TIP3    H241465   3.722   1.868   0.757  0.8910  0.6522 -1.2859
 6684TIP3   OH241466   0.702   5.784  17.340 -0.1087  0.2325  0.2356
 6684TIP3    H141467   0.717   5.711  17.281  0.6064  2.8133 -3.0933
 6684TIP3    H241468   0.610   5.776  17.366 -0.0808 -1.7294 -0.1190
 6685TIP3   OH241469   2.057   5.522   2.133  0.4637  0.0246 -0.3331
 6685TIP3    H141470   2.013   5.490   2.055  0.6707  0.9527 -0.8483
 6685TIP3    H241471   1.995   5.583   2.173  0.4831 -0.2083  0.0657
 6686TIP3   OH241472   3.738   1.483   1.120 -0.2051 -0.5656  0.4336
 6686TIP3    H141473   3.807   1.439   1.072 -0.5630  1.2315 -1.9155
 6686TIP3    H241474   3.657   1.439   1.092 -0.5034  1.0270 -1.4646
 6687TIP3   OH241475   5.183   3.478  11.146 -0.2520  0.0389  0.2638
 6687TIP3    H141476   5.142   3.544  11.090 -1.9171 -1.7673 -0.7592
 6687TIP3    H241477   5.248   3.435  11.089 -0.9248 -0.8341  0.1395
 6688TIP3   OH241478   2.049   2.611   6.113  0.3305  0.7430  0.1128
 6688TIP3    H141479   1.997   2.564   6.178  2.3169 -1.8057  0.0208
 6688TIP3    H241480   2.094   2.680   6.162  1.4995 -0.9000  1.4421
 6689TIP3   OH241481   5.926   0.428  13.845 -0.4643  0.3953 -0.3811
 6689TIP3    H141482   5.969   0.505  13.808 -1.5869  0.6303 -1.2384
 6689TIP3    H241483   5.859   0.405  13.781 -1.9797  0.3587  1.1676
 6690TIP3   OH241484   5.291   4.668  10.800  0.4653  0.2053 -0.1254
 6690TIP3    H141485   5.294   4.679  10.895  0.9279 -1.7390  0.1164
 6690TIP3    H241486   5.209   4.711  10.774  0.4397  0.9525  1.0979
 6691TIP3   OH241487   5.297   5.052   4.246  0.1551  0.6274 -0.3177
 6691TIP3    H141488   5.304   5.033   4.340 -1.4169  2.1623  0.1400
 6691TIP3    H241489   5.312   5.146   4.239  0.1860  0.5428 -1.6234
 6692TIP3   OH241490   3.717   5.467  13.943  0.2086 -0.1521 -0.3242
 6692TIP3    H141491   3.742   5.535  14.006 -0.1682  0.7729 -1.1498
 6692TIP3    H241492   3.800   5.430  13.913  0.3798 -1.2709  1.3969
 6693TIP3   OH241493   2.435   2.931  11.474  0.1133 -0.0177 -0.1616
 6693TIP3    H141494   2.439   2.853  11.530 -0.2045 -0.2212 -0.4244
 6693TIP3    H241495   2.521   2.972  11.484  0.0158  0.0176  0.5829
 6694TIP3   OH241496   0.532   0.307   5.559  0.4434  0.1040  0.4558
 6694TIP3    H141497   0.457   0.356   5.594  0.4097  0.4471 -0.0918
 6694TIP3    H241498   0.588   0.293   5.635 -0.4103 -0.5992  0.9862
 6695TIP3   OH241499   5.888   0.657   0.334 -0.0047 -0.1794  0.2435
 6695TIP3    H141500   5.915   0.695   0.250 -0.6468  0.4856  0.3332
 6695TIP3    H241501   5.809   0.607   0.313 -1.8962  2.3079  0.8954
 6696TIP3   OH241502   5.145   6.587   6.262 -0.0171  0.0893  0.2218
 6696TIP3    H141503   5.051   6.568   6.252  0.1435 -0.5723 -0.1035
 6696TIP3    H241504   5.148   6.678   6.291 -0.8502 -0.4325  2.1324
 6697TIP3   OH241505   5.875   4.541  15.687 -0.3840 -0.2953 -0.0181
 6697TIP3    H141506   5.801   4.577  15.736  0.6856  1.4723  0.4200
 6697TIP3    H241507   5.865   4.447  15.693 -2.5740 -0.1029  0.0400
 6698TIP3   OH241508   3.090   1.052  12.625  0.3285  0.4670 -0.2236
 6698TIP3    H141509   3.152   1.122  12.644  0.2624  0.1649  1.2819
 6698TIP3    H241510   3.031   1.052  12.701 -0.8729  0.0656 -1.1317
 6699TIP3   OH241511   1.741   3.688  17.244 -0.3187  0.3000  0.2640
 6699TIP3    H141512   1.702   3.601  17.244  1.8976 -0.7528  0.9704
 6699TIP3    H241513   1.675   3.743  17.201 -2.0742 -1.5487  0.4231
 6700TIP3   OH241514   1.267   2.408  12.450 -0.9776  0.3425  0.0502
 6700TIP3    H141515   1.308   2.325  12.474  0.8777  1.2694  0.2162
 6700TIP3    H241516   1.268   2.408  12.355 -0.3348  0.4825  0.0557
 6701TIP3   OH241517   0.352   5.299   1.133 -0.0210  0.6209  0.3543
 6701TIP3    H141518   0.282   5.282   1.069  0.4306 -0.7492  0.1888
 6701TIP3    H241519   0.309   5.288   1.218 -0.6228  2.4436  0.3247
 6702TIP3   OH241520   2.382   2.182   4.453 -0.5645  0.2214  0.4888
 6702TIP3    H141521   2.392   2.157   4.362  0.5140 -0.9311  0.9031
 6702TIP3    H241522   2.470   2.174   4.491 -1.1405 -0.1124  1.8175
 6703TIP3   OH241523   3.411   1.786   5.183  0.4399  0.6877  0.4897
 6703TIP3    H141524   3.484   1.750   5.232  0.4146  0.3087  0.2572
 6703TIP3    H241525   3.435   1.774   5.091  0.0088  0.3823  0.4087
 6704TIP3   OH241526   2.649   3.350  14.972 -0.0936  0.0605 -0.1569
 6704TIP3    H141527   2.631   3.274  15.027  0.3022  0.8339  1.0704
 6704TIP3    H241528   2.564   3.394  14.964 -0.3366 -0.5152 -0.9191
 6705TIP3   OH241529   6.114   5.699  14.103  0.4226  0.1548  0.0258
 6705TIP3    H141530   6.055   5.752  14.157 -1.1518  0.5370 -1.9087
 6705TIP3    H241531   6.063   5.621  14.082  1.1442 -0.1722 -0.5526
 6706TIP3   OH241532   1.062   2.622  11.688  0.1669 -0.2103 -1.0242
 6706TIP3    H141533   1.122   2.661  11.752  3.8202 -0.2035 -4.1376
 6706TIP3    H241534   1.045   2.535  11.722 -1.2578  1.0081  1.7783
 6707TIP3   OH241535   3.193   6.436   5.040  0.2344 -0.0343  0.7142
 6707TIP3    H141536   3.230   6.507   5.094 -1.4906  0.9012  0.7137
 6707TIP3    H241537   3.258   6.366   5.047  2.2451  1.6904  0.3138
 6708TIP3   OH241538   0.217   0.192   5.782  0.2079  0.7429  0.0982
 6708TIP3    H141539   0.286   0.136   5.817  0.0502  0.1803 -0.4758
 6708TIP3    H241540   0.243   0.281   5.806  0.1534  0.3975  1.5736
 6709TIP3   OH241541   0.225   6.217   2.262 -0.6519  0.5994  0.0625
 6709TIP3    H141542   0.193   6.167   2.337 -0.5556  0.0548 -0.2526
 6709TIP3    H241543   0.266   6.295   2.300  1.1443 -0.5956  0.7219
 6710TIP3   OH241544   4.266   0.076  16.502 -0.3873 -0.2720  0.1261
 6710TIP3    H141545   4.358   0.069  16.526  0.6879 -0.5640 -3.5055
 6710TIP3    H241546   4.255   0.167  16.474 -1.1386 -0.3276  0.2159
 6711TIP3   OH241547   6.252   4.349   2.300 -0.2276 -0.2162  0.6581
 6711TIP3    H141548   6.334   4.313   2.265 -0.7906 -0.5496 -0.3581
 6711TIP3    H241549   6.229   4.419   2.240 -1.3907 -1.0168  0.1384
 6712TIP3   OH241550   1.386   1.608  16.204  0.1669  0.3942  0.3011
 6712TIP3    H141551   1.295   1.622  16.179 -0.0330 -0.6978  0.3645
 6712TIP3    H241552   1.392   1.642  16.293  0.1457  1.6036 -0.1405
 6713TIP3   OH241553   5.610   2.095   5.068 -0.3221  0.2705 -0.9281
 6713TIP3    H141554   5.693   2.114   5.024 -0.5765 -0.4393 -1.7243
 6713TIP3    H241555   5.547   2.080   4.998 -0.6493 -1.2554 -0.3464
 6714TIP3   OH241556   5.761   3.855  16.162 -0.1171  0.0347  0.2095
 6714TIP3    H141557   5.832   3.831  16.221 -0.5505  0.1710  0.7953
 6714TIP3    H241558   5.721   3.932  16.202 -0.9682 -0.3912  0.1922
 6715TIP3   OH241559   3.744   4.670  15.932 -0.1869 -0.2001  0.8053
 6715TIP3    H141560   3.671   4.683  15.993 -1.3018 -1.8613 -0.0867
 6715TIP3    H241561   3.800   4.606  15.977 -0.6879 -0.9457  0.4080
 6716TIP3   OH241562   4.146   4.915   5.559 -0.3761 -0.2854 -0.3117
 6716TIP3    H141563   4.108   5.003   5.562 -1.9900 -0.9355 -0.9907
 6716TIP3    H241564   4.091   4.863   5.617  2.7214 -0.1644  3.1858
 6717TIP3   OH241565   4.302   5.733   4.630 -0.3731  0.5278  0.0185
 6717TIP3    H141566   4.318   5.774   4.716  0.7703  2.7914 -1.1835
 6717TIP3    H241567   4.322   5.802   4.567 -1.3956 -1.0132 -2.0976
 6718TIP3   OH241568   1.942   3.645   2.266 -0.3331  0.0336 -0.6230
 6718TIP3    H141569   2.010   3.621   2.330 -1.0334  0.3029  0.2378
 6718TIP3    H241570   1.945   3.740   2.263  0.1054 -0.0024 -1.4549
 6719TIP3   OH241571   5.600   1.992  15.007  0.2322 -0.1220 -0.4183
 6719TIP3    H141572   5.567   1.905  15.029  0.8223 -0.1300  0.4899
 6719TIP3    H241573   5.646   2.021  15.086  0.8398  0.6270 -1.0274
 6720TIP3   OH241574   5.926   3.392   4.761 -1.0322 -0.0817 -0.0163
 6720TIP3    H141575   5.868   3.370   4.834 -0.8964  0.5059  0.2763
 6720TIP3    H241576   5.988   3.319   4.756 -0.8698  0.0072  0.6385
 6721TIP3   OH241577   4.302   4.181   5.816 -0.1303  0.3536  0.1031
 6721TIP3    H141578   4.383   4.190   5.867 -0.3457  0.1540  0.4833
 6721TIP3    H241579   4.330   4.188   5.725  0.2566  0.7401  0.2484
 6722TIP3   OH241580   3.542   5.406   1.241 -0.3207  0.4058 -0.2202
 6722TIP3    H141581   3.557   5.381   1.150 -1.0251 -0.5444 -0.1017
 6722TIP3    H241582   3.584   5.337   1.292 -1.8422 -0.3071  0.1295
 6723TIP3   OH241583   1.010   3.704  16.420 -0.0398  0.0621 -0.8209
 6723TIP3    H141584   0.960   3.679  16.498  1.9975 -1.6951  0.0252
 6723TIP3    H241585   0.944   3.712  16.351 -1.7417  0.2782  0.7439
 6724TIP3   OH241586   1.485   5.780   2.399  0.4606 -0.0033  0.3433
 6724TIP3    H141587   1.480   5.698   2.448  0.9160  0.0556  0.4992
 6724TIP3    H241588   1.395   5.808   2.389  0.2891 -0.6104  0.1438
 6725TIP3   OH241589   1.477   4.292  12.283 -1.2025 -0.8521  0.6815
 6725TIP3    H141590   1.496   4.352  12.356  2.2324  0.8133 -1.3208
 6725TIP3    H241591   1.385   4.307  12.262 -1.6494  0.3177  3.1357
 6726TIP3   OH241592   6.284   3.505   3.879 -0.4843 -0.6522 -0.1538
 6726TIP3    H141593   6.362   3.514   3.934 -1.7869  1.9403  1.4945
 6726TIP3    H241594   6.314   3.531   3.791  0.4554  0.6955  0.5302
 6727TIP3   OH241595   4.279   4.834   1.841  0.2227 -0.2996  0.1516
 6727TIP3    H141596   4.275   4.899   1.770  2.1174  0.4489  0.6686
 6727TIP3    H241597   4.355   4.860   1.892 -0.1466 -1.8053  1.5262
 6728TIP3   OH241598   4.521   1.891  11.366  1.0316  0.5299 -0.9773
 6728TIP3    H141599   4.443   1.945  11.361  0.9748  0.5883  0.2010
 6728TIP3    H241600   4.572   1.913  11.288  0.2243  1.0347 -1.3660
 6729TIP3   OH241601   1.449   5.800   6.447 -0.4148  0.4296  0.0862
 6729TIP3    H141602   1.359   5.834   6.441 -0.4480  0.0701 -3.0582
 6729TIP3    H241603   1.441   5.720   6.500 -1.9891  0.2871 -0.3081
 6730TIP3   OH241604   2.530   6.103   2.494 -0.1977  0.3934  0.2245
 6730TIP3    H141605   2.474   6.166   2.449  0.1877 -0.9648 -2.4123
 6730TIP3    H241606   2.595   6.155   2.540 -0.6372  1.9253 -0.8371
 6731TIP3   OH241607   3.339   5.090  15.841  0.5033  0.0027  0.5191
 6731TIP3    H141608   3.330   5.170  15.891  0.6258 -1.1457  2.4717
 6731TIP3    H241609   3.256   5.082  15.793  0.4619  1.2298  0.3620
 6732TIP3   OH241610   5.458   2.438  15.935  0.2899 -0.5324 -0.5757
 6732TIP3    H141611   5.518   2.389  15.992 -0.9458 -0.1088  1.1596
 6732TIP3    H241612   5.515   2.474  15.867  2.1070  0.1710  1.2113
 6733TIP3   OH241613   4.108   3.428  13.566 -0.3750 -0.3478  0.3835
 6733TIP3    H141614   4.128   3.522  13.564 -0.9494 -0.2267 -0.2996
 6733TIP3    H241615   4.012   3.424  13.564 -0.3550 -0.9473 -0.8940
 6734TIP3   OH241616   5.832   2.372  15.281  0.0811 -0.0185 -0.5489
 6734TIP3    H141617   5.878   2.420  15.212 -0.3590  0.6539 -0.3826
 6734TIP3    H241618   5.761   2.430  15.307  1.3288  0.5525  1.7731
 6735TIP3   OH241619   6.182   0.278   2.154 -0.3716 -0.0135  0.2688
 6735TIP3    H141620   6.122   0.223   2.204 -1.7035 -0.1895 -1.4306
 6735TIP3    H241621   6.181   0.362   2.200  0.5904 -0.9179  2.0718
 6736TIP3   OH241622   3.774   5.932  13.980 -0.0606 -0.6968 -0.9833
 6736TIP3    H141623   3.754   5.849  14.023  0.6287 -0.2918  0.1527
 6736TIP3    H241624   3.803   5.990  14.051  0.5705  0.1638 -1.9148
 6737TIP3   OH241625   0.116   5.023   1.371 -0.0574 -0.3011 -0.4772
 6737TIP3    H141626   0.037   5.074   1.353  0.2009  0.5047  0.5893
 6737TIP3    H241627   0.161   5.071   1.441  0.8958 -1.2596 -0.3972
 6738TIP3   OH241628   4.245   1.114   0.010 -0.0506  0.1570 -0.1481
 6738TIP3    H141629   4.289   1.144  -0.070  1.8029  0.3892  0.8921
 6738TIP3    H241630   4.168   1.067  -0.021  1.2594 -0.8331 -2.1384
 6739TIP3   OH241631   2.238   5.669   5.391  0.2281 -0.1151  0.3307
 6739TIP3    H141632   2.242   5.755   5.348 -2.1503 -0.5777 -1.0502
 6739TIP3    H241633   2.269   5.607   5.325  2.6841 -0.3370  1.5817
 6740TIP3   OH241634   0.471   6.659   3.031 -0.0834  0.2457  0.1867
 6740TIP3    H141635   0.420   6.732   3.067 -1.3613  0.4151 -1.8262
 6740TIP3    H241636   0.422   6.580   3.058  0.8533  0.1344  1.6681
 6741TIP3   OH241637   3.764   4.294  14.300 -0.2200  0.1513  0.4640
 6741TIP3    H141638   3.760   4.216  14.356 -0.0840 -0.1862  0.0127
 6741TIP3    H241639   3.753   4.259  14.211  1.6390  0.4352  0.1009
 6742TIP3   OH241640   4.741   0.313  13.055  0.3478  0.2645 -0.1787
 6742TIP3    H141641   4.809   0.282  13.115  0.2425  1.2776  0.5028
 6742TIP3    H241642   4.695   0.234  13.027  0.8054 -0.2852  0.5924
 6743TIP3   OH241643   0.544   3.550  13.271 -0.0420  0.3386 -0.1466
 6743TIP3    H141644   0.561   3.591  13.187  0.3418 -0.4946 -0.4842
 6743TIP3    H241645   0.626   3.558  13.319 -0.7488  2.3323  0.8293
 6744TIP3   OH241646   5.035   1.952   0.778  0.2445  0.3386  0.1035
 6744TIP3    H141647   5.122   1.987   0.800  0.3255  1.1132 -1.3253
 6744TIP3    H241648   5.053   1.877   0.721 -0.0170  0.7791 -0.5717
 6745TIP3   OH241649   6.406   3.902   1.719  0.5372 -0.1440  0.2255
 6745TIP3    H141650   6.466   3.837   1.683 -0.2302 -0.3533 -0.7105
 6745TIP3    H241651   6.319   3.867   1.702  0.1234  0.1723  1.5314
 6746TIP3   OH241652   0.959   2.047   4.168  0.1949  0.5563  0.0111
 6746TIP3    H141653   0.915   2.117   4.217 -0.1293  1.6238 -1.7040
 6746TIP3    H241654   0.955   2.077   4.077  0.4494 -1.5181 -0.7149
 6747TIP3   OH241655   0.697   2.118  16.096 -0.4784 -0.2727  0.0469
 6747TIP3    H141656   0.615   2.083  16.060 -1.1973 -0.5811  1.8974
 6747TIP3    H241657   0.758   2.112  16.023 -1.6560 -1.6239 -0.9003
 6748TIP3   OH241658   5.634   4.245   2.284 -0.8435 -0.1789  0.1669
 6748TIP3    H141659   5.625   4.152   2.305 -1.2615 -0.0519  0.5563
 6748TIP3    H241660   5.576   4.259   2.209 -0.0305 -0.4369 -0.5361
 6749TIP3   OH241661   6.157   0.866  15.169 -0.0198  0.0498 -0.0321
 6749TIP3    H141662   6.098   0.831  15.236 -1.0485 -0.7108 -1.2829
 6749TIP3    H241663   6.186   0.789  15.120 -1.2317  0.7374 -1.9716
 6750TIP3   OH241664   5.396   1.625   4.452  0.2211  0.8353  0.3956
 6750TIP3    H141665   5.465   1.690   4.460  0.8824  0.1245  0.5382
 6750TIP3    H241666   5.424   1.568   4.381 -0.6497  1.0536 -0.1426
 6751TIP3   OH241667   3.227   2.423   3.452 -0.3784 -0.5361 -0.0147
 6751TIP3    H141668   3.215   2.331   3.478 -1.5332 -0.8623 -1.5312
 6751TIP3    H241669   3.144   2.465   3.473 -0.6704 -0.3869 -1.3864
 6752TIP3   OH241670   4.250   5.104  15.383  0.1161 -0.0551  0.6300
 6752TIP3    H141671   4.189   5.116  15.311 -0.4587 -2.8084  0.5691
 6752TIP3    H241672   4.197   5.112  15.462  0.1583 -0.0363  0.6567
 6753TIP3   OH241673   0.610   3.023  14.684 -0.1855 -0.4478 -0.2957
 6753TIP3    H141674   0.667   3.089  14.646 -1.0060  0.8188  0.6081
 6753TIP3    H241675   0.592   2.962  14.612  2.4229 -1.0239 -0.5628
 6754TIP3   OH241676   2.547   2.735  15.866  0.2703  0.1809 -0.1829
 6754TIP3    H141677   2.591   2.762  15.785  0.4120 -1.1525 -0.5778
 6754TIP3    H241678   2.609   2.674  15.907 -0.3676 -0.1928  0.2411
 6755TIP3   OH241679   6.463   6.406  16.242  0.3277  0.0395  0.2311
 6755TIP3    H141680   6.389   6.411  16.182 -0.1540  0.3939  0.8476
 6755TIP3    H241681   6.462   6.316  16.274 -0.6285  0.3701  1.2072
 6756TIP3   OH241682   3.126   4.833  13.970  0.1127  0.2853  0.3028
 6756TIP3    H141683   3.102   4.906  14.027 -2.1903 -0.0326 -0.1749
 6756TIP3    H241684   3.044   4.806  13.930  1.0339 -2.0627 -0.1479
 6757TIP3   OH241685   5.823   3.611  14.715 -0.1182 -0.1910  0.1925
 6757TIP3    H141686   5.828   3.601  14.810 -0.9669 -1.1627  0.1484
 6757TIP3    H241687   5.857   3.699  14.698 -0.8566  0.3553  1.4790
 6758TIP3   OH241688   2.613   0.918   5.825 -0.1765  0.3557 -0.0683
 6758TIP3    H141689   2.542   0.957   5.877  1.4586  1.0570  1.8062
 6758TIP3    H241690   2.598   0.824   5.831 -0.7461  0.4765  0.6358
 6759TIP3   OH241691   5.289   5.565  13.095  0.6914  0.3197  0.4661
 6759TIP3    H141692   5.289   5.597  13.185 -0.5056 -0.0054  0.5991
 6759TIP3    H241693   5.270   5.643  13.042  1.8047  0.5922  0.4435
 6760TIP3   OH241694   5.445   0.136   0.840  0.5918 -0.2025  0.4753
 6760TIP3    H141695   5.464   0.103   0.929 -0.2647  0.1197  0.7878
 6760TIP3    H241696   5.363   0.092   0.816  0.6144  0.0168 -0.0009
 6761TIP3   OH241697   4.222   3.893  12.489 -0.3861 -0.4017  0.0991
 6761TIP3    H141698   4.266   3.963  12.539 -1.4373 -0.8082  1.6730
 6761TIP3    H241699   4.161   3.939  12.432  1.0783  0.0937 -1.1443
 6762TIP3   OH241700   4.349   5.136  10.753  0.1023  0.6895 -0.1165
 6762TIP3    H141701   4.267   5.135  10.704  0.2283  1.5626 -0.3596
 6762TIP3    H241702   4.417   5.149  10.686  0.4895 -0.4685  0.0286
 6763TIP3   OH241703   3.045   5.259  13.436  0.2907 -0.1464 -0.0158
 6763TIP3    H141704   3.140   5.249  13.426  0.5865 -0.1316  2.1872
 6763TIP3    H241705   3.008   5.191  13.379  1.7725 -2.8055  1.9298
 6764TIP3   OH241706   0.627   3.962   5.356 -0.0803 -0.2349  0.1800
 6764TIP3    H141707   0.640   4.037   5.414 -2.4804  0.5517 -0.1954
 6764TIP3    H241708   0.645   3.996   5.268 -0.2622 -0.3592  0.0939
 6765TIP3   OH241709   1.398   0.036  16.327 -0.1152  0.5139 -0.7950
 6765TIP3    H141710   1.319   0.003  16.284 -0.6618  0.5723  0.1496
 6765TIP3    H241711   1.460  -0.037  16.324  0.0720  0.6975 -2.1751
 6766TIP3   OH241712   1.934   5.335   0.770 -0.5453  0.2335 -0.1199
 6766TIP3    H141713   1.937   5.327   0.865 -1.0000 -0.4781 -0.1498
 6766TIP3    H241714   1.983   5.414   0.750  0.3286 -0.1083  0.6359
 6767TIP3   OH241715   2.527   6.638  16.864  0.3729 -0.6466 -0.1318
 6767TIP3    H141716   2.528   6.727  16.830 -0.9521 -0.6147 -0.1329
 6767TIP3    H241717   2.553   6.583  16.790 -0.7754 -0.4185 -0.7309
 6768TIP3   OH241718   2.732   2.003  11.973 -0.4372 -0.7837  0.3401
 6768TIP3    H141719   2.646   2.032  12.004 -0.5425 -1.9400  1.2037
 6768TIP3    H241720   2.715   1.965  11.887 -0.3809  1.1162 -0.5716
 6769TIP3   OH241721   3.261   3.815   3.058 -0.3362 -0.2367  0.2784
 6769TIP3    H141722   3.178   3.768   3.054 -0.8925  0.7067  0.6503
 6769TIP3    H241723   3.291   3.802   3.148 -1.2759  1.4230  0.8613
 6770TIP3   OH241724   6.160   4.508   6.174  0.1728  0.0567 -0.5243
 6770TIP3    H141725   6.210   4.527   6.253 -0.4174  1.8229 -0.5072
 6770TIP3    H241726   6.214   4.448   6.124  1.7013  0.8556  0.1051
 6771TIP3   OH241727   3.591   3.062   4.511  0.1901  0.0658  0.7205
 6771TIP3    H141728   3.674   3.111   4.510 -1.1296  2.4441  0.2569
 6771TIP3    H241729   3.568   3.054   4.418  0.6800 -2.0633  0.7507
 6772TIP3   OH241730   4.780   0.043   1.634  0.4799  1.0491 -0.5642
 6772TIP3    H141731   4.697   0.003   1.606  1.1500 -0.6696 -0.2005
 6772TIP3    H241732   4.787   0.021   1.726  1.8128  0.2887 -0.8269
 6773TIP3   OH241733   2.433   6.431   2.584 -0.6814 -0.1403  0.1544
 6773TIP3    H141734   2.351   6.438   2.632 -2.2466  2.8284 -2.5562
 6773TIP3    H241735   2.406   6.408   2.494  1.7873 -2.2421 -0.1635
 6774TIP3   OH241736   3.013   0.785  17.047  0.2462  0.2820 -0.5810
 6774TIP3    H141737   3.090   0.764  16.995 -1.2414 -0.2688 -2.6988
 6774TIP3    H241738   3.014   0.881  17.053  1.3885  0.2556 -0.0265
 6775TIP3   OH241739   3.523   0.896   2.648  0.7778 -0.3696  0.0202
 6775TIP3    H141740   3.520   0.950   2.727  0.8696  0.6938 -0.6662
 6775TIP3    H241741   3.438   0.853   2.645  0.1588  0.7995 -0.0932
 6776TIP3   OH241742   1.587   5.686  16.977  0.0346  0.3986 -0.7576
 6776TIP3    H141743   1.587   5.610  16.919  0.7523  1.0629 -1.6631
 6776TIP3    H241744   1.499   5.686  17.015  0.7338 -2.1774  1.0876
 6777TIP3   OH241745   1.225   3.134  14.678  0.2386 -0.3224  0.0492
 6777TIP3    H141746   1.274   3.132  14.596 -0.4016  2.2366 -0.4752
 6777TIP3    H241747   1.138   3.101  14.654  0.4037 -0.7075 -0.0223
 6778TIP3   OH241748   4.923   3.466  17.233 -0.6119  0.5167  0.0123
 6778TIP3    H141749   4.854   3.531  17.218 -0.7730  0.3838  0.1754
 6778TIP3    H241750   4.878   3.381  17.226 -0.4899  0.4321  0.2379
 6779TIP3   OH241751   0.960   0.019  14.045  0.1101  0.1807 -0.6316
 6779TIP3    H141752   0.980  -0.050  13.982  0.3856 -0.2205 -0.1117
 6779TIP3    H241753   1.046   0.051  14.074 -0.0086  1.0624 -1.2045
 6780TIP3   OH241754   1.200   4.932  17.100 -0.3694 -0.1407 -0.5665
 6780TIP3    H141755   1.158   4.887  17.173 -0.6009  1.3183  0.2299
 6780TIP3    H241756   1.285   4.961  17.135 -0.1677 -0.0686 -1.1013
 6781TIP3   OH241757   1.624   6.116   1.652 -0.3486  0.1002  0.1465
 6781TIP3    H141758   1.658   6.030   1.679  0.0710 -0.3189 -1.6291
 6781TIP3    H241759   1.650   6.175   1.724  2.2688 -0.6145 -0.0849
 6782TIP3   OH241760   2.745   2.614  12.646  0.3870  0.1397  0.7038
 6782TIP3    H141761   2.829   2.647  12.676  1.9485 -2.4623 -0.5091
 6782TIP3    H241762   2.741   2.524  12.677 -1.5753 -0.0795  0.0056
 6783TIP3   OH241763   5.040   3.290   2.022  0.3561  0.8542 -0.2439
 6783TIP3    H141764   5.016   3.229   2.091 -0.7420  2.0201  0.4500
 6783TIP3    H241765   5.118   3.334   2.055 -0.0251  1.2379  0.1548
 6784TIP3   OH241766   1.583   2.447   1.997 -0.3760 -0.7073  0.1028
 6784TIP3    H141767   1.646   2.416   1.933  1.7918 -1.3544  2.3590
 6784TIP3    H241768   1.544   2.367   2.034 -0.8255 -0.4011  0.3083
 6785TIP3   OH241769   5.966   0.326  17.214 -0.2174 -0.1051  0.5230
 6785TIP3    H141770   6.007   0.277  17.142  0.3380 -0.5391  1.1200
 6785TIP3    H241771   5.873   0.305  17.207 -0.0013 -1.1661  0.7005
 6786TIP3   OH241772   4.007   5.761   4.220  0.3846 -0.0263  0.3724
 6786TIP3    H141773   4.056   5.708   4.158 -0.3173 -0.3600  0.1004
 6786TIP3    H241774   4.028   5.724   4.306  0.4778 -0.2736  0.2434
 6787TIP3   OH241775   5.072   2.513   5.204  0.1659  1.1064 -0.0463
 6787TIP3    H141776   5.057   2.573   5.278  0.7691  0.8937  0.2552
 6787TIP3    H241777   5.097   2.571   5.132 -1.0032  1.3699 -0.2623
 6788TIP3   OH241778   3.521   4.189  11.977 -0.2323 -0.1922 -0.0650
 6788TIP3    H141779   3.469   4.146  11.909 -1.7892  1.0701  0.2561
 6788TIP3    H241780   3.585   4.241  11.929 -1.6386  1.0835 -0.6716
 6789TIP3   OH241781   0.476   0.893   3.615  0.2855 -0.6628  0.0823
 6789TIP3    H141782   0.418   0.825   3.582  0.8231 -0.2258 -1.8918
 6789TIP3    H241783   0.438   0.918   3.699 -1.9917 -0.8870 -0.8029
 6790TIP3   OH241784   3.635   0.152  12.623  0.6345  0.2727 -0.1415
 6790TIP3    H141785   3.577   0.123  12.693 -0.9287  1.6049 -0.8173
 6790TIP3    H241786   3.716   0.102  12.636 -0.4323 -1.1835  1.2089
 6791TIP3   OH241787   3.626   2.021   0.833 -0.0386 -0.1397 -0.1462
 6791TIP3    H141788   3.626   2.039   0.927 -0.8673  1.7131 -0.4559
 6791TIP3    H241789   3.533   2.011   0.811  0.2079 -1.9185 -0.5759
 6792TIP3   OH241790   2.531   4.105   4.972  0.0887 -0.6558  0.0712
 6792TIP3    H141791   2.496   4.187   5.006 -0.5730 -1.7651  2.3193
 6792TIP3    H241792   2.619   4.099   5.011  0.5445 -0.5423 -0.9223
 6793TIP3   OH241793   0.599   2.634  14.049  0.3426 -0.7818  0.3712
 6793TIP3    H141794   0.528   2.586  14.007  1.3107 -1.1976 -0.8255
 6793TIP3    H241795   0.634   2.691  13.980 -0.0253  0.8191  1.4434
 6794TIP3   OH241796   4.151   4.425   1.095  0.1995  0.4304 -0.1409
 6794TIP3    H141797   4.122   4.334   1.088  0.1902  0.5473 -2.7071
 6794TIP3    H241798   4.237   4.425   1.054  0.2686  1.5591 -0.0232
 6795TIP3   OH241799   4.762   1.544   2.512 -0.1919  0.4824  0.6091
 6795TIP3    H141800   4.799   1.606   2.449 -0.6611  0.8104  0.6531
 6795TIP3    H241801   4.692   1.500   2.464  2.0657 -2.2790 -0.4714
 6796TIP3   OH241802   6.609   3.658  12.626 -0.1739  0.0660 -0.2127
 6796TIP3    H141803   6.557   3.580  12.610  0.2690 -0.8158  2.2117
 6796TIP3    H241804   6.634   3.652  12.718  0.8812  2.4776 -0.2576
 6797TIP3   OH241805   6.357   6.563  11.954  0.9689 -0.2187  0.0675
 6797TIP3    H141806   6.335   6.514  12.033 -1.8723 -3.4711 -2.4393
 6797TIP3    H241807   6.451   6.547  11.942  1.0232 -1.3807  1.6892
 6798TIP3   OH241808   5.209   4.275   5.370  0.6974  0.0169  0.6062
 6798TIP3    H141809   5.184   4.300   5.281  0.3643  0.4535  0.8222
 6798TIP3    H241810   5.238   4.184   5.362 -0.3324 -0.2823  0.2447
 6799TIP3   OH241811   2.324   6.097   0.702 -0.4281 -0.5208 -0.3071
 6799TIP3    H141812   2.410   6.054   0.708 -0.7946 -1.1625  0.7405
 6799TIP3    H241813   2.334   6.179   0.750 -0.1384 -0.1218 -1.0343
 6800TIP3   OH241814   1.225   2.771  12.418 -0.0393 -0.3076 -0.3419
 6800TIP3    H141815   1.168   2.787  12.342 -1.0379 -3.1649 -0.3147
 6800TIP3    H241816   1.249   2.679  12.411  1.6801 -0.0767  1.6462
 6801TIP3   OH241817   0.091   3.382  12.142 -0.1998  0.4245  0.2938
 6801TIP3    H141818   0.050   3.303  12.109  1.7878 -0.6229  0.1623
 6801TIP3    H241819   0.019   3.435  12.175 -1.7737 -0.6070 -1.2992
 6802TIP3   OH241820   4.487   3.851   3.487  0.1403  0.6961  0.0720
 6802TIP3    H141821   4.580   3.870   3.500  0.1797 -0.3651  1.5822
 6802TIP3    H241822   4.446   3.938   3.483  1.0860  1.1707  0.2103
 6803TIP3   OH241823   5.546   3.666   1.384 -0.4066 -0.0666  0.2339
 6803TIP3    H141824   5.562   3.572   1.376  0.7992  0.2307 -1.3159
 6803TIP3    H241825   5.609   3.697   1.449 -1.2288 -0.4058  1.2141
 6804TIP3   OH241826   5.162   2.686  17.225 -0.2582 -0.3769  0.2258
 6804TIP3    H141827   5.255   2.661  17.227 -0.0128  0.5483  1.2594
 6804TIP3    H241828   5.154   2.743  17.149  0.1214 -0.1015  0.3915
 6805TIP3   OH241829   0.605   3.320  13.872 -0.2690  0.1649 -0.3706
 6805TIP3    H141830   0.510   3.316  13.861 -0.4152  1.4059  0.2902
 6805TIP3    H241831   0.620   3.286  13.961 -0.1728  0.6776 -0.1885
 6806TIP3   OH241832   3.784   5.487  11.077 -0.1751  0.5300  0.0584
 6806TIP3    H141833   3.867   5.445  11.058 -0.1744 -0.3038  1.7568
 6806TIP3    H241834   3.738   5.489  10.993  0.4123 -1.5531 -0.3657
 6807TIP3   OH241835   5.297   1.014  14.460  0.1667  0.0228  0.8082
 6807TIP3    H141836   5.345   1.072  14.518 -0.3670  1.1044  0.1950
 6807TIP3    H241837   5.251   1.072  14.400  1.8812 -1.0471 -1.7027
 6808TIP3   OH241838   4.284   3.659   1.755  0.0668 -0.2522  0.4135
 6808TIP3    H141839   4.347   3.588   1.741 -2.1910 -2.1204 -0.9764
 6808TIP3    H241840   4.237   3.633   1.835 -0.1364  0.1831  0.4351
 6809TIP3   OH241841   3.038   5.762  12.490 -0.4453  0.6471  0.2629
 6809TIP3    H141842   3.082   5.832  12.441 -1.6272  1.3546  0.1811
 6809TIP3    H241843   3.103   5.692  12.494  0.8241  1.7722  0.4319
 6810TIP3   OH241844   4.663   6.112  11.613  0.3064  0.0455 -0.4770
 6810TIP3    H141845   4.586   6.076  11.568  1.3348 -3.2780  0.1474
 6810TIP3    H241846   4.636   6.116  11.705  0.0639  1.4070 -0.5905
 6811TIP3   OH241847   1.927   6.360   1.239 -0.6997 -0.4617  0.3155
 6811TIP3    H141848   1.846   6.399   1.270 -1.5540 -1.4113 -0.6536
 6811TIP3    H241849   1.899   6.287   1.183  0.7798  0.1521 -1.3205
 6812TIP3   OH241850   3.768   3.489  11.613 -0.4796 -0.4107 -0.1552
 6812TIP3    H141851   3.741   3.408  11.656  0.8458 -0.7727  0.0277
 6812TIP3    H241852   3.701   3.504  11.547 -1.6890 -0.6996  0.9636
 6813TIP3   OH241853   1.888   0.136   1.272  0.1751 -0.2176 -0.3914
 6813TIP3    H141854   1.796   0.128   1.299  0.3838  0.3602  0.5228
 6813TIP3    H241855   1.908   0.229   1.282  0.6585 -0.2155 -1.2922
 6814TIP3   OH241856   3.377   0.292  12.774 -0.1126 -0.7501  0.0631
 6814TIP3    H141857   3.457   0.311  12.725  0.5819 -1.3357  0.9273
 6814TIP3    H241858   3.403   0.226  12.838 -1.1282 -0.4703  0.8071
 6815TIP3   OH241859   1.110   6.471   2.385  0.0115 -0.1198 -0.3404
 6815TIP3    H141860   1.052   6.461   2.461  0.5783 -0.0528  0.1040
 6815TIP3    H241861   1.177   6.533   2.414  0.4857 -0.4401 -0.7431
 6816TIP3   OH241862   3.869   4.955   5.979  0.5962 -0.7514 -0.3201
 6816TIP3    H141863   3.803   5.004   6.028  1.5540  0.4336 -0.1743
 6816TIP3    H241864   3.819   4.888   5.932 -0.3436 -2.0469  2.3474
 6817TIP3   OH241865   3.267   4.332  16.491  0.1352  0.7036 -0.1918
 6817TIP3    H141866   3.348   4.293  16.521 -0.7679 -1.5587 -0.4931
 6817TIP3    H241867   3.272   4.424  16.518  2.4782  0.4630  0.3358
 6818TIP3   OH241868   1.232   2.588  16.799 -0.3063 -0.0711  0.3547
 6818TIP3    H141869   1.143   2.577  16.765  1.3377 -1.5125 -4.2845
 6818TIP3    H241870   1.263   2.669  16.757  1.2200 -0.7408  0.1448
 6819TIP3   OH241871   5.413   2.335  14.743 -0.0794  0.2399  0.0030
 6819TIP3    H141872   5.427   2.377  14.658 -0.7576 -0.0063 -0.2320
 6819TIP3    H241873   5.404   2.242  14.723  1.9342 -0.1289  0.5690
 6820TIP3   OH241874   2.308   2.285  17.170  0.1801  0.4284 -0.2958
 6820TIP3    H141875   2.395   2.283  17.129 -0.8775 -1.6205 -2.6819
 6820TIP3    H241876   2.307   2.211  17.230 -0.3147 -0.3342 -1.2275
 6821TIP3   OH241877   5.031   5.134  13.401  0.2599  0.0378  0.3205
 6821TIP3    H141878   5.058   5.103  13.315 -0.4041  0.0991  0.0832
 6821TIP3    H241879   5.027   5.230  13.392 -4.1465 -0.0530 -0.9894
 6822TIP3   OH241880   3.824   0.639  12.457 -0.3153  0.2707  0.1874
 6822TIP3    H141881   3.828   0.544  12.470  2.1677  0.1134 -1.1804
 6822TIP3    H241882   3.845   0.676  12.543  4.6184 -0.6060 -0.3769
 6823TIP3   OH241883   1.755   5.271  13.855 -0.6142  0.0309  0.3374
 6823TIP3    H141884   1.772   5.239  13.767 -2.9730  0.2377 -0.2572
 6823TIP3    H241885   1.808   5.350  13.862 -0.0847 -0.2076 -0.7503
 6824TIP3   OH241886   2.146   2.633   2.944 -0.1262  0.1026  0.0752
 6824TIP3    H141887   2.229   2.630   2.897  0.0562 -0.6409  0.4286
 6824TIP3    H241888   2.084   2.586   2.887 -0.2965  0.6208 -0.1696
 6825TIP3   OH241889   5.645   2.556   1.591 -0.0027  0.3504  0.1198
 6825TIP3    H141890   5.680   2.638   1.625 -0.6051  0.8796 -0.5050
 6825TIP3    H241891   5.722   2.501   1.577  0.6267  1.5316 -1.3619
 6826TIP3   OH241892   6.680   0.548  16.884 -0.3882  0.0399 -0.6565
 6826TIP3    H141893   6.729   0.498  16.819  0.8031 -1.7540  1.4572
 6826TIP3    H241894   6.607   0.587  16.835  0.6351 -0.9043 -3.0802
 6827TIP3   OH241895   3.249   0.186  14.866  0.3617  0.0347  0.1561
 6827TIP3    H141896   3.333   0.214  14.903  2.1765 -2.8106 -1.4576
 6827TIP3    H241897   3.262   0.186  14.771 -1.7454  0.2137 -0.1988
 6828TIP3   OH241898   5.657   3.483  11.950 -0.3388 -0.3138  0.0792
 6828TIP3    H141899   5.583   3.521  11.997  0.1300  1.2287 -0.3617
 6828TIP3    H241900   5.621   3.405  11.908 -1.7344  0.4197 -0.1638
 6829TIP3   OH241901   0.620   6.144  11.350  0.5316  0.2226 -0.5529
 6829TIP3    H141902   0.676   6.214  11.315 -0.4981  1.2895 -0.1074
 6829TIP3    H241903   0.546   6.140  11.290  2.0034 -2.6508 -2.4029
 6830TIP3   OH241904   3.721   5.120   0.716  0.0781 -0.7487  0.0668
 6830TIP3    H141905   3.639   5.164   0.737  1.2309  0.8333  1.5402
 6830TIP3    H241906   3.781   5.146   0.786  2.5328  0.0988 -2.1845
 6831TIP3   OH241907   3.412   0.641   2.207 -0.2405  0.0581 -0.1528
 6831TIP3    H141908   3.368   0.617   2.289 -1.6781 -1.7534 -1.3718
 6831TIP3    H241909   3.502   0.611   2.219 -0.9249 -2.0946  0.0614
 6832TIP3   OH241910   4.792   1.232  15.041  0.0840 -0.3620 -0.0733
 6832TIP3    H141911   4.731   1.159  15.051 -0.0303 -0.1815  0.5670
 6832TIP3    H241912   4.791   1.250  14.947 -1.4013  0.1106  0.0023
 6833TIP3   OH241913   1.874   5.563   5.178 -0.2960  0.6559  0.2689
 6833TIP3    H141914   1.888   5.490   5.238 -1.1989 -0.6285 -1.0172
 6833TIP3    H241915   1.876   5.524   5.091 -0.2645  2.2671 -0.4911
 6834TIP3   OH241916   0.599   3.049   2.839 -0.5781 -0.0844 -0.9016
 6834TIP3    H141917   0.604   3.025   2.747 -1.6903 -1.8169 -0.5586
 6834TIP3    H241918   0.639   2.975   2.885  1.2427  1.3661 -0.0116
 6835TIP3   OH241919   3.644   5.204  12.727  0.1260 -0.1053 -0.4496
 6835TIP3    H141920   3.571   5.258  12.694  0.4681  0.4453 -0.3177
 6835TIP3    H241921   3.601   5.129  12.768 -0.4940  1.4083  1.8318
 6836TIP3   OH241922   4.458   4.377   5.417  0.0085  0.7037  0.2145
 6836TIP3    H141923   4.538   4.422   5.389  0.4813 -0.3233 -0.1707
 6836TIP3    H241924   4.391   4.404   5.354  0.2480  0.9957  0.0856
 6837TIP3   OH241925   4.410   4.928   1.554  0.2213  0.0779 -0.1689
 6837TIP3    H141926   4.369   4.843   1.539 -1.7696  1.2784 -2.3342
 6837TIP3    H241927   4.486   4.910   1.609 -0.6434 -2.9397  0.1781
 6838TIP3   OH241928   6.442   6.330  11.313  0.3419  0.0798  0.3290
 6838TIP3    H141929   6.483   6.325  11.399 -0.9583  1.8117  1.1173
 6838TIP3    H241930   6.383   6.255  11.310  0.4738 -0.0521  0.9138
 6839TIP3   OH241931   5.610   2.967  13.735  0.0110  0.3799  0.0231
 6839TIP3    H141932   5.569   2.915  13.666  0.7714  1.0775 -0.9865
 6839TIP3    H241933   5.703   2.967  13.713 -0.0231  2.7364 -0.4506
 6840TIP3   OH241934   1.522   3.577   2.820 -0.1688 -0.7042 -0.3784
 6840TIP3    H141935   1.464   3.603   2.748 -0.2764  2.0400  0.5616
 6840TIP3    H241936   1.463   3.560   2.894  0.0922 -0.1838 -0.0452
 6841TIP3   OH241937   2.916   3.102   4.131  0.2033 -0.1195 -0.2876
 6841TIP3    H141938   2.936   3.027   4.075  0.1372  0.0214 -0.5018
 6841TIP3    H241939   2.987   3.105   4.194  0.0299 -0.5666 -0.0658
 6842TIP3   OH241940   4.181   3.306  13.995  0.0816  0.8110 -0.5015
 6842TIP3    H141941   4.215   3.354  14.071 -0.3046 -0.6766  0.6793
 6842TIP3    H241942   4.162   3.219  14.029 -1.8040  0.6100 -1.8913
 6843TIP3   OH241943   3.343   1.806  14.782  0.1753 -0.2814  0.2942
 6843TIP3    H141944   3.322   1.891  14.744  0.4641 -0.8387 -1.1701
 6843TIP3    H241945   3.438   1.803  14.783  0.1663 -0.6046  0.2951
 6844TIP3   OH241946   6.237   5.423  17.086 -0.3706  0.3243 -0.4686
 6844TIP3    H141947   6.191   5.339  17.082  0.5223 -0.2059  0.1327
 6844TIP3    H241948   6.233   5.448  17.178 -0.6385  0.9627 -0.6447
 6845TIP3   OH241949   0.453   0.999   2.402 -0.4375 -0.1844 -0.0394
 6845TIP3    H141950   0.377   0.953   2.365 -1.2532  1.0880 -0.0048
 6845TIP3    H241951   0.493   0.936   2.461 -0.6618 -1.3517 -1.0852
 6846TIP3   OH241952   0.510   1.506  12.847  0.4024 -0.3537 -0.7763
 6846TIP3    H141953   0.565   1.437  12.882  0.9497  0.8341  0.8406
 6846TIP3    H241954   0.475   1.471  12.765 -0.6903 -3.1635  0.7771
 6847TIP3   OH241955   0.250   2.446   2.922 -0.3280 -0.2786 -0.0419
 6847TIP3    H141956   0.165   2.403   2.918 -1.9819  2.6865  0.7720
 6847TIP3    H241957   0.281   2.429   3.012 -0.1930 -1.0418 -0.2231
 6848TIP3   OH241958   3.187   6.436  11.264  0.3881 -0.3604  0.0668
 6848TIP3    H141959   3.220   6.488  11.191  0.0464 -0.9822 -0.5439
 6848TIP3    H241960   3.204   6.489  11.341 -1.4500  1.4118 -0.6667
 6849TIP3   OH241961   6.239   3.634   5.327  0.2282 -0.0790 -0.2247
 6849TIP3    H141962   6.199   3.582   5.397  0.0287 -1.1311 -1.0918
 6849TIP3    H241963   6.314   3.582   5.298  0.8366  0.7686 -0.2029
 6850TIP3   OH241964   0.862   3.110  13.027  0.4369  0.0500  0.4559
 6850TIP3    H141965   0.901   3.031  12.989  1.3619  0.3180  0.8190
 6850TIP3    H241966   0.917   3.181  12.995 -1.0271  0.6985 -0.7500
 6851TIP3   OH241967   4.957   2.433   3.586 -1.0412  0.1485  0.0865
 6851TIP3    H141968   4.939   2.508   3.530 -0.5157  0.0686 -0.1999
 6851TIP3    H241969   5.043   2.451   3.623 -1.0839 -0.1273  0.3275
 6852TIP3   OH241970   4.822   4.636  12.262  0.2814 -0.2481 -0.1804
 6852TIP3    H141971   4.744   4.582  12.274  0.6117 -0.9218 -0.9572
 6852TIP3    H241972   4.894   4.573  12.260  0.4541 -0.0944 -3.6237
 6853TIP3   OH241973   5.794   5.349   4.315  0.1953  0.0476 -0.5081
 6853TIP3    H141974   5.818   5.256   4.308  1.6647  0.2934  0.6890
 6853TIP3    H241975   5.795   5.367   4.409 -0.1451  1.2646 -0.7168
 6854TIP3   OH241976   1.944   0.758  13.371  0.2401 -0.2667  0.4660
 6854TIP3    H141977   1.942   0.763  13.467  0.8582  0.2683  0.4601
 6854TIP3    H241978   1.856   0.730  13.347  0.1032 -0.4960  1.1970
 6855TIP3   OH241979   0.335   5.175   6.435 -0.0618  0.5384 -0.0835
 6855TIP3    H141980   0.426   5.146   6.439 -0.1402 -0.3476 -2.5670
 6855TIP3    H241981   0.289   5.123   6.500  1.0897  0.5175  0.7274
 6856TIP3   OH241982   3.355   0.683  15.488  0.0382  0.0326 -0.2974
 6856TIP3    H141983   3.429   0.633  15.454  0.1727  0.6727 -0.9844
 6856TIP3    H241984   3.279   0.627  15.474  0.1379  0.1335 -1.3758
 6857TIP3   OH241985   2.453   4.286   0.468  0.1898 -0.2435  0.2378
 6857TIP3    H141986   2.460   4.381   0.481  0.7708 -0.4839  2.0537
 6857TIP3    H241987   2.369   4.274   0.424  0.1158  1.1087 -0.0416
 6858TIP3   OH241988   6.414   3.060  15.454  0.3329 -0.4717 -0.2350
 6858TIP3    H141989   6.332   3.040  15.409  0.5250 -0.3775 -0.6345
 6858TIP3    H241990   6.481   3.054  15.385  0.3861  1.8413 -0.4822
 6859TIP3   OH241991   1.591   0.255  13.728  0.4884  0.2289 -0.5083
 6859TIP3    H141992   1.555   0.340  13.702  0.7850  0.6220  0.3182
 6859TIP3    H241993   1.516   0.197  13.732  0.4836 -0.0382 -2.8172
 6860TIP3   OH241994   4.514   1.672   3.906 -0.0665  0.3328 -0.7797
 6860TIP3    H141995   4.529   1.732   3.833 -1.2600 -0.6206 -1.8454
 6860TIP3    H241996   4.511   1.585   3.866  0.3469 -0.3356  0.5690
 6861TIP3   OH241997   1.822   4.829   4.295  0.1143  0.8481 -0.0806
 6861TIP3    H141998   1.835   4.736   4.277 -0.8191  0.4540  1.1379
 6861TIP3    H241999   1.779   4.863   4.217 -1.1206 -0.1397  0.1425
 6862TIP3   OH242000   5.495   6.418   0.321 -0.2436  0.2186 -0.0253
 6862TIP3    H142001   5.486   6.333   0.365 -0.9750  0.7230  0.8390
 6862TIP3    H242002   5.506   6.481   0.392  0.5111  0.8325 -0.6680
 6863TIP3   OH242003   3.191   4.547  11.520 -0.0210 -0.2159 -0.5482
 6863TIP3    H142004   3.101   4.528  11.495  0.2481  0.0762 -1.8572
 6863TIP3    H242005   3.231   4.581  11.440  1.6083 -1.5651 -0.3867
 6864TIP3   OH242006   2.191   5.320  11.378 -0.2073  0.5494 -0.0352
 6864TIP3    H142007   2.175   5.323  11.472 -0.9671 -1.4729 -0.0524
 6864TIP3    H242008   2.127   5.381  11.341 -2.4003 -1.2611  0.5475
 6865TIP3   OH242009   1.590   5.058  16.554  0.4825 -0.5640  0.1053
 6865TIP3    H142010   1.676   5.075  16.515  0.3494 -1.2668 -0.5392
 6865TIP3    H242011   1.575   5.132  16.613 -0.0348  1.4876 -2.4139
 6866TIP3   OH242012   3.139   2.778  14.909 -0.2239  0.3558 -0.5303
 6866TIP3    H142013   3.112   2.864  14.941 -0.7867  0.6437 -1.7442
 6866TIP3    H242014   3.234   2.777  14.921 -0.0947  1.4896 -1.2991
 6867TIP3   OH242015   4.319   2.822   2.840  0.3996 -0.2259 -0.2094
 6867TIP3    H142016   4.337   2.751   2.778  0.9805  0.7337 -1.1881
 6867TIP3    H242017   4.406   2.855   2.864  0.1687 -0.4189  0.9442
 6868TIP3   OH242018   2.342   2.197  15.367 -0.2043  0.4975  0.0120
 6868TIP3    H142019   2.352   2.107  15.400 -1.4647  0.0373 -0.7730
 6868TIP3    H242020   2.251   2.201  15.337  0.3488  1.4803 -1.6527
 6869TIP3   OH242021   3.342   4.004   5.499  0.4238  0.3709  0.8738
 6869TIP3    H142022   3.313   4.096   5.495  1.6386  0.7425 -0.7289
 6869TIP3    H242023   3.272   3.955   5.455  0.0965  0.6270  1.1050
 6870TIP3   OH242024   6.645   6.560   2.957  0.2355 -0.2957  0.0692
 6870TIP3    H142025   6.709   6.603   2.901  2.3017 -2.9734  0.1752
 6870TIP3    H242026   6.689   6.549   3.040 -1.4660  0.3181  1.1123
 6871TIP3   OH242027   3.037   4.598   2.612 -0.3507 -0.2208 -0.4109
 6871TIP3    H142028   2.995   4.530   2.665 -2.0082  1.7841  1.0125
 6871TIP3    H242029   3.012   4.577   2.522 -2.5907 -0.4233  0.1858
 6872TIP3   OH242030   4.226   6.170  15.792  0.1635 -1.2287  0.2707
 6872TIP3    H142031   4.269   6.084  15.788  0.5056 -1.0609  0.3307
 6872TIP3    H242032   4.162   6.162  15.863  0.2578 -1.4053  0.3359
 6873TIP3   OH242033   5.116   6.434  16.946 -0.5106  0.1031  0.3538
 6873TIP3    H142034   5.080   6.506  16.894  1.2640  0.2821 -0.6787
 6873TIP3    H242035   5.133   6.472  17.032  2.4258  1.6175 -0.7743
 6874TIP3   OH242036   5.403   0.605   4.776 -0.2473  0.2492 -0.5136
 6874TIP3    H142037   5.332   0.636   4.833  2.1057  0.2140  2.7218
 6874TIP3    H242038   5.441   0.685   4.739  0.6675  0.7096  1.2753
 6875TIP3   OH242039   0.893   3.004  17.069 -0.4554 -0.2131  0.0472
 6875TIP3    H142040   0.931   2.926  17.111 -1.2215 -0.1467  0.9194
 6875TIP3    H242041   0.800   3.001  17.095 -1.1851 -0.6062 -2.3487
 6876TIP3   OH242042   1.546   5.813   3.578 -0.4050  0.3855 -0.0029
 6876TIP3    H142043   1.521   5.828   3.487  1.2798  0.7255 -0.4395
 6876TIP3    H242044   1.478   5.858   3.629 -1.4113  0.1240 -1.0692
 6877TIP3   OH242045   3.467   3.518   4.510  1.0406  0.2677 -0.1958
 6877TIP3    H142046   3.536   3.538   4.572 -0.3555  0.0485  1.5090
 6877TIP3    H242047   3.416   3.449   4.552 -0.9642  1.3081 -0.7805
 6878TIP3   OH242048   0.928   2.125   5.344 -0.2975  0.5669  0.7493
 6878TIP3    H142049   0.893   2.075   5.418 -2.5437  0.8342 -0.0627
 6878TIP3    H242050   0.878   2.094   5.269  1.5516  0.7011 -0.5914
 6879TIP3   OH242051   5.394   5.176   2.176 -0.1757  0.4872 -0.3227
 6879TIP3    H142052   5.365   5.217   2.095  2.0474  0.5874 -1.1454
 6879TIP3    H242053   5.401   5.248   2.239  0.6698  0.8866 -0.8523
 6880TIP3   OH242054   4.120   1.142  12.370 -0.2201  0.2383 -0.2368
 6880TIP3    H142055   4.053   1.118  12.306 -0.8666  1.0005  0.1378
 6880TIP3    H242056   4.197   1.091  12.345 -1.1298 -1.1590 -0.2754
 6881TIP3   OH242057   1.412   6.737   4.581 -0.3445  0.1771  0.0893
 6881TIP3    H142058   1.477   6.791   4.536  0.0830  0.0791  0.5879
 6881TIP3    H242059   1.332   6.789   4.578 -0.5628 -0.1868 -1.5375
 6882TIP3   OH242060   3.593   2.768  14.394 -0.0186  0.0390 -0.0239
 6882TIP3    H142061   3.525   2.759  14.327 -1.3155  0.7080  1.1441
 6882TIP3    H242062   3.582   2.857  14.428  0.8143 -0.1739  0.8639
 6883TIP3   OH242063   0.700   6.431   0.766  0.3538  0.3654 -0.2585
 6883TIP3    H142064   0.747   6.515   0.757  1.8915 -0.3676  0.6497
 6883TIP3    H242065   0.730   6.395   0.849 -1.7035 -0.2666  0.2671
 6884TIP3   OH242066   6.025   4.938   0.953  0.1570 -0.3465 -0.5813
 6884TIP3    H142067   6.000   4.855   0.913 -2.3885  0.5509 -1.0140
 6884TIP3    H242068   6.074   4.984   0.885  1.7687 -1.4964 -0.2708
 6885TIP3   OH242069   2.319   1.692   2.069 -0.3891  0.5392  0.6869
 6885TIP3    H142070   2.391   1.673   2.010 -0.0195  0.1710  1.2537
 6885TIP3    H242071   2.276   1.608   2.083 -1.0100  0.7702  0.2644
 6886TIP3   OH242072   4.498   2.815  11.490 -0.2974  0.4444 -0.5617
 6886TIP3    H142073   4.534   2.727  11.494  1.5389  1.1675 -0.5599
 6886TIP3    H242074   4.467   2.833  11.578 -1.1639 -0.3551 -0.6784
 6887TIP3   OH242075   5.426   1.747   5.662 -0.4322 -0.4915 -0.2000
 6887TIP3    H142076   5.511   1.757   5.621 -0.0631  1.6084  0.9287
 6887TIP3    H242077   5.444   1.747   5.756 -1.5502 -1.6885  0.0478
 6888TIP3   OH242078   5.489   3.764   1.865 -0.7791 -0.4466  0.1780
 6888TIP3    H142079   5.500   3.684   1.915 -0.1518 -0.1956  0.4474
 6888TIP3    H242080   5.557   3.760   1.797  0.9765  1.0099  1.7263
 6889TIP3   OH242081   0.813   3.254  13.715 -0.3285 -0.0517 -0.3514
 6889TIP3    H142082   0.748   3.308  13.761 -0.5550 -0.8580  0.2875
 6889TIP3    H242083   0.837   3.307  13.638  0.0355  1.2987  0.6531
 6890TIP3   OH242084   0.875   5.218  16.059  0.2435  0.6313 -0.1983
 6890TIP3    H142085   0.940   5.265  16.112  0.8110  0.5534 -0.8080
 6890TIP3    H242086   0.883   5.258  15.972  1.0648 -0.8823 -0.8603
 6891TIP3   OH242087   5.773   1.405  11.463  0.5748 -0.6696 -0.4333
 6891TIP3    H142088   5.767   1.314  11.435  0.0300 -1.1670  1.1524
 6891TIP3    H242089   5.848   1.407  11.522  1.9314  0.4229 -2.1047
 6892TIP3   OH242090   6.566   5.307   5.001 -0.9709  0.3001 -0.4119
 6892TIP3    H142091   6.483   5.349   5.026 -0.8657  0.1626  0.1752
 6892TIP3    H242092   6.605   5.367   4.937 -1.7883  0.0876 -1.1268
 6893TIP3   OH242093   0.898   2.608   5.844  0.1293  0.6915  0.3531
 6893TIP3    H142094   0.931   2.533   5.795  0.1427 -0.1139  1.5458
 6893TIP3    H242095   0.973   2.637   5.896 -0.3789  0.3376  1.3002
 6894TIP3   OH242096   6.168   0.734  11.531 -0.4937 -0.0028 -0.0187
 6894TIP3    H142097   6.117   0.788  11.592 -0.3972  0.7255 -0.5649
 6894TIP3    H242098   6.144   0.767  11.444  2.1611  1.5666 -0.2568
 6895TIP3   OH242099   6.102   0.123   1.792 -0.1050 -0.1200  0.4342
 6895TIP3    H142100   6.061   0.209   1.785 -2.6298 -1.1666  1.1220
 6895TIP3    H242101   6.190   0.140   1.824  0.9645  2.4561 -3.2398
 6896TIP3   OH242102   3.583   5.464   1.883 -0.2245  0.0039  0.4974
 6896TIP3    H142103   3.590   5.559   1.891 -3.2556  0.2657  1.2583
 6896TIP3    H242104   3.595   5.431   1.972  1.5259 -0.4576  0.1322
 6897TIP3   OH242105   2.972   3.277  10.944  0.0959 -0.2226  0.0308
 6897TIP3    H142106   2.951   3.366  10.915  1.8759  1.6144  3.7853
 6897TIP3    H242107   2.903   3.254  11.006  0.8545 -0.5320  0.7775
 6898TIP3   OH242108   5.802   2.275  16.621  0.2428  0.2709  0.2923
 6898TIP3    H142109   5.880   2.324  16.596 -0.9467  2.6696  0.8454
 6898TIP3    H242110   5.770   2.320  16.700 -1.1314 -1.2636  0.6728
 6899TIP3   OH242111   3.310   5.924   0.280 -0.3717 -0.2060 -0.1612
 6899TIP3    H142112   3.384   5.863   0.279  0.0275  0.1393  2.2118
 6899TIP3    H242113   3.274   5.920   0.192  2.3700 -0.4942 -1.3440
 6900TIP3   OH242114   2.671   3.478   1.263  0.7583 -0.4368  0.1697
 6900TIP3    H142115   2.623   3.443   1.188  0.2398  0.1725  0.2093
 6900TIP3    H242116   2.710   3.401   1.304  0.8653 -0.7983 -0.5949
 6901TIP3   OH242117   2.566   5.570  11.800 -0.5589  0.3358 -0.5688
 6901TIP3    H142118   2.513   5.600  11.727  1.3762  1.3355 -1.6605
 6901TIP3    H242119   2.631   5.512  11.760  0.2464  0.5242  0.4198
 6902TIP3   OH242120   5.542   5.980   5.587  0.8760  0.1570  0.4006
 6902TIP3    H142121   5.559   5.907   5.647  0.4604 -0.7539 -0.5479
 6902TIP3    H242122   5.450   6.002   5.602  0.7267 -0.1802 -0.0050
 6903TIP3   OH242123   5.946   6.050  14.938 -0.1621 -0.0171  0.7047
 6903TIP3    H142124   6.041   6.050  14.947  0.0677 -1.9176 -1.0034
 6903TIP3    H242125   5.919   5.964  14.971 -1.0351 -0.3019 -0.6654
 6904TIP3   OH242126   3.796   1.712  15.594  0.1861  0.3613  0.1377
 6904TIP3    H142127   3.833   1.682  15.677 -0.2765  0.6991  0.4763
 6904TIP3    H242128   3.702   1.694  15.602  0.3716 -1.4964 -1.1380
 6905TIP3   OH242129   6.050   2.068   6.612 -0.0529  0.5958  0.1670
 6905TIP3    H142130   5.959   2.091   6.631  0.3924  1.2700  1.6346
 6905TIP3    H242131   6.088   2.148   6.577 -0.2603  0.0168 -1.4760
 6906TIP3   OH242132   2.002   6.119   1.753  0.1189 -0.0671  0.5626
 6906TIP3    H142133   1.987   6.024   1.751 -2.4424  0.2989 -0.5934
 6906TIP3    H242134   2.016   6.144   1.662 -2.4917  1.0609  0.4003
 6907TIP3   OH242135   4.332   4.161   5.556 -0.0067  0.1286  0.6625
 6907TIP3    H142136   4.382   4.089   5.519  0.1397  0.3931  0.3428
 6907TIP3    H242137   4.362   4.238   5.509 -2.4585 -0.0071 -1.3530
 6908TIP3   OH242138   1.651   0.056   1.044 -0.5205  0.1190 -0.1853
 6908TIP3    H142139   1.654  -0.034   1.075  1.3552  0.0062 -0.6161
 6908TIP3    H242140   1.634   0.108   1.122  3.7626 -0.1778  1.1775
 6909TIP3   OH242141   4.897   0.604  11.658  0.3396  0.1579 -0.3114
 6909TIP3    H142142   4.894   0.531  11.720 -1.3391  0.1219 -0.3890
 6909TIP3    H242143   4.976   0.652  11.682 -0.6329  0.5808  2.3942
 6910TIP3   OH242144   6.419   1.748  15.632 -0.0023  0.1925 -0.0363
 6910TIP3    H142145   6.514   1.749  15.625 -0.0632 -0.0823 -1.0401
 6910TIP3    H242146   6.391   1.678  15.574 -0.9178  1.4917 -1.2383
 6911TIP3   OH242147   6.264   5.474  13.505 -0.3383  0.0992 -0.4560
 6911TIP3    H142148   6.325   5.401  13.499 -2.1139 -1.5382  0.2802
 6911TIP3    H242149   6.192   5.441  13.558 -1.2517  2.3888 -0.1451
 6912TIP3   OH242150   4.275   5.988  16.396 -0.3553  0.5648 -0.0447
 6912TIP3    H142151   4.210   6.021  16.334  0.6215  0.4058 -1.1799
 6912TIP3    H242152   4.224   5.965  16.474 -2.0331 -1.5936 -1.6381
 6913TIP3   OH242153   1.831   1.063  13.650  0.6311  0.0992  0.4848
 6913TIP3    H142154   1.903   1.049  13.590  0.1003 -2.6739  0.3415
 6913TIP3    H242155   1.864   1.033  13.735  0.0035 -0.2508  0.6165
 6914TIP3   OH242156   5.206   1.623   0.868 -0.3448  0.2227 -0.5273
 6914TIP3    H142157   5.190   1.643   0.776 -0.1367 -0.8766 -0.8258
 6914TIP3    H242158   5.119   1.606   0.905 -0.3061 -1.0375 -0.9642
 6915TIP3   OH242159   1.274   1.193   0.618  0.4698 -0.1729 -0.4202
 6915TIP3    H142160   1.193   1.143   0.608  0.0527  0.5793 -0.9145
 6915TIP3    H242161   1.262   1.243   0.699 -0.0019  0.7286 -1.0382
 6916TIP3   OH242162   4.591   0.016  13.199  0.0082 -0.4760  0.2331
 6916TIP3    H142163   4.553   0.001  13.112  2.6098  1.4924 -1.3849
 6916TIP3    H242164   4.637  -0.066  13.219  0.9403 -0.3330 -1.1529
 6917TIP3   OH242165   2.293   3.805   3.290 -0.9289 -0.3635 -0.4680
 6917TIP3    H142166   2.217   3.772   3.339  0.0981  2.1554  3.2333
 6917TIP3    H242167   2.368   3.789   3.347  0.4210  2.5623 -1.1947
 6918TIP3   OH242168   1.500   6.560  17.206  0.5482 -0.2006  0.5459
 6918TIP3    H142169   1.467   6.551  17.117  0.6286  1.6736  0.2798
 6918TIP3    H242170   1.431   6.522  17.261  0.2120 -0.7999 -0.2781
 6919TIP3   OH242171   4.011   5.261   3.015 -0.0059 -0.0751  0.2040
 6919TIP3    H142172   3.992   5.292   3.103  1.9149 -1.9046  1.3511
 6919TIP3    H242173   4.099   5.223   3.021 -0.0795 -0.8588 -2.3568
 6920TIP3   OH242174   4.942   0.500  15.166 -0.5251 -0.4078  0.4120
 6920TIP3    H142175   4.933   0.479  15.259  4.1783  1.7487  1.6367
 6920TIP3    H242176   5.012   0.443  15.135  0.2404  1.1231 -0.8496
 6921TIP3   OH242177   1.251   1.905  14.667  0.2558 -0.0574  1.2393
 6921TIP3    H142178   1.253   1.873  14.577 -2.9127 -0.4347  1.1862
 6921TIP3    H242179   1.307   1.845  14.716 -0.6161 -1.8887  0.0618
 6922TIP3   OH242180   1.782   1.215   0.228 -0.1110 -0.0355 -0.0466
 6922TIP3    H142181   1.739   1.267   0.296 -0.3473  0.5969 -0.6643
 6922TIP3    H242182   1.743   1.246   0.146  1.7169  0.7851 -0.6571
 6923TIP3   OH242183   4.015   0.995  17.323 -0.1197 -0.0539 -0.2648
 6923TIP3    H142184   3.978   0.908  17.304 -0.3834 -0.8876  3.3214
 6923TIP3    H242185   3.941   1.055  17.310 -0.6567 -0.7007 -0.3086
 6924TIP3   OH242186   4.581   1.043  12.248 -1.0551 -0.0099 -0.2606
 6924TIP3    H142187   4.584   0.975  12.315  0.0419 -0.1993 -0.4833
 6924TIP3    H242188   4.610   1.123  12.292 -2.2935  0.3213 -0.0116
 6925TIP3   OH242189   2.360   2.727   5.741 -0.6900  0.0852 -0.0786
 6925TIP3    H142190   2.371   2.782   5.663  0.2100 -0.3725 -0.2780
 6925TIP3    H242191   2.359   2.637   5.707  3.6953 -0.4713  0.6917
 6926TIP3   OH242192   0.781   5.038   1.225 -0.1288  0.4628  0.2241
 6926TIP3    H142193   0.787   5.007   1.316 -0.7890 -0.4264 -0.0221
 6926TIP3    H242194   0.772   4.958   1.173 -2.7283  1.0686 -0.3692
 6927TIP3   OH242195   2.944   2.295   2.384 -0.3114  0.0843 -0.4331
 6927TIP3    H142196   3.005   2.369   2.388 -2.1885  1.7234  3.6833
 6927TIP3    H242197   2.999   2.218   2.402  1.1203  0.9565 -0.9023
 6928TIP3   OH242198   1.869   2.509   0.524  0.4430 -1.0317 -0.1233
 6928TIP3    H142199   1.949   2.526   0.474 -1.5362 -0.6959 -3.4568
 6928TIP3    H242200   1.865   2.414   0.530  1.0596 -1.0529  0.0910
 6929TIP3   OH242201   6.155   6.083   2.588  0.1219 -0.3219 -0.3027
 6929TIP3    H142202   6.227   6.147   2.581  0.6972 -0.8918  0.3165
 6929TIP3    H242203   6.117   6.082   2.500 -0.1571  1.1597 -0.2370
 6930TIP3   OH242204   1.121   1.301  13.359 -0.0384  0.6040 -0.5784
 6930TIP3    H142205   1.138   1.233  13.294  1.4212  1.1494 -0.8033
 6930TIP3    H242206   1.204   1.312  13.404 -1.1222 -0.0609  1.7152
 6931TIP3   OH242207   2.956   6.636  13.430  0.4361  0.2723  0.1708
 6931TIP3    H142208   2.989   6.592  13.352  1.0283  0.8303  0.0901
 6931TIP3    H242209   2.969   6.730  13.412 -0.6380  0.4791  0.4036
 6932TIP3   OH242210   3.354   3.231  10.698 -0.3966 -0.0721  0.2039
 6932TIP3    H142211   3.401   3.250  10.617 -0.9890 -0.3559 -0.2099
 6932TIP3    H242212   3.363   3.136  10.710 -1.6915 -0.2919 -0.4146
 6933TIP3   OH242213   4.251   1.899  14.991 -0.1698 -0.1007  0.5140
 6933TIP3    H142214   4.288   1.987  14.999 -0.1090 -0.1075  0.3258
 6933TIP3    H242215   4.157   1.912  15.000 -0.0580 -0.2050  1.9616
 6934TIP3   OH242216   6.708   3.168   1.005  0.2781 -0.4979 -0.3117
 6934TIP3    H142217   6.773   3.126   1.061  1.4067  0.9305 -0.4971
 6934TIP3    H242218   6.731   3.261   1.006 -1.4951 -0.0049 -0.7576
 6935TIP3   OH242219   0.655   1.105  14.877  0.0400  0.4162 -0.8256
 6935TIP3    H142220   0.578   1.138  14.831  0.6252  1.1733 -1.3045
 6935TIP3    H242221   0.643   1.010  14.881 -0.5565  0.4553 -1.5631
 6936TIP3   OH242222   6.178   2.168  15.805 -0.1476 -0.7121 -0.0112
 6936TIP3    H142223   6.183   2.084  15.851  0.4206 -0.2018  0.9078
 6936TIP3    H242224   6.172   2.144  15.712  0.4275 -1.7685  0.1979
 6937TIP3   OH242225   0.376   2.427  11.588  0.9087 -0.0729  0.1472
 6937TIP3    H142226   0.317   2.467  11.651  1.9915 -0.8778  1.7718
 6937TIP3    H242227   0.322   2.364  11.541  0.3947 -0.6193  1.4200
 6938TIP3   OH242228   4.813   0.502  15.929  0.2772 -0.6596  0.2697
 6938TIP3    H142229   4.778   0.450  15.856  1.8354 -0.8785 -0.3665
 6938TIP3    H242230   4.791   0.592  15.907  0.2537 -0.7774 -0.1959
 6939TIP3   OH242231   5.486   4.014  16.781  0.0791  0.5927  0.2455
 6939TIP3    H142232   5.486   3.998  16.876 -0.2823  0.0320  0.1494
 6939TIP3    H242233   5.404   4.061  16.765 -1.1145 -1.4883 -0.1425
 6940TIP3   OH242234   6.206   5.351   3.021 -0.2218 -0.0253 -0.2346
 6940TIP3    H142235   6.128   5.385   3.063 -0.5265  1.0802 -1.6424
 6940TIP3    H242236   6.261   5.428   3.004  0.9184 -0.7096  0.1978
 6941TIP3   OH242237   6.368   4.870  16.773  0.1434 -0.2427  0.3095
 6941TIP3    H142238   6.344   4.781  16.796  0.1091 -0.3778 -0.2329
 6941TIP3    H242239   6.341   4.879  16.682 -2.5019  1.2232  1.1132
 6942TIP3   OH242240   3.555   2.792  13.007 -0.4996  0.0937  0.4432
 6942TIP3    H142241   3.485   2.802  12.943  0.5882 -2.5319 -1.2780
 6942TIP3    H242242   3.509   2.787  13.091 -2.0375  2.3320 -0.1704
 6943TIP3   OH242243   4.572   1.816  14.413 -0.0803 -0.2151 -0.1638
 6943TIP3    H142244   4.477   1.802  14.407 -0.5711  2.4996 -0.0516
 6943TIP3    H242245   4.586   1.839  14.505  1.1299 -2.8450  0.3980
 6944TIP3   OH242246   0.604   3.376  11.951 -0.6113 -0.7787 -0.3402
 6944TIP3    H142247   0.660   3.312  11.994 -2.1940 -2.9387 -1.3660
 6944TIP3    H242248   0.523   3.376  12.001 -1.6851 -1.7570 -1.9836
 6945TIP3   OH242249   2.860   4.970   1.775  0.2381 -0.4842 -0.3635
 6945TIP3    H142250   2.901   4.906   1.833 -0.3226 -0.1750  0.3942
 6945TIP3    H242251   2.866   5.052   1.823 -1.8143 -0.5351  0.0801
 6946TIP3   OH242252   3.749   6.285   1.690  0.1198  0.2728 -0.4758
 6946TIP3    H142253   3.766   6.192   1.676 -0.2886  0.1526 -0.2030
 6946TIP3    H242254   3.828   6.318   1.733 -0.2910 -0.2641  0.7307
 6947TIP3   OH242255   5.258   6.028   2.098 -0.0176  0.1868 -0.3260
 6947TIP3    H142256   5.210   5.946   2.099 -0.1443  0.2585 -0.5074
 6947TIP3    H242257   5.277   6.044   2.006 -0.9365  0.9069 -0.3978
 6948TIP3   OH242258   4.790   1.446   6.593  0.2592  0.1899  0.1191
 6948TIP3    H142259   4.725   1.494   6.542  0.5098 -0.4733 -0.8745
 6948TIP3    H242260   4.807   1.367   6.541  0.9420 -0.2428  0.9711
 6949TIP3   OH242261   4.395   2.608   0.612 -0.1962 -0.3047  0.1154
 6949TIP3    H142262   4.365   2.563   0.534  0.0836 -0.0405 -0.1484
 6949TIP3    H242263   4.317   2.651   0.647 -0.6532 -1.6825  0.8585
 6950TIP3   OH242264   2.646   1.016   3.646  0.1587  0.0401  0.4074
 6950TIP3    H142265   2.639   1.108   3.621 -2.0212 -0.1460  0.1165
 6950TIP3    H242266   2.659   0.969   3.564 -1.2090 -0.0777  0.2268
 6951TIP3   OH242267   5.158   4.313   5.840  0.3144 -0.2419 -0.0191
 6951TIP3    H142268   5.157   4.399   5.883  0.3331  0.1082 -0.7137
 6951TIP3    H242269   5.096   4.260   5.891  0.7978 -0.0252  0.8183
 6952TIP3   OH242270   4.341   5.930   0.959 -0.0058 -0.1515  0.2281
 6952TIP3    H142271   4.332   5.937   1.054 -0.8977 -0.4260  0.1706
 6952TIP3    H242272   4.332   5.836   0.941 -0.5190 -0.0276 -0.1879
 6953TIP3   OH242273   1.352   0.308  17.182 -0.9019 -0.3449 -0.2839
 6953TIP3    H142274   1.334   0.216  17.204  1.7024 -0.4234  2.1950
 6953TIP3    H242275   1.283   0.357  17.227 -1.2399 -1.0269 -0.0375
 6954TIP3   OH242276   1.257   0.740   1.802  0.3639 -0.2889 -0.2731
 6954TIP3    H142277   1.207   0.718   1.723  0.2097 -1.9605  0.2518
 6954TIP3    H242278   1.250   0.662   1.857  0.2771  0.9085  1.5045
 6955TIP3   OH242279   0.482   5.910   1.847  0.0743  0.3120 -0.1971
 6955TIP3    H142280   0.405   5.943   1.894 -0.7959 -1.3914 -0.3432
 6955TIP3    H242281   0.528   5.856   1.912 -0.7519 -1.4686 -1.0181
 6956TIP3   OH242282   3.565   4.833   0.420 -0.3924  0.3638  0.0958
 6956TIP3    H142283   3.520   4.893   0.361  1.2113  1.1396 -0.3923
 6956TIP3    H242284   3.495   4.790   0.468 -1.7162  0.3117 -1.7748
 6957TIP3   OH242285   1.239   6.235  13.700  0.3632 -0.5447  0.3395
 6957TIP3    H142286   1.259   6.184  13.621 -1.1826 -0.9699  0.1787
 6957TIP3    H242287   1.322   6.277  13.723  1.2054 -1.5758 -0.6590
 6958TIP3   OH242288   3.939   3.272  14.421 -0.4009 -0.1909  0.2352
 6958TIP3    H142289   3.875   3.278  14.350  0.5480 -1.2255 -0.7565
 6958TIP3    H242290   3.890   3.234  14.493 -1.2019  0.1540 -0.1118
 6959TIP3   OH242291   4.068   0.640   5.725  0.2024  0.0377 -0.9445
 6959TIP3    H142292   4.064   0.558   5.775  0.1288  0.9358  0.6072
 6959TIP3    H242293   4.103   0.704   5.788 -0.0898  1.2775 -2.0015
 6960TIP3   OH242294   5.731   6.142   5.763 -0.3419  0.2700 -0.0295
 6960TIP3    H142295   5.666   6.108   5.702  0.2886 -1.7743  0.3730
 6960TIP3    H242296   5.690   6.134   5.849 -0.1431  0.4454  0.0838
 6961TIP3   OH242297   3.725   0.879   3.307 -0.5957 -0.0221 -0.1278
 6961TIP3    H142298   3.787   0.815   3.343  1.0227  0.2122 -2.2871
 6961TIP3    H242299   3.770   0.963   3.314 -0.7345  0.1889 -1.5370
 6962TIP3   OH242300   3.678   3.777   4.996  0.3190  0.2056  0.7505
 6962TIP3    H142301   3.643   3.839   5.060  1.9845  0.6659  1.2614
 6962TIP3    H242302   3.726   3.712   5.049  0.5278 -0.2121  0.0632
 6963TIP3   OH242303   6.622   0.157  16.452  0.6831 -0.0633 -0.4993
 6963TIP3    H142304   6.660   0.073  16.477 -1.9178 -1.1609  0.1615
 6963TIP3    H242305   6.688   0.198  16.396  1.8303 -2.8112 -1.3457
 6964TIP3   OH242306   4.284   0.448   4.941 -0.1206 -0.5290  0.6528
 6964TIP3    H142307   4.260   0.379   4.880  2.1106 -1.7458  1.0588
 6964TIP3    H242308   4.261   0.413   5.027  1.0061 -0.7901  0.8599
 6965TIP3   OH242309   0.029   6.345  16.555 -0.1007 -0.3160  0.1103
 6965TIP3    H142310   0.107   6.302  16.590  0.2378 -1.1474 -1.5181
 6965TIP3    H242311  -0.044   6.291  16.587  0.1702 -0.8543 -0.1563
 6966TIP3   OH242312   1.143   5.311  11.650 -0.3464  0.1856  0.4027
 6966TIP3    H142313   1.230   5.283  11.622 -0.1914  1.2130 -0.2003
 6966TIP3    H242314   1.085   5.241  11.621  0.2162 -0.2961  0.4117
 6967TIP3   OH242315   0.054   3.236  10.731 -0.5610 -0.0905 -0.0318
 6967TIP3    H142316   0.130   3.292  10.716 -1.6078  1.0945 -1.1764
 6967TIP3    H242317  -0.021   3.290  10.707 -1.7446 -1.3957  0.5729
 6968TIP3   OH242318   3.634   4.296   3.558 -0.1897  0.3434 -0.2315
 6968TIP3    H142319   3.647   4.361   3.489 -0.1036  0.2453 -0.3075
 6968TIP3    H242320   3.549   4.256   3.538 -0.7609  1.1924  0.4333
 6969TIP3   OH242321   5.172   5.236  13.995 -0.0403  0.2682 -0.5617
 6969TIP3    H142322   5.266   5.226  13.984  0.0712  1.3855 -0.7339
 6969TIP3    H242323   5.138   5.147  13.990  0.9344 -0.0897 -1.1713
 6970TIP3   OH242324   1.526   6.081   2.600 -0.6530  0.4169  0.1054
 6970TIP3    H142325   1.529   5.997   2.644 -0.6464  0.5591  0.3785
 6970TIP3    H242326   1.611   6.122   2.618 -0.0607 -0.1383 -1.2732
 6971TIP3   OH242327   3.231   6.583  16.972  0.1937 -0.2469 -0.0515
 6971TIP3    H142328   3.167   6.553  16.908  0.2565  1.8806 -1.1988
 6971TIP3    H242329   3.299   6.514  16.972 -0.3408 -0.8106 -1.4506
 6972TIP3   OH242330   0.464   4.861   5.813  0.0848 -0.5597  0.2297
 6972TIP3    H142331   0.424   4.843   5.898 -1.6834 -0.0434 -0.4573
 6972TIP3    H242332   0.454   4.956   5.801 -1.8012 -0.9157 -1.5404
 6973TIP3   OH242333   0.125   4.300   0.164  0.1577  0.3161  0.3586
 6973TIP3    H142334   0.217   4.322   0.179  0.8363  0.0582 -2.7233
 6973TIP3    H242335   0.099   4.251   0.242  2.5235  0.7057  1.4729
 6974TIP3   OH242336   4.151   4.884  12.421 -0.2612  0.5481  0.4261
 6974TIP3    H142337   4.117   4.849  12.504  1.8694  2.0357  2.0323
 6974TIP3    H242338   4.213   4.951  12.447  0.4101  1.1578 -2.4328
 6975TIP3   OH242339   5.669   5.243   5.524  0.6123 -0.2961  0.0848
 6975TIP3    H142340   5.652   5.172   5.586 -0.2333 -1.8013 -1.7389
 6975TIP3    H242341   5.597   5.305   5.536  1.2255  0.1641  1.5324
 6976TIP3   OH242342   5.545   2.544   3.258 -0.2461  0.2896  0.3673
 6976TIP3    H142343   5.605   2.520   3.188  0.2590 -0.2073  0.9505
 6976TIP3    H242344   5.457   2.533   3.221 -0.0505  3.1123 -1.2038
 6977TIP3   OH242345   1.556   4.531   3.032 -0.1037  0.3475  0.1988
 6977TIP3    H142346   1.595   4.581   3.104  2.5815 -0.9840 -0.2095
 6977TIP3    H242347   1.623   4.532   2.963 -1.1661 -1.3517 -0.9233
 6978TIP3   OH242348   6.024   3.714   3.549 -0.2679 -0.1074 -0.2310
 6978TIP3    H142349   5.977   3.798   3.557  0.5107  0.1961  2.3039
 6978TIP3    H242350   6.000   3.667   3.629  1.1933 -1.3043 -0.4722
 6979TIP3   OH242351   4.407   1.712   2.950  0.6218 -0.0310 -0.1443
 6979TIP3    H142352   4.320   1.681   2.972  0.6794  0.4157  0.7493
 6979TIP3    H242353   4.441   1.648   2.888  0.5740 -1.5002  1.2922
 6980TIP3   OH242354   3.457   4.613  11.070 -0.3920  0.3380 -0.2912
 6980TIP3    H142355   3.397   4.575  11.006 -1.8718  1.1946  0.5303
 6980TIP3    H242356   3.544   4.596  11.035 -1.0610 -1.8439 -1.0202
 6981TIP3   OH242357   5.282   3.346   2.356  0.2137 -0.6073 -0.6499
 6981TIP3    H142358   5.256   3.367   2.266 -0.4222 -0.3592 -0.4140
 6981TIP3    H242359   5.366   3.390   2.368 -0.5680  0.9203 -0.5289
 6982TIP3   OH242360   1.384   6.338  15.123 -0.2930 -0.5312 -0.4230
 6982TIP3    H142361   1.291   6.356  15.107 -0.6409  0.0476  1.9138
 6982TIP3    H242362   1.412   6.288  15.046 -2.2262  0.2704 -1.7367
 6983TIP3   OH242363   5.548   1.172  16.489 -0.5374 -0.2798  0.2164
 6983TIP3    H142364   5.516   1.198  16.402 -0.5172  0.6840  0.4872
 6983TIP3    H242365   5.512   1.237  16.548 -2.0226 -1.9277  1.2062
 6984TIP3   OH242366   4.852   1.427   4.340  0.3336 -0.5880  0.1075
 6984TIP3    H142367   4.763   1.397   4.361  0.1166 -0.9444 -1.2201
 6984TIP3    H242368   4.860   1.414   4.246  0.9953  1.5490 -0.1836
 6985TIP3   OH242369   1.526   5.462  12.281 -0.5672  0.1705  0.1631
 6985TIP3    H142370   1.575   5.512  12.216 -0.2617  0.6927  0.7850
 6985TIP3    H242371   1.488   5.389  12.232 -0.2292  0.4810 -0.5689
 6986TIP3   OH242372   2.359   0.337   4.951 -0.2308  0.3187 -0.5593
 6986TIP3    H142373   2.411   0.272   4.905 -0.1728  0.8435 -1.2444
 6986TIP3    H242374   2.336   0.295   5.034 -0.8707 -0.8857 -1.3200
 6987TIP3   OH242375   2.354   6.697  14.634  0.2099  0.8065 -0.2601
 6987TIP3    H142376   2.426   6.715  14.574  0.1131 -1.5680 -1.2100
 6987TIP3    H242377   2.286   6.760  14.609  0.9705  1.3065 -1.1555
 6988TIP3   OH242378   1.167   0.291  15.227  0.4895  0.4277 -0.0197
 6988TIP3    H142379   1.257   0.320  15.212  0.4836  0.0037 -0.9315
 6988TIP3    H242380   1.170   0.196  15.222 -0.0009  0.4046  0.0291
 6989TIP3   OH242381   2.611   5.363   0.529 -0.1872 -0.2831 -0.3147
 6989TIP3    H142382   2.557   5.442   0.522  2.4636  1.6836 -0.1871
 6989TIP3    H242383   2.641   5.346   0.440 -0.8473 -1.2934 -0.3657
 6990TIP3   OH242384   3.773   5.909   5.078  0.0214 -0.4867 -0.2542
 6990TIP3    H142385   3.747   5.922   4.987 -1.5530 -0.0609  0.2087
 6990TIP3    H242386   3.818   5.990   5.102 -1.8671  0.5451  0.0473
 6991TIP3   OH242387   5.541   0.001  16.263 -0.3157 -0.3762  0.2315
 6991TIP3    H142388   5.564   0.055  16.188 -0.6744 -1.1005 -0.4239
 6991TIP3    H242389   5.445   0.007  16.269 -0.2275  0.3963  1.2048
 6992TIP3   OH242390   1.642   3.005  13.611 -0.5824  0.4632  0.3382
 6992TIP3    H142391   1.628   3.056  13.691 -0.2141  1.6806 -0.3400
 6992TIP3    H242392   1.673   2.920  13.642 -0.8961  0.7478  1.5020
 6993TIP3   OH242393   5.508   0.329   1.853  0.1304 -0.5462  0.0604
 6993TIP3    H142394   5.591   0.368   1.828 -0.8905  0.8084 -1.4193
 6993TIP3    H242395   5.529   0.238   1.873  1.9039 -0.3085 -0.5870
 6994TIP3   OH242396   2.191   3.136  11.719  0.1256  0.4399 -0.2362
 6994TIP3    H142397   2.122   3.123  11.655  1.0226 -1.1909 -0.9272
 6994TIP3    H242398   2.145   3.161  11.799 -1.2655 -0.5552 -0.6865
 6995TIP3   OH242399   4.095   0.874  13.607 -0.1434  0.5917  0.3619
 6995TIP3    H142400   4.046   0.811  13.554  0.3868 -0.1748  0.7722
 6995TIP3    H242401   4.074   0.959  13.568 -2.6791  0.4241  1.1656
 6996TIP3   OH242402   4.957   6.118  15.815  0.3974 -0.6693 -0.3194
 6996TIP3    H142403   5.011   6.141  15.891  0.2979 -0.9908 -0.1509
 6996TIP3    H242404   5.016   6.129  15.740 -0.1547  1.9961 -0.4626
 6997TIP3   OH242405   4.680   3.162   2.143  0.1528 -0.5239 -0.2127
 6997TIP3    H142406   4.594   3.127   2.118 -1.0494  2.3811 -0.5076
 6997TIP3    H242407   4.673   3.180   2.236  0.6835 -0.8107 -0.1107
 6998TIP3   OH242408   3.398   3.018  15.587 -0.0074  0.6894 -0.3096
 6998TIP3    H142409   3.365   2.946  15.534  0.3561  1.9817 -2.4424
 6998TIP3    H242410   3.485   3.037  15.550  0.6155  1.1571  1.3015
 6999TIP3   OH242411   6.326   5.375   4.051 -0.2196 -0.0268  0.2034
 6999TIP3    H142412   6.300   5.387   4.142  0.8367 -0.2760  0.5493
 6999TIP3    H242413   6.421   5.365   4.054 -0.1860 -0.1750 -0.9143
 7000TIP3   OH242414   0.777   3.816  17.332  0.0514 -0.0494  0.2982
 7000TIP3    H142415   0.685   3.789  17.336 -0.3350  0.9592 -1.0358
 7000TIP3    H242416   0.826   3.734  17.332 -0.9474 -0.6907 -0.8400
 7001TIP3   OH242417   0.781   3.039   3.430 -0.3856 -0.0722 -0.0474
 7001TIP3    H142418   0.849   3.021   3.366  1.2015  3.1495  0.5129
 7001TIP3    H242419   0.825   3.030   3.515 -0.9276  1.0218  0.3638
 7002TIP3   OH242420   5.272   0.795  13.041  0.3159  0.5592  0.3093
 7002TIP3    H142421   5.260   0.705  13.011  1.6072 -0.0326  1.4790
 7002TIP3    H242422   5.336   0.832  12.979  0.6935  0.2888  0.5356
 7003TIP3   OH242423   3.748   4.737  14.844 -0.2705  0.7481 -0.1601
 7003TIP3    H142424   3.791   4.774  14.767  0.2467  2.4791  0.9073
 7003TIP3    H242425   3.667   4.787  14.853 -0.2115  0.7296  0.5490
 7004TIP3   OH242426   4.761   0.834  12.704 -0.3957  0.0243  0.2072
 7004TIP3    H142427   4.761   0.922  12.742 -1.0829 -0.5674  1.6573
 7004TIP3    H242428   4.814   0.782  12.764 -0.4382 -0.6734 -0.3472
 7005TIP3   OH242429   3.740   5.306   2.355  0.3633 -0.3721 -0.5318
 7005TIP3    H142430   3.776   5.365   2.421  1.5351 -1.1887 -0.3980
 7005TIP3    H242431   3.726   5.362   2.278 -0.0135  0.3722  0.0649
 7006TIP3   OH242432   2.971   1.573   4.667 -0.3855 -0.0909  0.1355
 7006TIP3    H142433   2.945   1.551   4.578 -0.6625  2.3207 -0.4544
 7006TIP3    H242434   2.888   1.585   4.713 -0.3278  1.7826 -0.1745
 7007TIP3   OH242435   5.827   5.982   0.435  0.7040 -0.5865 -0.4158
 7007TIP3    H142436   5.747   5.929   0.436  1.1628 -1.2940  0.0195
 7007TIP3    H242437   5.898   5.918   0.433  1.2651  0.0327 -0.7538
 7008TIP3   OH242438   3.839   0.282   5.388  0.1007  0.3162  0.6579
 7008TIP3    H142439   3.807   0.259   5.476 -1.3613  1.3894  0.4485
 7008TIP3    H242440   3.789   0.225   5.329  1.5116 -0.8332  0.5164
 7009TIP3   OH242441   3.499   5.691   0.912  0.3272  0.0945  0.0055
 7009TIP3    H142442   3.523   5.701   1.004 -2.1464  1.1920  0.6259
 7009TIP3    H242443   3.435   5.620   0.911  0.8657 -0.4162 -1.0305
 7010TIP3   OH242444   1.110   0.862   2.024  0.0256 -0.2275 -0.1627
 7010TIP3    H142445   1.152   0.841   1.940 -0.5108 -1.0467 -0.2351
 7010TIP3    H242446   1.082   0.777   2.059 -0.1993  0.1554  0.6141
 7011TIP3   OH242447   5.635   6.290   4.385  0.4642  0.1093  0.1076
 7011TIP3    H142448   5.702   6.222   4.380 -0.2363 -0.5433 -0.8527
 7011TIP3    H242449   5.610   6.305   4.294 -1.2493 -0.2352  0.4867
 7012TIP3   OH242450   0.051   3.657   4.296  0.0744 -0.0476  0.9864
 7012TIP3    H142451  -0.037   3.688   4.319 -0.3826 -2.0945  2.2294
 7012TIP3    H242452   0.109   3.718   4.342 -0.6930  0.8245  0.8380
 7013TIP3   OH242453   2.940   4.736  13.075  0.7738  0.1764 -0.6803
 7013TIP3    H142454   2.926   4.808  13.136  1.2416 -1.6006  1.6829
 7013TIP3    H242455   3.000   4.676  13.121  2.3419 -0.6274 -3.4774
 7014TIP3   OH242456   0.088   5.163   4.606  0.2204 -0.7943  0.0073
 7014TIP3    H142457   0.054   5.083   4.645 -1.3460  0.1131  0.6112
 7014TIP3    H242458   0.010   5.208   4.572  1.2358 -0.3139 -1.8528
 7015TIP3   OH242459   6.691   2.072  12.540 -0.2142 -0.2691 -0.0647
 7015TIP3    H142460   6.751   2.034  12.604  1.4888 -0.6067 -1.7651
 7015TIP3    H242461   6.682   2.004  12.473 -2.3613 -0.1350  0.0172
 7016TIP3   OH242462   5.631   4.898  12.196  0.1442  0.0249  0.1857
 7016TIP3    H142463   5.629   4.823  12.136  1.5485  0.3589 -0.3258
 7016TIP3    H242464   5.671   4.863  12.276  0.7014  0.1823 -0.0155
 7017TIP3   OH242465   5.531   3.131  12.719 -0.5303 -0.0623 -0.3365
 7017TIP3    H142466   5.569   3.108  12.634  0.4265 -0.2839  0.1361
 7017TIP3    H242467   5.462   3.066  12.733 -0.3464 -0.3415 -0.7108
 7018TIP3   OH242468   5.553   0.628  14.657 -0.4629  0.2166 -0.3730
 7018TIP3    H142469   5.486   0.647  14.592  1.2634  1.2638 -1.9435
 7018TIP3    H242470   5.575   0.536  14.642  0.8745  0.7947 -2.2833
 7019TIP3   OH242471   6.068   4.748  17.210 -0.8553 -0.2483 -0.0581
 7019TIP3    H142472   6.008   4.679  17.180  0.1557 -1.4174  0.5422
 7019TIP3    H242473   6.029   4.778  17.292 -0.6873 -0.9406  0.2853
 7020TIP3   OH242474   6.370   4.850  11.766  0.7863 -0.0309  0.5357
 7020TIP3    H142475   6.443   4.889  11.813 -0.0930 -1.8154  3.6547
 7020TIP3    H242476   6.410   4.780  11.713  1.6079  0.8873 -0.0805
 7021TIP3   OH242477   1.714   0.696  14.712  0.2003  0.6198 -0.1122
 7021TIP3    H142478   1.780   0.641  14.670  0.4813  1.6922 -1.1477
 7021TIP3    H242479   1.700   0.656  14.798  1.6337 -0.0635 -0.1642
 7022TIP3   OH242480   0.062   0.043   5.397 -0.3741 -0.3787 -0.3580
 7022TIP3    H142481   0.079   0.134   5.423 -3.0344 -0.5264  2.6018
 7022TIP3    H242482   0.148   0.003   5.390  0.8529  2.1805 -1.1587
 7023TIP3   OH242483   3.643   4.711  13.172 -0.3511 -0.6566 -0.1243
 7023TIP3    H142484   3.547   4.714  13.165 -0.3195  0.9406 -0.2544
 7023TIP3    H242485   3.671   4.799  13.145  1.0955 -0.8505  0.6968
 7024TIP3   OH242486   5.277   6.047  11.484  0.2328  0.5632  0.2650
 7024TIP3    H142487   5.370   6.053  11.462  0.4195  2.4466  1.3512
 7024TIP3    H242488   5.237   6.121  11.438 -1.1287 -1.3474 -1.7862
 7025TIP3   OH242489   1.629   1.307  16.035 -0.0336  0.4944  0.1342
 7025TIP3    H142490   1.551   1.258  16.061 -1.3735  2.3157 -0.2274
 7025TIP3    H242491   1.596   1.394  16.013  1.5310  0.3844 -3.4564
 7026TIP3   OH242492   4.034   0.127   6.256 -0.6276  0.1874  0.2571
 7026TIP3    H142493   4.039   0.038   6.290  1.5158 -0.3390 -1.2475
 7026TIP3    H242494   3.975   0.120   6.180  0.8595 -0.3739 -0.8960
 7027TIP3   OH242495   0.632   2.150   0.202 -0.3718  0.2280 -0.1397
 7027TIP3    H142496   0.561   2.173   0.142 -0.3592 -0.8562 -0.6042
 7027TIP3    H242497   0.595   2.165   0.289  0.0390  3.0450 -0.3673
 7028TIP3   OH242498   3.042   4.341  15.806  0.1557 -0.1553 -0.2542
 7028TIP3    H142499   3.121   4.383  15.771 -0.8464  3.3000  1.2122
 7028TIP3    H242500   3.070   4.303  15.889  0.4725  0.2198 -0.1841
 7029TIP3   OH242501   5.810   3.377  15.454 -0.1807  0.4175  0.2800
 7029TIP3    H142502   5.742   3.377  15.521 -0.4117 -1.3514  0.0919
 7029TIP3    H242503   5.779   3.314  15.388 -0.4210  2.7674 -2.0164
 7030TIP3   OH242504   1.312   4.086   3.964 -0.1237  0.0257  0.5344
 7030TIP3    H142505   1.319   4.164   3.909  3.2064 -0.2510  0.3378
 7030TIP3    H242506   1.324   4.118   4.053  0.3718 -0.1461  0.5323
 7031TIP3   OH242507   3.431   0.019  17.225 -0.9280 -0.6316 -0.3406
 7031TIP3    H142508   3.474  -0.043  17.285 -1.8380 -0.6235  0.3309
 7031TIP3    H242509   3.338   0.001  17.234 -1.1545  0.2739 -0.7735
 7032TIP3   OH242510   5.746   2.032   3.796  0.0432  0.4579  0.2901
 7032TIP3    H142511   5.676   1.978   3.832 -0.9810  2.0811  0.8489
 7032TIP3    H242512   5.714   2.057   3.709  0.0138  1.0102  0.4551
 7033TIP3   OH242513   4.872   2.012   5.205 -0.6973  0.0671  0.2310
 7033TIP3    H142514   4.944   2.060   5.163  0.3159  0.0809  1.9170
 7033TIP3    H242515   4.811   1.994   5.133 -0.8213  3.2623 -0.6262
 7034TIP3   OH242516   4.104   6.261  11.238 -0.5407 -0.4244  0.2876
 7034TIP3    H142517   4.100   6.176  11.282  0.9078 -1.7652 -1.9599
 7034TIP3    H242518   4.192   6.294  11.258 -1.1149  0.6510  1.2021
 7035TIP3   OH242519   2.424   5.987   6.182 -0.8509 -0.3249 -0.4617
 7035TIP3    H142520   2.462   6.043   6.249 -0.9320  1.3303 -1.7453
 7035TIP3    H242521   2.499   5.960   6.128 -0.9567 -0.6005 -0.4745
 7036TIP3   OH242522   6.233   3.144   4.973  0.0143 -0.3139 -0.3550
 7036TIP3    H142523   6.321   3.143   4.935  0.4623  1.2301  0.5110
 7036TIP3    H242524   6.174   3.128   4.899  0.9198  0.9779 -1.4054
 7037TIP3   OH242525   4.284   4.010  16.925  0.1548 -0.3561 -0.6566
 7037TIP3    H142526   4.280   3.915  16.914  0.2205 -0.9645  3.1813
 7037TIP3    H242527   4.377   4.029  16.929  0.1698 -0.5957  0.9840
 7038TIP3   OH242528   5.556   2.442  13.825 -0.0751 -0.4076  0.3391
 7038TIP3    H142529   5.570   2.379  13.754  0.5738 -1.6583  1.5150
 7038TIP3    H242530   5.484   2.405  13.875  0.8057 -0.6597  1.4728
 7039TIP3   OH242531   1.343   2.585   3.982  0.3512 -0.5033  0.4834
 7039TIP3    H142532   1.343   2.500   3.938 -0.6597  0.2662 -1.1266
 7039TIP3    H242533   1.429   2.591   4.024  0.8785 -1.8472 -0.3412
 7040TIP3   OH242534   3.733   5.649  13.219 -0.3743  0.2310 -0.7464
 7040TIP3    H142535   3.663   5.690  13.269 -2.0465 -1.3449 -1.7009
 7040TIP3    H242536   3.700   5.563  13.196  1.5519 -0.2555 -1.9808
 7041TIP3   OH242537   4.718   6.563   5.714 -0.1216  0.5842 -0.0663
 7041TIP3    H142538   4.743   6.501   5.782  1.2025  1.4332  0.2812
 7041TIP3    H242539   4.756   6.646   5.743  0.8213  0.8979 -2.0189
 7042TIP3   OH242540   1.672   0.939  12.408  0.6952  0.4732 -0.3269
 7042TIP3    H142541   1.686   1.028  12.442 -1.0510  0.7716 -0.2594
 7042TIP3    H242542   1.728   0.934  12.331  1.7931  1.1691  0.4031
 7043TIP3   OH242543   1.294   5.586  15.629  0.2647 -0.3035  0.0018
 7043TIP3    H142544   1.199   5.577  15.631  0.1341  0.5828 -1.1578
 7043TIP3    H242545   1.313   5.618  15.541  1.6337 -0.3451  0.2623
 7044TIP3   OH242546   6.463   3.709  13.422 -0.3363 -0.1401  0.3358
 7044TIP3    H142547   6.535   3.726  13.483 -0.6290 -0.5340  0.7934
 7044TIP3    H242548   6.461   3.787  13.366 -0.8228  0.7895  1.5803
 7045TIP3   OH242549   0.718   1.751   1.482  0.0629  1.1916  0.1603
 7045TIP3    H142550   0.642   1.785   1.433 -0.8620 -0.7507  0.1484
 7045TIP3    H242551   0.686   1.740   1.571  0.3260  0.3895  0.1649
 7046TIP3   OH242552   1.747   5.768   4.419  0.5982 -0.1780  0.0150
 7046TIP3    H142553   1.770   5.838   4.358 -0.7042  0.4875  0.2579
 7046TIP3    H242554   1.678   5.719   4.374 -0.9457  0.7958  1.2190
 7047TIP3   OH242555   4.600   0.304   1.646 -0.1432 -0.2648 -0.0459
 7047TIP3    H142556   4.581   0.221   1.604 -0.1722  0.1757 -0.9215
 7047TIP3    H242557   4.683   0.332   1.608 -0.3915  0.3525 -0.1509
 7048TIP3   OH242558   1.111   6.379  11.556 -0.2143 -0.4080  0.0685
 7048TIP3    H142559   1.206   6.379  11.549 -0.0767 -0.9673  1.5545
 7048TIP3    H242560   1.092   6.310  11.619 -1.5893 -0.0979  0.0225
 7049TIP3   OH242561   2.431   2.500   3.323 -0.0578  0.3163 -0.0320
 7049TIP3    H142562   2.522   2.528   3.319  0.5432 -1.2643  1.3548
 7049TIP3    H242563   2.389   2.545   3.250  1.7913  1.1883 -0.6255
 7050TIP3   OH242564   2.263   4.204   2.401 -0.0198  0.2849 -0.1937
 7050TIP3    H142565   2.230   4.290   2.424  4.2080  2.4613 -1.2031
 7050TIP3    H242566   2.330   4.185   2.467  1.2263 -0.7627 -1.6790
 7051TIP3   OH242567   0.240   2.338   1.805 -0.4826  0.4324  0.4706
 7051TIP3    H142568   0.285   2.422   1.814  0.1443  0.1023  0.5216
 7051TIP3    H242569   0.257   2.293   1.888 -1.0048  0.3413  0.5336
 7052TIP3   OH242570   4.239   2.683  15.653 -0.2634 -0.3007  0.3153
 7052TIP3    H142571   4.230   2.644  15.566 -0.2048  1.0496 -0.3214
 7052TIP3    H242572   4.222   2.776  15.640  2.6679  0.4900  1.1735
 7053TIP3   OH242573   2.832   1.238   1.676  0.0142 -0.1932  0.2608
 7053TIP3    H142574   2.814   1.316   1.625 -0.7691 -0.7518 -0.3383
 7053TIP3    H242575   2.900   1.192   1.627 -1.3632 -1.1799 -0.8119
 7054TIP3   OH242576   6.609   5.783   1.276  0.7426 -0.1249  0.2481
 7054TIP3    H142577   6.686   5.739   1.240  0.7395  0.9129 -1.1206
 7054TIP3    H242578   6.642   5.868   1.306  0.2492  0.0644  0.2552
 7055TIP3   OH242579   4.661   1.343  12.173 -0.7447  0.3956  0.2433
 7055TIP3    H142580   4.582   1.382  12.210 -1.1699 -0.9379  0.8262
 7055TIP3    H242581   4.705   1.304  12.249 -0.8341 -1.0388 -0.4035
 7056TIP3   OH242582   6.529   5.433  14.022 -0.0478  0.4363 -0.2269
 7056TIP3    H142583   6.506   5.426  13.929  1.6771 -0.6982 -0.6157
 7056TIP3    H242584   6.470   5.499  14.057 -2.5758 -0.9838 -1.5184
 7057TIP3   OH242585   4.508   5.989   3.365 -0.2676  0.6630 -0.0030
 7057TIP3    H142586   4.582   5.930   3.349 -0.4848  0.5160 -0.5128
 7057TIP3    H242587   4.507   6.047   3.289 -0.3268  1.0371  0.2825
 7058TIP3   OH242588   1.236   2.961   4.838 -0.1410  1.0023 -0.1865
 7058TIP3    H142589   1.168   2.951   4.904 -0.8677 -3.3164 -1.2709
 7058TIP3    H242590   1.308   2.907   4.870  1.2703  2.3719 -0.9231
 7059TIP3   OH242591   3.231   6.745  14.062 -0.0528  0.0358 -0.4312
 7059TIP3    H142592   3.267   6.656  14.066 -0.4802 -0.0971  1.0595
 7059TIP3    H242593   3.288   6.791  14.000 -0.2675 -1.4556 -1.7915
 7060TIP3   OH242594   1.794   3.983   4.050  0.3062 -0.4091  0.3644
 7060TIP3    H142595   1.836   3.965   3.965 -0.3810 -0.1520 -0.0419
 7060TIP3    H242596   1.864   4.016   4.105  0.7673 -0.5870 -0.1038
 7061TIP3   OH242597   0.116   5.705   4.149 -0.2834  0.5255  0.5265
 7061TIP3    H142598   0.151   5.619   4.126  0.5498  0.5149  1.7300
 7061TIP3    H242599   0.021   5.696   4.138 -0.2125 -0.5606  0.6866
 7062TIP3   OH242600   0.512   5.471  15.385 -0.5500 -0.2729 -0.0666
 7062TIP3    H142601   0.500   5.416  15.307 -0.5891  0.0508 -0.2911
 7062TIP3    H242602   0.444   5.538  15.377 -2.0618 -1.5306  1.4035
 7063TIP3   OH242603   0.373   5.701  17.285 -0.4251 -0.3839  0.8258
 7063TIP3    H142604   0.394   5.794  17.283  2.1418 -0.8830 -0.9761
 7063TIP3    H242605   0.287   5.695  17.245 -1.8084  1.3564  3.2833
 7064TIP3   OH242606   4.199   2.739   4.131 -0.0014 -0.3789  0.3864
 7064TIP3    H142607   4.279   2.712   4.176  0.7633 -1.7266 -1.6126
 7064TIP3    H242608   4.229   2.769   4.045 -1.5590 -0.0223 -0.0667
 7065TIP3   OH242609   2.301   1.410   2.064  0.5061 -0.1540 -0.6803
 7065TIP3    H142610   2.322   1.363   1.983  0.5326 -0.7829 -0.3151
 7065TIP3    H242611   2.353   1.367   2.132 -1.1467 -1.0862  0.0656
 7066TIP3   OH242612   3.652   4.314   1.764 -0.0852  0.3135 -0.4747
 7066TIP3    H142613   3.662   4.232   1.717  0.1251 -0.3930  0.7449
 7066TIP3    H242614   3.663   4.382   1.698 -0.0673 -0.6351 -1.4672
 7067TIP3   OH242615   3.633   3.024   1.025  0.0121 -0.1998  0.5951
 7067TIP3    H142616   3.713   2.992   0.985 -1.5151 -0.4636 -2.4930
 7067TIP3    H242617   3.651   3.115   1.047  1.3111 -0.4140  0.4556
 7068TIP3   OH242618   3.057   5.717   0.887 -0.7569  0.0863  0.3562
 7068TIP3    H142619   3.129   5.655   0.902  0.0332  1.0015  0.4374
 7068TIP3    H242620   3.097   5.787   0.835 -1.7130  0.3846  0.0157
 7069TIP3   OH242621   2.806   5.378   3.634  0.7855 -0.0572 -0.0858
 7069TIP3    H142622   2.833   5.429   3.557  1.9968 -1.0705 -0.3623
 7069TIP3    H242623   2.764   5.442   3.691  1.8304  1.1622 -0.6273
 7070TIP3   OH242624   4.971   4.378  15.586  0.2808  0.1988 -0.0354
 7070TIP3    H142625   4.949   4.336  15.669 -0.9168 -1.0871 -0.9664
 7070TIP3    H242626   5.062   4.354  15.569  0.2469 -0.2843  0.4622
 7071TIP3   OH242627   1.654   3.473   0.425 -0.2558 -0.3640 -0.3811
 7071TIP3    H142628   1.585   3.514   0.373 -0.2225  0.3006  0.0878
 7071TIP3    H242629   1.624   3.383   0.438 -1.1327 -0.0255 -0.0015
 7072TIP3   OH242630   6.694   6.025   2.423 -0.3549  0.2690  0.3384
 7072TIP3    H142631   6.777   6.006   2.465 -0.1564  1.2643  0.4187
 7072TIP3    H242632   6.682   5.954   2.359  1.4821  1.1054 -1.0147
 7073TIP3   OH242633   4.036   5.734   3.738  0.1961  0.6430 -0.4736
 7073TIP3    H142634   3.969   5.687   3.787 -0.7043  1.0035 -1.3113
 7073TIP3    H242635   4.064   5.672   3.670 -0.2898  0.9532 -0.9707
 7074TIP3   OH242636   5.923   0.404   5.801  0.4898  0.1055 -0.1478
 7074TIP3    H142637   5.933   0.453   5.720  0.1337  0.0306 -0.2409
 7074TIP3    H242638   5.946   0.466   5.870 -2.5360  1.3250 -0.0569
 7075TIP3   OH242639   2.721   4.116   1.010 -0.6884  0.0950 -0.5239
 7075TIP3    H142640   2.678   4.043   0.966 -0.0771  0.3092 -1.4995
 7075TIP3    H242641   2.777   4.074   1.075  1.3743 -0.4958 -2.5493
 7076TIP3   OH242642   3.816   1.304   4.323 -0.0144  0.0298 -0.1591
 7076TIP3    H142643   3.840   1.284   4.413  0.7787  0.4734 -0.2644
 7076TIP3    H242644   3.740   1.248   4.305 -2.5920  2.5614  1.9724
 7077TIP3   OH242645   1.465   4.728  14.333 -0.3308 -0.1352 -0.2328
 7077TIP3    H142646   1.508   4.743  14.249  1.4570  0.4516  0.7303
 7077TIP3    H242647   1.379   4.770  14.324  0.5858  1.6711 -1.1245
 7078TIP3   OH242648   4.652   0.277  14.617  0.5599  0.2474  0.1256
 7078TIP3    H142649   4.738   0.311  14.642  0.1914  1.9100 -0.7534
 7078TIP3    H242650   4.637   0.310  14.529 -0.1771 -1.6247 -0.5168
 7079TIP3   OH242651   1.999   2.502  12.469  0.1629 -0.0592  0.2498
 7079TIP3    H142652   1.960   2.482  12.384 -0.7390 -0.0705  0.6557
 7079TIP3    H242653   2.051   2.425  12.490 -0.7890 -0.6834  0.3755
 7080TIP3   OH242654   0.171   5.349   1.368 -0.4726 -0.5264  0.1757
 7080TIP3    H142655   0.172   5.445   1.367 -0.0743 -0.5328 -0.3422
 7080TIP3    H242656   0.158   5.327   1.460  0.2031  0.0263  0.4211
 7081TIP3   OH242657   4.091   2.621  17.104  0.0618  0.3189 -0.6025
 7081TIP3    H142658   4.182   2.632  17.131 -0.4345  1.3989  0.7296
 7081TIP3    H242659   4.049   2.579  17.178 -0.5859  0.0516 -1.1111
 7082TIP3   OH242660   2.979   6.540   5.994  0.3391  0.2241 -0.1552
 7082TIP3    H142661   2.931   6.558   5.913  0.7643 -0.9309 -0.6973
 7082TIP3    H242662   2.948   6.605   6.056  1.7777  2.7592 -1.9258
 7083TIP3   OH242663   0.218   2.737   2.136  0.0913 -0.1715 -0.1030
 7083TIP3    H142664   0.145   2.729   2.198  0.3312  0.0874  0.2137
 7083TIP3    H242665   0.190   2.805   2.075  0.1875  0.1334  0.1895
 7084TIP3   OH242666   4.304   2.034  11.358  0.0693  0.0972  0.0048
 7084TIP3    H142667   4.255   2.116  11.351  0.6898  0.5381  0.6521
 7084TIP3    H242668   4.238   1.966  11.370 -0.4018  0.6128  0.3119
 7085TIP3   OH242669   2.876   6.091  13.721  0.4361 -0.0391  0.1123
 7085TIP3    H142670   2.822   6.122  13.648 -0.5509  0.1676  0.9028
 7085TIP3    H242671   2.837   6.131  13.798  1.2333 -0.5538  0.8019
 7086TIP3   OH242672   0.570   4.139   1.579 -0.3773  0.3132 -0.0293
 7086TIP3    H142673   0.645   4.188   1.612 -0.1090 -1.2798  1.9258
 7086TIP3    H242674   0.576   4.147   1.484  0.7953  2.2993  0.1463
 7087TIP3   OH242675   5.724   4.646   2.055  0.0289  0.5038 -0.0016
 7087TIP3    H142676   5.773   4.611   2.130  1.1862 -0.0651 -0.9784
 7087TIP3    H242677   5.711   4.739   2.076  0.4511  0.3815  0.8422
 7088TIP3   OH242678   1.071   0.234   6.489 -0.3588 -0.0574 -0.3823
 7088TIP3    H142679   1.127   0.221   6.412 -1.9353  0.4706 -1.6742
 7088TIP3    H242680   1.063   0.146   6.527 -1.4747 -0.8176 -2.2330
 7089TIP3   OH242681   3.464   5.038  12.421 -0.1216 -0.2659 -0.1875
 7089TIP3    H142682   3.461   5.134  12.421 -0.8316 -0.2308  1.8960
 7089TIP3    H242683   3.489   5.014  12.332  0.2400  1.8572 -0.6975
 7090TIP3   OH242684   0.353   4.041   5.500  0.1289 -1.1017 -0.2034
 7090TIP3    H142685   0.367   3.961   5.450 -0.2820 -3.0367  2.5818
 7090TIP3    H242686   0.441   4.078   5.511  0.3311 -1.1677 -1.3873
 7091TIP3   OH242687   4.780   4.328   3.104  0.0309  0.1507 -0.0138
 7091TIP3    H142688   4.816   4.278   3.177  1.6268  0.9161 -0.2481
 7091TIP3    H242689   4.854   4.375   3.067 -1.2431  2.0350 -0.3532
 7092TIP3   OH242690   2.723   0.550   4.818  0.3907  0.5877 -0.9973
 7092TIP3    H142691   2.656   0.606   4.858 -0.3586  0.2131 -1.7049
 7092TIP3    H242692   2.690   0.461   4.828  1.1226  0.3329 -0.7376
 7093TIP3   OH242693   3.695   5.413  11.338  0.9596 -0.0418 -0.1233
 7093TIP3    H142694   3.732   5.473  11.272  1.1699  0.6764  0.6307
 7093TIP3    H242695   3.705   5.326  11.299  2.5090  0.2220 -0.3904
 7094TIP3   OH242696   1.843   6.155   0.700  0.1795  0.1191 -0.0820
 7094TIP3    H142697   1.859   6.061   0.699  1.2585  0.2778 -1.8436
 7094TIP3    H242698   1.926   6.193   0.731  0.1572  0.5404 -0.5323
 7095TIP3   OH242699   3.877   2.572  13.830 -0.6724  0.8853 -0.5064
 7095TIP3    H142700   3.862   2.631  13.756  0.8789  0.8383 -0.8871
 7095TIP3    H242701   3.900   2.629  13.903  2.0839  0.7831 -1.1875
 7096TIP3   OH242702   3.127   0.377   1.724 -0.8948 -0.0255 -0.0634
 7096TIP3    H142703   3.135   0.394   1.818 -0.5217 -0.4833 -0.0031
 7096TIP3    H242704   3.035   0.355   1.711 -1.6221  2.8035 -0.3013
 7097TIP3   OH242705   2.225   3.048  15.523  0.1128 -0.0653 -0.0329
 7097TIP3    H142706   2.212   3.142  15.519 -1.3865 -0.2391  0.3129
 7097TIP3    H242707   2.148   3.010  15.481  0.9964 -1.1352 -0.7540
 7098TIP3   OH242708   6.627   5.912   0.233  0.1021  0.5506  0.8640
 7098TIP3    H142709   6.583   5.872   0.158 -0.7137  1.3550  0.8918
 7098TIP3    H242710   6.625   6.006   0.214  2.6581  0.5976  0.4134
 7099TIP3   OH242711   3.034   6.021   4.833 -0.6378 -0.1615  0.0585
 7099TIP3    H142712   3.062   6.110   4.812 -0.8566 -0.5984 -2.2667
 7099TIP3    H242713   3.048   6.014   4.928  1.5027  1.5856 -0.0456
 7100TIP3   OH242714   0.653   2.058  11.331  0.0961  0.0286 -0.0496
 7100TIP3    H142715   0.561   2.040  11.316 -0.4609 -0.3759  3.1261
 7100TIP3    H242716   0.695   1.972  11.333  0.8081  0.2511 -2.4641
 7101TIP3   OH242717   0.337   1.022   1.182  0.1678 -0.1571  0.0573
 7101TIP3    H142718   0.364   1.053   1.268 -0.0142  1.2614 -0.3745
 7101TIP3    H242719   0.414   1.037   1.126 -0.4864  1.1688 -0.5302
 7102TIP3   OH242720   3.320   4.888  15.403  0.5695 -0.4921 -0.5054
 7102TIP3    H142721   3.312   4.809  15.457  2.2967 -0.6859 -0.4990
 7102TIP3    H242722   3.278   4.956  15.455 -1.6726 -1.5189 -0.8575
 7103TIP3   OH242723   5.819   2.061  12.955  0.6415 -0.1857 -0.0354
 7103TIP3    H142724   5.778   2.062  13.042 -1.4499 -1.2289 -0.9425
 7103TIP3    H242725   5.750   2.091  12.896  0.9250 -2.5952 -1.7226
 7104TIP3   OH242726   3.178   0.502  11.978 -0.6476 -0.0876  0.0696
 7104TIP3    H142727   3.190   0.578  12.034  0.5304 -1.0754  1.2301
 7104TIP3    H242728   3.091   0.469  12.001 -0.6324  0.1755  0.5184
 7105TIP3   OH242729   5.341   0.205  14.765  0.2674  0.1674 -0.0921
 7105TIP3    H142730   5.410   0.152  14.804  0.2057  0.2554  0.1346
 7105TIP3    H242731   5.371   0.222  14.676  1.3383  1.6382  0.5067
 7106TIP3   OH242732   5.655   6.687   6.242 -0.3647 -0.2032  0.4461
 7106TIP3    H142733   5.708   6.672   6.320  0.0069 -1.4001 -0.0152
 7106TIP3    H242734   5.718   6.712   6.175 -0.7418  1.3761  0.6382
 7107TIP3   OH242735   4.126   3.140  16.962  0.2507  0.4082 -0.6101
 7107TIP3    H142736   4.057   3.198  16.993  1.9587  1.6733  1.0515
 7107TIP3    H242737   4.115   3.059  17.012  0.5168  0.9592  0.3580
 7108TIP3   OH242738   6.200   2.191  16.600  0.4623 -0.8630  0.0364
 7108TIP3    H142739   6.153   2.273  16.611  2.6799  0.6343 -1.0174
 7108TIP3    H242740   6.281   2.215  16.555  1.7301 -3.4572  0.7321
 7109TIP3   OH242741   0.580   4.736   1.825  0.9944  0.0055  0.2308
 7109TIP3    H142742   0.661   4.686   1.824  0.4490 -0.9748  1.6924
 7109TIP3    H242743   0.524   4.690   1.887 -0.5659  0.8546 -0.4772
 7110TIP3   OH242744   4.566   5.045  14.780 -0.2447 -0.5024 -0.1290
 7110TIP3    H142745   4.502   4.987  14.821 -0.6139 -0.6882 -0.9514
 7110TIP3    H242746   4.517   5.124  14.757  0.2046  0.0683  0.7736
 7111TIP3   OH242747   3.948   5.387  15.162  0.1815 -0.2777  0.4091
 7111TIP3    H142748   3.907   5.443  15.096 -1.1003 -1.8174 -0.1583
 7111TIP3    H242749   3.954   5.442  15.240 -0.8229  0.7221 -0.1929
 7112TIP3   OH242750   2.007   3.355   3.075  0.2779 -0.4223  0.2736
 7112TIP3    H142751   2.068   3.409   3.025 -0.7581  1.2586  0.7484
 7112TIP3    H242752   2.029   3.372   3.167  1.5917 -2.8122  0.4913
 7113TIP3   OH242753   5.462   5.230  11.853 -0.2085 -0.1270  0.7470
 7113TIP3    H142754   5.400   5.172  11.899 -0.9597 -1.0824 -1.3449
 7113TIP3    H242755   5.424   5.317  11.861 -1.7018 -0.6479 -0.1889
 7114TIP3   OH242756   5.045   1.561  12.335 -0.1118 -0.1588  0.3770
 7114TIP3    H142757   4.958   1.583  12.368 -0.7654 -1.6606 -0.2779
 7114TIP3    H242758   5.105   1.610  12.392 -1.3783  1.2559  0.5547
 7115TIP3   OH242759   6.724   5.948  16.196  0.3712 -0.4073  0.6179
 7115TIP3    H142760   6.662   5.925  16.264  1.0494 -0.3146  1.2820
 7115TIP3    H242761   6.780   6.015  16.236  1.2279 -0.8697  0.2278
 7116TIP3   OH242762   2.461   2.312  13.321  0.4385  0.1979 -0.0918
 7116TIP3    H142763   2.431   2.368  13.392  0.2612  0.6239 -0.4969
 7116TIP3    H242764   2.556   2.322  13.321  0.4424  0.1698  0.1023
 7117TIP3   OH242765   2.551   1.892   3.688  0.2523 -0.0113 -0.1364
 7117TIP3    H142766   2.627   1.845   3.654  1.0516  0.2178  1.2637
 7117TIP3    H242767   2.513   1.834   3.754  0.1171  0.4983  0.2461
 7118TIP3   OH242768   5.889   3.526   5.776  0.2536 -0.4974  0.3640
 7118TIP3    H142769   5.815   3.498   5.829  1.4734  0.3148  2.6358
 7118TIP3    H242770   5.908   3.614   5.806  2.0139 -0.6089 -0.3026
 7119TIP3   OH242771   5.791   3.410   1.495 -0.4594 -0.4095 -0.2421
 7119TIP3    H142772   5.868   3.360   1.522 -0.9864 -0.7255  0.7297
 7119TIP3    H242773   5.726   3.343   1.472 -0.7063 -0.1636 -0.2705
 7120TIP3   OH242774   0.974   4.164  14.675  0.0077 -0.2615  0.0953
 7120TIP3    H142775   0.946   4.243  14.721 -0.0323  0.2833 -0.8387
 7120TIP3    H242776   1.060   4.144  14.712  0.7251  1.1281 -0.7171
 7121TIP3   OH242777   3.284   3.110  16.984 -0.1279 -0.4818 -0.2115
 7121TIP3    H142778   3.244   3.059  16.914 -0.7446 -0.7552  0.3337
 7121TIP3    H242779   3.219   3.175  17.007  0.8675  0.9503 -1.2842
 7122TIP3   OH242780   1.351   6.301  15.597 -0.6128  0.1921 -0.1083
 7122TIP3    H142781   1.439   6.286  15.563 -0.4488  1.9679 -0.5951
 7122TIP3    H242782   1.293   6.281  15.524 -0.5956 -0.6309  0.0991
 7123TIP3   OH242783   4.459   0.313  15.501 -0.5697 -0.8598 -0.8257
 7123TIP3    H142784   4.517   0.243  15.529 -0.8719 -0.6325  0.4385
 7123TIP3    H242785   4.424   0.284  15.416  0.1093 -1.7383 -0.8077
 7124TIP3   OH242786   6.305   3.452  14.335  0.1619 -0.0081 -0.1453
 7124TIP3    H142787   6.392   3.476  14.368  1.7837 -1.0550 -3.2717
 7124TIP3    H242788   6.303   3.486  14.245 -3.2276  1.0833  0.2104
 7125TIP3   OH242789   3.744   3.635  15.924 -0.3304 -0.7813 -0.5959
 7125TIP3    H142790   3.815   3.610  15.982  0.7671  0.1654 -1.4720
 7125TIP3    H242791   3.770   3.602  15.838 -1.3231 -1.0826 -0.7928
 7126TIP3   OH242792   0.464   4.628   2.086 -0.2889 -0.2710  0.4753
 7126TIP3    H142793   0.412   4.548   2.073 -1.2230  0.7568 -3.1779
 7126TIP3    H242794   0.399   4.696   2.105  0.0739  0.3115 -0.3131
 7127TIP3   OH242795   2.053   1.866  12.618 -0.1095 -0.4292 -0.0063
 7127TIP3    H142796   1.986   1.932  12.599  1.5704  1.7353  1.1257
 7127TIP3    H242797   2.109   1.907  12.683  0.6728 -3.2860  1.2878
 7128TIP3   OH242798   6.165   5.450   4.580  0.2330 -0.5827  0.1915
 7128TIP3    H142799   6.238   5.394   4.555 -0.6087 -1.6262 -0.0250
 7128TIP3    H242800   6.189   5.485   4.666  0.4225 -1.9638  0.7261
 7129TIP3   OH242801   0.599   2.221  12.323  0.1880 -0.5052 -0.9318
 7129TIP3    H142802   0.664   2.172  12.371 -1.1476 -2.2879 -0.8616
 7129TIP3    H242803   0.612   2.195  12.231 -1.3632 -2.0851 -0.7468
 7130TIP3   OH242804   1.139   2.652  13.424  0.1648  0.3415 -0.2759
 7130TIP3    H142805   1.232   2.656  13.398  0.3393 -1.7727 -0.1496
 7130TIP3    H242806   1.108   2.742  13.416  2.1516  1.0439 -0.6293
 7131TIP3   OH242807   3.925   0.477  13.480  0.0443  0.1392  0.5784
 7131TIP3    H142808   3.850   0.510  13.431  0.2856  2.1438  1.4439
 7131TIP3    H242809   4.001   0.508  13.431  0.2755  1.0180  1.4409
 7132TIP3   OH242810   5.818   2.728  12.298  0.0520  0.2557 -0.3796
 7132TIP3    H142811   5.755   2.724  12.370 -1.5311  0.3617 -1.6969
 7132TIP3    H242812   5.859   2.815  12.306  0.6548 -0.1209  0.9545
 7133TIP3   OH242813   0.945   1.521  16.421  0.0469 -0.7647 -0.0866
 7133TIP3    H142814   0.850   1.526  16.419 -0.1245 -2.5059  1.0981
 7133TIP3    H242815   0.964   1.438  16.465  2.1192  0.8197  2.2903
 7134TIP3   OH242816   6.451   3.261   0.936  0.3722  0.0395  0.2327
 7134TIP3    H142817   6.540   3.228   0.954  0.1645 -0.4177  0.4589
 7134TIP3    H242818   6.418   3.205   0.866 -1.3411 -2.7998  3.0110
 7135TIP3   OH242819   5.070   6.427   3.901  0.0608 -0.4844  0.1289
 7135TIP3    H142820   5.050   6.497   3.839 -1.3218 -0.1090  0.9576
 7135TIP3    H242821   5.162   6.442   3.925  0.4047 -0.2184 -1.2666
 7136TIP3   OH242822   2.742   4.514   4.535  0.2736 -0.3406  0.3631
 7136TIP3    H142823   2.772   4.601   4.506 -0.9076 -0.0561 -0.1028
 7136TIP3    H242824   2.670   4.493   4.475 -0.4325 -0.9817  1.4032
 7137TIP3   OH242825   4.268   5.359   0.981  0.4282  0.0980  0.0870
 7137TIP3    H142826   4.208   5.430   1.002  0.6196 -0.2647  2.0674
 7137TIP3    H242827   4.349   5.403   0.956  0.3589  0.5778  0.6890
 7138TIP3   OH242828   5.155   0.917   2.675  0.4012  0.0230 -0.7165
 7138TIP3    H142829   5.192   0.983   2.617  0.0086 -0.3486 -1.3976
 7138TIP3    H242830   5.217   0.844   2.671  1.1117  0.5311  0.4468
 7139TIP3   OH242831   0.844   5.038  17.060 -0.7771 -0.0186 -0.0093
 7139TIP3    H142832   0.909   5.022  16.991 -0.2036 -0.7293  0.6895
 7139TIP3    H242833   0.768   4.986  17.034 -1.2514  1.1231 -1.0407
 7140TIP3   OH242834   6.604   1.099   5.818 -0.0782  0.0823  0.2548
 7140TIP3    H142835   6.623   1.158   5.745  1.8623 -0.4651  0.2734
 7140TIP3    H242836   6.682   1.045   5.827 -1.6683 -2.3186  0.4479
 7141TIP3   OH242837   0.021   4.424  16.415 -0.3792 -0.5689 -0.3454
 7141TIP3    H142838  -0.045   4.354  16.407  1.4751 -2.3526 -0.8574
 7141TIP3    H242839  -0.023   4.502  16.382 -2.3516 -1.6024 -0.3237
 7142TIP3   OH242840   5.012   0.297   0.722 -0.0376 -0.3375 -0.4142
 7142TIP3    H142841   5.032   0.298   0.816  1.7442 -0.0344 -0.7728
 7142TIP3    H242842   4.970   0.212   0.708 -1.3145  0.0318  0.8123
 7143TIP3   OH242843   5.424   1.269   2.604 -0.0182 -0.1709 -0.0468
 7143TIP3    H142844   5.412   1.273   2.509 -0.0681  1.0001 -0.0043
 7143TIP3    H242845   5.336   1.257   2.639  0.0530 -1.1203 -0.1536
 7144TIP3   OH242846   2.151   3.036   2.346 -0.3459 -0.5442 -0.1406
 7144TIP3    H142847   2.121   2.949   2.372 -1.9778  0.4591  1.6090
 7144TIP3    H242848   2.231   3.050   2.396 -0.1863 -0.9559 -0.2771
 7145TIP3   OH242849   4.533   1.873   1.561 -0.6742  0.5395  0.0935
 7145TIP3    H142850   4.477   1.838   1.492  0.8209 -1.4198 -0.2226
 7145TIP3    H242851   4.509   1.823   1.639  1.8109 -1.8206 -0.4658
 7146TIP3   OH242852   0.077   4.539  12.941  0.0544 -0.5038 -0.6072
 7146TIP3    H142853   0.020   4.494  13.004  0.1589 -0.8791 -0.7788
 7146TIP3    H242854   0.147   4.576  12.995 -0.8067  0.7164 -0.2798
 7147TIP3   OH242855   5.920   3.701  16.539 -0.1095 -0.2471 -0.0345
 7147TIP3    H142856   5.905   3.776  16.481 -1.7613 -0.8432 -0.4324
 7147TIP3    H242857   6.008   3.671  16.517 -0.7899 -0.6419 -2.5038
 7148TIP3   OH242858   0.181   1.168  15.301  0.1682 -0.2097 -0.9391
 7148TIP3    H142859   0.194   1.263  15.292 -0.5281  0.0697  0.6373
 7148TIP3    H242860   0.089   1.159  15.324 -0.4350 -1.4951 -3.4915
 7149TIP3   OH242861   3.193   3.794  14.549 -0.0972  0.0124  0.2584
 7149TIP3    H142862   3.240   3.722  14.507  1.5743  0.2429  1.6452
 7149TIP3    H242863   3.254   3.867  14.546 -0.9349  0.7477  0.8481
 7150TIP3   OH242864   5.745   3.441  16.363 -0.0752 -0.5032  0.1471
 7150TIP3    H142865   5.828   3.464  16.405 -0.2749 -1.5230  1.1477
 7150TIP3    H242866   5.758   3.464  16.271  0.8472  0.5630  0.5158
 7151TIP3   OH242867   3.214   6.012  16.564 -0.3728  0.4465 -0.4720
 7151TIP3    H142868   3.245   6.038  16.651 -1.9159  1.4900 -0.2036
 7151TIP3    H242869   3.182   5.923  16.576 -0.6462  0.6109  0.0448
 7152TIP3   OH242870   1.404   5.435   4.366 -0.5949 -0.4206 -0.0680
 7152TIP3    H142871   1.467   5.496   4.326  0.1677 -1.2788 -0.2047
 7152TIP3    H242872   1.432   5.428   4.457 -0.4788 -0.8076 -0.1309
 7153TIP3   OH242873   4.495   1.707  12.126 -0.2480 -0.0363 -0.1352
 7153TIP3    H142874   4.569   1.650  12.105  0.5248  0.7898  0.2809
 7153TIP3    H242875   4.467   1.743  12.041  1.2123  1.2879 -0.1144
 7154TIP3   OH242876   6.041   0.935  11.665 -0.4599  0.1938 -0.5220
 7154TIP3    H142877   6.013   1.011  11.716 -1.9987 -0.7843  0.1710
 7154TIP3    H242878   6.053   0.968  11.576 -1.7125  1.1316 -0.3642
 7155TIP3   OH242879   1.834   3.105  15.128  0.3651  0.2042 -0.3230
 7155TIP3    H142880   1.785   3.042  15.181  0.9482  0.9700  1.1808
 7155TIP3    H242881   1.919   3.113  15.172  0.6564  1.3018 -1.0357
 7156TIP3   OH242882   2.335   3.364   2.257  0.2492  0.1202 -0.2103
 7156TIP3    H142883   2.370   3.377   2.345  2.0670 -0.8937 -0.7235
 7156TIP3    H242884   2.356   3.273   2.236  0.9619  0.6707 -2.1203
 7157TIP3   OH242885   5.922   1.906  15.057 -0.5091  0.6641 -0.1735
 7157TIP3    H142886   5.944   1.930  14.967  1.2729  0.6813  0.2326
 7157TIP3    H242887   5.858   1.972  15.084 -1.9494 -0.0003 -1.7660
 7158TIP3   OH242888   1.956   6.388  14.712 -0.0291 -0.0792  0.0482
 7158TIP3    H142889   1.991   6.331  14.643  1.7044  1.6739 -0.6172
 7158TIP3    H242890   1.960   6.335  14.792  1.6130 -0.8839 -0.5283
 7159TIP3   OH242891   3.826   2.694   0.830 -0.2276  0.6359  0.5032
 7159TIP3    H142892   3.763   2.624   0.815  1.0297 -0.2786 -0.8242
 7159TIP3    H242893   3.799   2.734   0.912 -1.7278 -0.5869  0.6461
 7160TIP3   OH242894   4.938   0.767  16.189  0.2234 -0.0971 -0.0735
 7160TIP3    H142895   4.949   0.816  16.270 -1.0055 -0.0707  0.0990
 7160TIP3    H242896   4.953   0.831  16.119 -2.2820  0.8015  0.1442
 7161TIP3   OH242897   6.471   1.329   0.407 -0.0569  0.1387  0.1533
 7161TIP3    H142898   6.389   1.306   0.364  0.5100 -3.0895  0.5443
 7161TIP3    H242899   6.536   1.326   0.338  0.0921  0.1148  0.2946
 7162TIP3   OH242900   3.547   3.483   2.906 -0.0325  0.6106  0.7160
 7162TIP3    H142901   3.580   3.433   2.832 -0.4544 -0.7490  1.4155
 7162TIP3    H242902   3.481   3.542   2.868 -1.0568 -0.8518  0.1489
 7163TIP3   OH242903   4.105   0.613   3.594 -0.4615  0.0242 -0.3280
 7163TIP3    H142904   4.182   0.628   3.540 -0.1949  0.7148  0.2338
 7163TIP3    H242905   4.109   0.520   3.618  1.2906  0.4966  1.3763
 7164TIP3   OH242906   4.618   5.537  12.761 -0.1729 -0.6386  0.1933
 7164TIP3    H142907   4.580   5.546  12.673 -0.7418  0.5006  0.5422
 7164TIP3    H242908   4.607   5.623  12.801  1.0536 -0.8357  1.0115
 7165TIP3   OH242909   1.137   4.836  15.313 -0.0276  0.1467  0.2091
 7165TIP3    H142910   1.156   4.769  15.248 -2.2745 -1.0269  0.6469
 7165TIP3    H242911   1.165   4.918  15.272  0.8170 -0.8163 -1.2263
 7166TIP3   OH242912   4.116   4.787  15.753  0.0493 -0.3184 -0.5276
 7166TIP3    H142913   4.187   4.846  15.728 -1.8449  1.8373 -1.1019
 7166TIP3    H242914   4.086   4.821  15.837 -2.0015  0.5157 -1.5338
 7167TIP3   OH242915   1.010   5.454   4.270 -0.2260  0.0093 -0.0779
 7167TIP3    H142916   1.026   5.363   4.297  0.4931 -0.1524 -0.9906
 7167TIP3    H242917   0.934   5.448   4.212  0.2244 -0.1128 -0.6638
 7168TIP3   OH242918   4.714   3.960   5.105  0.9090 -0.0673 -0.3424
 7168TIP3    H142919   4.630   4.005   5.114  0.6300 -0.7274  0.4696
 7168TIP3    H242920   4.778   4.030   5.093  0.2762  0.4537 -0.7996
 7169TIP3   OH242921   2.197   6.263  16.964 -0.0120  0.9238  0.2154
 7169TIP3    H142922   2.257   6.266  17.039  0.2083  0.7656  0.0462
 7169TIP3    H242923   2.185   6.355  16.939 -0.5645  1.0194  0.8197
 7170TIP3   OH242924   2.308   0.486  15.492  0.0164  0.0971 -0.4702
 7170TIP3    H142925   2.299   0.579  15.514  1.2251  0.1371 -0.0984
 7170TIP3    H242926   2.389   0.481  15.441  0.5414 -0.9014  0.4252
 7171TIP3   OH242927   0.337   1.486   1.920  0.1908 -0.1310  0.3339
 7171TIP3    H142928   0.431   1.490   1.900  0.4861  0.8398  1.8165
 7171TIP3    H242929   0.305   1.574   1.904 -0.5028 -0.4684 -0.2175
 7172TIP3   OH242930   1.816   5.633  14.805 -0.1892  0.2366  0.1547
 7172TIP3    H142931   1.758   5.685  14.749 -1.6397 -0.7597  0.6446
 7172TIP3    H242932   1.841   5.558  14.751  0.8968  0.7890 -0.1402
 7173TIP3   OH242933   4.688   3.842   0.469  0.4421  0.3854  0.4309
 7173TIP3    H142934   4.677   3.836   0.374 -0.5176 -0.4002  0.5707
 7173TIP3    H242935   4.782   3.845   0.482  0.7239 -2.0286 -0.4382
 7174TIP3   OH242936   5.955   1.117   6.619  0.2419  0.0933  0.1240
 7174TIP3    H142937   5.911   1.170   6.686  2.5902  0.3781  1.5424
 7174TIP3    H242938   6.001   1.180   6.564  0.4996 -0.2874 -0.1064
 7175TIP3   OH242939   5.173   5.997  14.771 -0.4017  0.6580 -0.5900
 7175TIP3    H142940   5.108   6.056  14.808 -0.3899  1.3733 -1.6509
 7175TIP3    H242941   5.145   5.985  14.680  0.1063 -0.2485 -0.6383
 7176TIP3   OH242942   4.193   6.253   6.202 -0.0211 -0.5645 -0.5133
 7176TIP3    H142943   4.179   6.314   6.275  1.7539 -2.2320  1.3233
 7176TIP3    H242944   4.183   6.308   6.124  1.6727  2.1809  1.0120
 7177TIP3   OH242945   5.501   0.073   2.204  0.0910  0.8248 -0.1168
 7177TIP3    H142946   5.455  -0.010   2.197 -1.6519  1.8704 -2.1879
 7177TIP3    H242947   5.548   0.082   2.121 -0.0134  2.0531 -0.0596
 7178TIP3   OH242948   3.965   4.762   4.201  0.1370  0.5984 -0.2232
 7178TIP3    H142949   3.902   4.792   4.267 -0.0893 -1.0441  0.3580
 7178TIP3    H242950   3.979   4.838   4.145 -1.4159  1.3707  0.3715
 7179TIP3   OH242951   4.015   5.942   1.245 -0.2262 -0.8379  0.3128
 7179TIP3    H142952   4.024   5.962   1.338  0.5284 -0.6694  0.2058
 7179TIP3    H242953   4.030   6.026   1.201  1.4868 -1.3116 -0.0624
 7180TIP3   OH242954   3.193   3.904   0.833 -0.1427  0.0807 -0.1209
 7180TIP3    H142955   3.283   3.871   0.838 -0.1550  0.1404  0.5487
 7180TIP3    H242956   3.151   3.848   0.768  0.2754 -0.1830 -0.1728
 7181TIP3   OH242957   0.093   1.863   5.209 -0.0523 -0.1468 -0.1190
 7181TIP3    H142958   0.007   1.904   5.198  0.7212  1.0704 -2.0140
 7181TIP3    H242959   0.156   1.935   5.197  1.2648 -0.7013  2.6768
 7182TIP3   OH242960   4.488   0.257  14.854  0.4689  0.5643  0.8420
 7182TIP3    H142961   4.549   0.293  14.790 -0.7062  2.1200  0.5270
 7182TIP3    H242962   4.544   0.216  14.920  1.7008 -0.8705 -1.0214
 7183TIP3   OH242963   4.105   0.911  11.510 -0.4843  0.8406  0.5864
 7183TIP3    H142964   4.130   0.963  11.433 -0.3252  0.7867  0.6024
 7183TIP3    H242965   4.020   0.947  11.535 -1.6756 -0.6721 -1.0108
 7184TIP3   OH242966   1.800   1.125   2.382  0.1750 -0.1100 -0.1777
 7184TIP3    H142967   1.749   1.048   2.358  1.1857 -1.0471  0.5692
 7184TIP3    H242968   1.777   1.191   2.317  0.2069 -1.4388 -1.5862
 7185TIP3   OH242969   3.593   5.733   5.634  0.1637 -0.3046 -0.2546
 7185TIP3    H142970   3.554   5.662   5.685 -0.3288 -0.2166 -0.5113
 7185TIP3    H242971   3.603   5.696   5.546 -0.4297  0.0626 -0.4794
 7186TIP3   OH242972   6.230   0.615  13.287 -0.1442  0.1364 -0.0830
 7186TIP3    H142973   6.154   0.672  13.301 -1.0577 -0.3837 -2.5268
 7186TIP3    H242974   6.192   0.532  13.258  1.2864 -0.9208  0.9307
 7187TIP3   OH242975   3.552   4.984   1.194 -0.1827 -0.6112 -0.6159
 7187TIP3    H142976   3.495   5.047   1.238  1.4628 -1.6378  3.4934
 7187TIP3    H242977   3.495   4.938   1.133 -3.4309 -0.4662  2.0209
 7188TIP3   OH242978   0.454   2.806   4.191  0.4788 -0.0793 -0.0157
 7188TIP3    H142979   0.497   2.824   4.274  1.3622 -0.2456 -0.4251
 7188TIP3    H242980   0.363   2.787   4.214  0.5480  0.5944  0.8341
 7189TIP3   OH242981   6.477   6.045   4.203  0.2030  0.3046 -0.0492
 7189TIP3    H142982   6.491   6.139   4.215  1.9849  0.2012 -0.9112
 7189TIP3    H242983   6.537   6.004   4.266 -0.7645 -0.2687  0.5173
 7190TIP3   OH242984   4.496   2.675   3.005 -0.1480 -0.3091  0.0547
 7190TIP3    H142985   4.423   2.731   3.032  0.2046 -0.0217  0.4326
 7190TIP3    H242986   4.478   2.655   2.913 -1.0531 -0.7961  0.3204
 7191TIP3   OH242987   6.609   6.735  11.652 -0.1796  0.1245  0.8767
 7191TIP3    H142988   6.534   6.731  11.592  0.8105  0.1983 -0.4067
 7191TIP3    H242989   6.657   6.655  11.635 -0.0755 -0.0264  1.8594
 7192TIP3   OH242990   2.156   0.826  11.670 -0.0410  0.1682 -0.1191
 7192TIP3    H142991   2.183   0.742  11.707 -0.8135  0.4668  1.1714
 7192TIP3    H242992   2.067   0.811  11.638 -0.3686  0.6276  0.5731
 7193TIP3   OH242993   1.884   1.432  15.549 -0.0985  0.0208 -0.3415
 7193TIP3    H142994   1.845   1.420  15.636 -0.9713  0.4070 -0.6662
 7193TIP3    H242995   1.963   1.483  15.565  1.6340 -2.7004  0.6230
 7194TIP3   OH242996   6.359   4.359   1.264  0.0077  0.4602 -0.3265
 7194TIP3    H142997   6.358   4.437   1.209 -0.5418 -0.0530 -1.0725
 7194TIP3    H242998   6.379   4.391   1.352 -1.2456  1.5802 -0.4196
 7195TIP3   OH242999   2.026   5.751  13.649  0.0633  0.1499 -0.5273
 7195TIP3    H143000   2.087   5.687  13.612 -0.1550 -0.6525  0.4528
 7195TIP3    H243001   1.943   5.734  13.603  0.2002  0.2346 -0.8043
 7196TIP3   OH243002   1.970   2.790   2.196 -0.2846 -0.4669 -0.3819
 7196TIP3    H143003   1.930   2.876   2.203  1.0667  0.0730  3.7387
 7196TIP3    H243004   1.899   2.732   2.168 -2.0230  1.5028 -0.2589
 7197TIP3   OH243005   3.022   6.318  16.564  0.2578 -0.6870 -0.3772
 7197TIP3    H143006   3.022   6.243  16.505  0.4129  0.0206 -1.2978
 7197TIP3    H243007   2.974   6.386  16.517  3.0920  0.9510 -1.1238
 7198TIP3   OH243008   0.637   2.216   4.970 -0.2038  0.0723  0.0148
 7198TIP3    H143009   0.658   2.276   4.899 -2.9692  0.6828 -0.4089
 7198TIP3    H243010   0.560   2.168   4.939 -0.6484 -0.6391  2.0306
 7199TIP3   OH243011   1.103   2.978   1.848 -0.1979 -0.2080 -0.4837
 7199TIP3    H143012   1.141   3.033   1.917 -1.6347 -0.1807  0.3205
 7199TIP3    H243013   1.159   2.994   1.772 -0.5117  2.3716 -0.2832
 7200TIP3   OH243014   2.973   2.254  12.024 -0.1947 -0.1444  0.9210
 7200TIP3    H143015   2.993   2.167  12.057 -0.2631 -0.6371 -0.2619
 7200TIP3    H243016   2.931   2.238  11.939 -0.6716  1.0246  0.9184
 7201TIP3   OH243017   0.186   6.490   2.926 -0.3323  0.0590 -0.2027
 7201TIP3    H143018   0.198   6.443   3.008  1.9033 -1.6350 -1.3884
 7201TIP3    H243019   0.238   6.570   2.936 -0.9613  0.4046  0.3961
 7202TIP3   OH243020   1.687   4.712   3.234 -0.3653  0.6215  0.0584
 7202TIP3    H143021   1.774   4.750   3.248  0.0419 -0.2606 -0.0164
 7202TIP3    H243022   1.637   4.739   3.311  1.2519 -2.4408  2.4551
 7203TIP3   OH243023   2.244   6.507   1.633 -0.1117 -0.6562 -0.2220
 7203TIP3    H143024   2.264   6.525   1.541 -1.1875 -1.7909 -0.6984
 7203TIP3    H243025   2.152   6.479   1.632 -0.5576  0.6232  1.3810
 7204TIP3   OH243026   6.533   3.804  11.410  0.5422 -0.1363  0.5923
 7204TIP3    H143027   6.541   3.804  11.505  0.1723 -1.1729  0.6410
 7204TIP3    H243028   6.439   3.816  11.395  0.3728 -1.4568  0.4222
 7205TIP3   OH243029   4.700   1.343  12.978  0.4932 -0.8352 -0.0864
 7205TIP3    H143030   4.782   1.373  12.940  1.2189  1.5308  2.9464
 7205TIP3    H243031   4.636   1.411  12.954 -0.1276 -1.6211 -0.7298
 7206TIP3   OH243032   6.602   0.166   1.865  0.1820 -0.0993  0.3131
 7206TIP3    H143033   6.628   0.123   1.784 -0.2312 -0.7624  0.5259
 7206TIP3    H243034   6.683   0.179   1.913  0.3055 -0.6935  0.2684
 7207TIP3   OH243035   2.612   1.395  16.700 -0.5839  0.3753 -0.4724
 7207TIP3    H143036   2.589   1.305  16.675 -0.7075  0.6763 -1.4500
 7207TIP3    H243037   2.566   1.408  16.783 -0.7166 -0.3976 -0.4097
 7208TIP3   OH243038   4.451   3.565  13.938 -0.1429 -0.3576  0.4496
 7208TIP3    H143039   4.360   3.541  13.952  0.6462 -3.2806  1.2891
 7208TIP3    H243040   4.497   3.531  14.014  1.9742 -1.1471 -1.0904
 7209TIP3   OH243041   1.698   2.744  12.743  0.6350  0.2030 -1.0069
 7209TIP3    H143042   1.677   2.653  12.722  0.6934  0.4908 -2.3867
 7209TIP3    H243043   1.779   2.739  12.792  0.3640 -0.5232 -0.6147
 7210TIP3   OH243044   4.356   6.546   5.059  0.2149 -0.5714 -0.0820
 7210TIP3    H143045   4.360   6.483   4.986 -0.0238 -1.0670  0.3311
 7210TIP3    H243046   4.274   6.525   5.104 -0.3522  0.6609 -0.4968
 7211TIP3   OH243047   1.188   2.505  15.494 -0.3489  0.0822  0.0737
 7211TIP3    H143048   1.275   2.542  15.479 -1.2739  2.2091 -0.3326
 7211TIP3    H243049   1.183   2.429  15.435  0.7589  0.7008 -0.8399
 7212TIP3   OH243050   3.154   1.959  11.957  0.5708  0.1416 -0.6867
 7212TIP3    H143051   3.092   1.958  12.030  2.0127 -0.7570  0.5986
 7212TIP3    H243052   3.188   1.869  11.953  2.3963  0.7966 -0.7629
 7213TIP3   OH243053   1.469   3.722  16.951  0.2207  0.3389 -0.0027
 7213TIP3    H143054   1.548   3.675  16.926  0.3563  0.6790 -0.2305
 7213TIP3    H243055   1.479   3.737  17.045  1.2791  1.9160 -0.3303
 7214TIP3   OH243056   2.231   2.963   2.778 -0.3515  0.2889 -0.0289
 7214TIP3    H143057   2.212   3.026   2.848 -1.5706  1.3315 -1.2349
 7214TIP3    H243058   2.291   3.009   2.719 -0.0226 -0.2609 -0.1349
 7215TIP3   OH243059   3.930   3.360   1.232 -0.3965 -0.3610  0.8099
 7215TIP3    H143060   3.875   3.296   1.276 -1.1337 -0.8442 -0.7412
 7215TIP3    H243061   4.010   3.362   1.283 -1.0730 -1.1603  1.9411
 7216TIP3   OH243062   1.494   3.745   1.633  0.3175  0.8369  0.4811
 7216TIP3    H143063   1.428   3.789   1.581 -0.1343  2.1117  2.0532
 7216TIP3    H243064   1.560   3.716   1.570 -0.1093  2.4834 -0.7596
 7217TIP3   OH243065   4.995   2.193   2.301 -0.5292  0.2612  0.1689
 7217TIP3    H143066   5.020   2.192   2.208 -0.7714  1.6706  0.0757
 7217TIP3    H243067   5.077   2.175   2.347 -0.3878 -0.3642 -0.3075
 7218TIP3   OH243068   1.510   3.671  14.638  0.1086  0.3103  0.0527
 7218TIP3    H143069   1.603   3.689  14.625 -0.4611  3.1926 -0.8375
 7218TIP3    H243070   1.473   3.668  14.550 -0.9257  1.4315  0.4048
 7219TIP3   OH243071   2.477   2.607  12.238  0.1124 -0.2528 -0.5449
 7219TIP3    H143072   2.413   2.677  12.232 -0.7462 -0.9398  0.2070
 7219TIP3    H243073   2.441   2.537  12.182  0.9382 -0.1184 -1.2615
 7220TIP3   OH243074   3.961   4.599   2.839 -0.3103 -0.2868  0.0168
 7220TIP3    H143075   4.044   4.639   2.813  0.7715 -0.8724  2.3648
 7220TIP3    H243076   3.982   4.506   2.848 -1.9262 -0.9121 -1.8879
 7221TIP3   OH243077   3.820   5.475  16.533 -0.1698 -0.2240  0.6569
 7221TIP3    H143078   3.802   5.513  16.447 -0.7181 -0.8016  0.5024
 7221TIP3    H243079   3.843   5.549  16.588  0.1890  0.1506  0.0080
 7222TIP3   OH243080   4.818   5.966  16.458  0.1606  0.6995  0.0350
 7222TIP3    H143081   4.758   5.984  16.530  0.4638  0.1734  0.4273
 7222TIP3    H243082   4.762   5.931  16.388  0.0273  0.0444  0.4611
 7223TIP3   OH243083   5.303   6.702  11.739  0.5108 -0.1858 -0.1824
 7223TIP3    H143084   5.360   6.633  11.773 -0.2130 -1.5439 -1.6111
 7223TIP3    H243085   5.362   6.759  11.688  1.0441  0.0593  0.6828
 7224TIP3   OH243086   3.782   2.709   3.064  0.5280 -0.0617 -0.1071
 7224TIP3    H143087   3.728   2.657   3.005  0.2737 -0.0620  0.1263
 7224TIP3    H243088   3.833   2.765   3.006 -1.8729  2.1049 -0.2829
 7225TIP3   OH243089   5.583   0.265   3.531  0.1296 -0.3385 -0.2619
 7225TIP3    H143090   5.666   0.294   3.492  1.3538  0.8638  2.9433
 7225TIP3    H243091   5.600   0.176   3.561 -0.6559 -1.0810 -1.9042
 7226TIP3   OH243092   5.131   2.667   0.715 -0.1057  0.1708  0.4664
 7226TIP3    H143093   5.054   2.702   0.760  1.1581  0.9147  2.1717
 7226TIP3    H243094   5.205   2.706   0.761  1.3009 -0.4466 -1.1844
 7227TIP3   OH243095   2.824   3.689   5.895  0.6827  0.0001  0.0417
 7227TIP3    H143096   2.783   3.603   5.882  0.7882 -0.1762  0.8440
 7227TIP3    H243097   2.809   3.709   5.987  0.0101  1.1888 -0.3149
 7228TIP3   OH243098   4.139   5.754  12.417 -0.1811 -0.4660  0.1866
 7228TIP3    H143099   4.132   5.702  12.497 -1.0191 -1.5757 -0.5774
 7228TIP3    H243100   4.049   5.760  12.385  0.3005 -1.1714 -1.3610
 7229TIP3   OH243101   5.651   1.210   0.821  0.3543  0.7341  0.8376
 7229TIP3    H143102   5.742   1.183   0.830  0.1255 -0.5398 -0.3785
 7229TIP3    H243103   5.632   1.258   0.902  1.8368  0.2742  1.4872
 7230TIP3   OH243104   4.737   2.307   2.235  0.0076  0.0495  0.3434
 7230TIP3    H143105   4.794   2.343   2.168 -0.6192  1.0487  0.3142
 7230TIP3    H243106   4.788   2.238   2.277  0.2602 -0.8999 -1.4270
 7231TIP3   OH243107   1.033   6.082  13.243  0.3722 -0.1247 -0.1445
 7231TIP3    H143108   1.071   6.047  13.163 -0.6267 -2.2073  0.2323
 7231TIP3    H243109   1.088   6.047  13.313  0.3790  0.4906  0.1623
 7232TIP3   OH243110   4.836   5.381   4.921  0.3092 -0.6336  0.2856
 7232TIP3    H143111   4.785   5.304   4.896  0.0580 -1.6356  3.4743
 7232TIP3    H243112   4.874   5.358   5.006  2.1627  1.9136  0.2583
 7233TIP3   OH243113   0.136   2.816   5.291 -0.3436 -0.0040 -0.2167
 7233TIP3    H143114   0.091   2.741   5.329 -0.4387 -0.4485 -1.1882
 7233TIP3    H243115   0.145   2.795   5.199 -0.3588  1.1797 -0.5077
 7234TIP3   OH243116   2.629   4.934   5.360  0.0925  0.2850  0.1164
 7234TIP3    H143117   2.598   4.912   5.272  2.8375 -2.9193 -0.2618
 7234TIP3    H243118   2.601   4.860   5.414  2.6036 -0.2681  0.7693
 7235TIP3   OH243119   2.278   2.509  11.353 -0.6086 -0.1040 -0.2752
 7235TIP3    H143120   2.303   2.582  11.296 -3.5014 -0.1646 -1.7710
 7235TIP3    H243121   2.349   2.445  11.342 -0.5081  0.3556 -2.9880
 7236TIP3   OH243122   3.007   3.180   3.360 -0.3051  0.0584  0.2146
 7236TIP3    H143123   3.050   3.266   3.367 -0.3119  0.0833 -0.0252
 7236TIP3    H243124   3.055   3.124   3.421 -0.7199  0.4002  0.8654
 7237TIP3   OH243125   0.823   5.220   3.135 -0.5231  0.1036 -0.0651
 7237TIP3    H143126   0.803   5.147   3.194  3.6948 -0.2848  1.1806
 7237TIP3    H243127   0.852   5.290   3.193  0.3316  0.9635 -1.4879
 7238TIP3   OH243128   3.355   2.166  15.953  0.0593  0.0226 -0.6314
 7238TIP3    H143129   3.316   2.207  15.876 -0.8012 -2.6078 -1.7142
 7238TIP3    H243130   3.441   2.137  15.925 -0.0812 -0.5473 -0.5000
 7239TIP3   OH243131   1.539   2.995   3.230 -0.1912 -0.2213  0.3625
 7239TIP3    H143132   1.446   2.976   3.242 -0.0878 -1.0772 -0.1104
 7239TIP3    H243133   1.584   2.915   3.258  0.3466 -0.1535 -0.2752
 7240TIP3   OH243134   4.510   0.045   1.594 -0.2664  0.4558 -0.0813
 7240TIP3    H143135   4.506  -0.014   1.519 -1.6652  1.8604 -1.1911
 7240TIP3    H243136   4.420   0.045   1.628  0.0791  0.7619  0.8565
 7241TIP3   OH243137   1.285   3.386   4.842 -0.7085  0.0933  0.4312
 7241TIP3    H143138   1.208   3.373   4.897 -1.2557  1.2116 -0.0456
 7241TIP3    H243139   1.260   3.355   4.755 -0.0981 -0.9500  0.6028
 7242TIP3   OH243140   3.487   0.419  13.123  0.0874 -0.0137  0.0858
 7242TIP3    H143141   3.509   0.326  13.119  1.2052  0.2348  0.1637
 7242TIP3    H243142   3.416   0.424  13.188 -0.6242 -0.9133 -0.5986
 7243TIP3   OH243143   1.388   1.603   4.813  0.4534  0.4030  0.1864
 7243TIP3    H143144   1.376   1.555   4.731 -0.6317  0.9841 -0.0061
 7243TIP3    H243145   1.452   1.672   4.791  0.7055  0.1200  0.0208
 7244TIP3   OH243146   1.644   1.262   5.987 -0.5169  0.8207  0.3565
 7244TIP3    H143147   1.597   1.287   5.907  0.9484  1.3603 -0.3799
 7244TIP3    H243148   1.681   1.344   6.020 -1.6260  0.7185  1.9894
 7245TIP3   OH243149   4.829   0.409   4.379  0.0176 -0.3314 -0.3659
 7245TIP3    H143150   4.850   0.319   4.403  2.3081  0.1509 -0.3489
 7245TIP3    H243151   4.881   0.427   4.301 -2.4964  0.1642 -2.0601
 7246TIP3   OH243152   1.789   6.672  12.037 -0.3405 -0.0238 -0.1371
 7246TIP3    H143153   1.866   6.666  12.094 -0.2579  0.9927 -0.1298
 7246TIP3    H243154   1.824   6.676  11.948 -0.4902 -2.5408 -0.3953
 7247TIP3   OH243155   5.587   3.569   3.687  0.2810 -0.4035  0.3619
 7247TIP3    H143156   5.493   3.584   3.679  0.2706 -1.2913 -2.0951
 7247TIP3    H243157   5.595   3.493   3.745 -0.5086 -0.3872  0.5037
 7248TIP3   OH243158   1.133   1.828   5.145 -0.4876  0.2223  0.5651
 7248TIP3    H143159   1.202   1.765   5.163 -0.3861  0.8421  2.5906
 7248TIP3    H243160   1.175   1.896   5.092 -0.0573 -0.3442  0.1756
 7249TIP3   OH243161   1.347   6.212   0.386 -0.1991  0.0188 -0.5223
 7249TIP3    H143162   1.268   6.229   0.334 -0.7872 -0.8011  0.0935
 7249TIP3    H243163   1.397   6.293   0.379 -2.2036  1.5120  1.0306
 7250TIP3   OH243164   1.031   4.263   5.201  0.0179 -0.3010  0.2865
 7250TIP3    H143165   1.118   4.303   5.209  0.1135 -0.7522  1.9618
 7250TIP3    H243166   1.006   4.277   5.110  2.4646 -1.4440 -0.6501
 7251TIP3   OH243167   2.982   3.056   2.362 -0.2744 -0.2380 -0.3670
 7251TIP3    H143168   2.917   2.989   2.384 -2.8773  2.5349  1.0296
 7251TIP3    H243169   2.946   3.101   2.286  0.4465  0.8152 -0.1073
 7252TIP3   OH243170   2.254   1.967  15.491  0.3690 -0.1902  0.5882
 7252TIP3    H143171   2.247   1.967  15.587 -0.4784 -2.7834  0.6122
 7252TIP3    H243172   2.185   1.907  15.462  1.4526 -0.4926 -1.5807
 7253TIP3   OH243173   2.097   1.013   1.599 -0.1016  0.2689 -0.0892
 7253TIP3    H143174   2.048   0.935   1.574 -0.7960  0.3005  1.0848
 7253TIP3    H243175   2.083   1.074   1.527  0.2720 -0.6059 -0.9172
 7254TIP3   OH243176   3.320   3.803  15.946  0.4291 -0.7419 -0.4137
 7254TIP3    H143177   3.397   3.792  15.889  0.9295  0.5132 -0.0276
 7254TIP3    H243178   3.260   3.734  15.918  0.6128 -0.1436 -2.5250
 7255TIP3   OH243179   6.654   3.088   0.660  0.1282  0.1606  0.0667
 7255TIP3    H143180   6.737   3.040   0.663 -0.2260 -0.4184  0.8263
 7255TIP3    H243181   6.678   3.178   0.685  0.5287  0.0149  0.2152
 7256TIP3   OH243182   4.109   0.670   5.460  0.2580 -1.2794 -0.9950
 7256TIP3    H143183   4.200   0.700   5.455 -0.5712  1.4842 -1.5069
 7256TIP3    H243184   4.092   0.661   5.553  0.5232  0.2349 -0.7613
 7257TIP3   OH243185   2.517   1.985  16.958 -0.4467 -0.3717  0.1871
 7257TIP3    H143186   2.591   1.924  16.960 -0.2172 -0.2147 -1.5783
 7257TIP3    H243187   2.506   2.012  17.049  1.9801 -0.0568  0.4599
 7258TIP3   OH243188   3.169   0.392   5.861 -0.3983 -0.2009  0.3029
 7258TIP3    H143189   3.160   0.391   5.766  0.0277 -0.2158  0.2586
 7258TIP3    H243190   3.148   0.303   5.889  1.0558 -0.6451  0.0596
 7259TIP3   OH243191   4.623   2.487  13.013 -0.0453  0.7050 -0.3648
 7259TIP3    H143192   4.589   2.563  13.060  1.5525  1.9162 -1.0760
 7259TIP3    H243193   4.638   2.422  13.082 -1.0143  1.1771  0.3185
 7260TIP3   OH243194   3.039   2.480  16.035 -0.2701 -0.2324 -0.0643
 7260TIP3    H143195   3.102   2.451  16.101  0.1157  1.1949  0.2320
 7260TIP3    H243196   3.076   2.452  15.952  1.6212  1.8988 -0.0405
 7261TIP3   OH243197   2.645   6.631   1.243  0.2188 -0.2046 -0.3230
 7261TIP3    H143198   2.737   6.655   1.251  0.9908 -2.9014  0.0718
 7261TIP3    H243199   2.642   6.575   1.165 -0.5643 -2.1113  1.0117
 7262TIP3   OH243200   1.405   6.738   5.151  0.0009 -0.0330 -0.4898
 7262TIP3    H143201   1.436   6.828   5.161 -0.3642 -0.0239  0.6539
 7262TIP3    H243202   1.371   6.734   5.062 -1.4587  1.4284 -0.0410
 7263TIP3   OH243203   4.793   1.685   1.450  0.2876  0.0295  0.3749
 7263TIP3    H143204   4.712   1.636   1.464  0.8324 -0.9945  0.0222
 7263TIP3    H243205   4.790   1.755   1.515 -1.2852  0.5360 -0.2079
 7264TIP3   OH243206   3.964   6.655   3.277  0.2697  0.1228  0.0168
 7264TIP3    H143207   3.944   6.562   3.261 -1.3386  0.5004 -0.4119
 7264TIP3    H243208   4.058   6.662   3.266  0.3970 -1.4418 -0.0865
 7265TIP3   OH243209   5.351   6.534  11.053  0.5516  0.4929 -0.3172
 7265TIP3    H143210   5.310   6.610  11.094  0.0741  0.0501  0.0479
 7265TIP3    H243211   5.342   6.464  11.118  0.5536 -0.0005 -0.8383
 7266TIP3   OH243212   6.121   5.539   3.623  0.2515  0.0742  0.2544
 7266TIP3    H143213   6.111   5.523   3.529  2.4201 -2.9081  0.3599
 7266TIP3    H243214   6.206   5.580   3.632  0.6302 -0.8098  0.9399
 7267TIP3   OH243215   2.428   4.246  16.731 -0.0417 -0.6858  0.1502
 7267TIP3    H143216   2.402   4.171  16.785  1.4229  0.2856  2.3704
 7267TIP3    H243217   2.345   4.289  16.709 -0.7062 -1.0237  1.8200
 7268TIP3   OH243218   5.912   4.497  13.699 -0.7375  0.5392  0.4571
 7268TIP3    H143219   6.007   4.509  13.690 -0.9075  0.0965 -2.8935
 7268TIP3    H243220   5.876   4.584  13.682 -1.0110 -0.0114 -2.2101
 7269TIP3   OH243221   0.565   3.846  12.953 -0.5253 -0.3386  0.4662
 7269TIP3    H143222   0.524   3.761  12.935 -0.6571 -0.4029  1.0480
 7269TIP3    H243223   0.656   3.834  12.927 -1.0193  0.0556 -1.5967
 7270TIP3   OH243224   6.035   2.351  11.486  0.1885 -0.3756  0.3031
 7270TIP3    H143225   6.087   2.400  11.550  1.0944  1.3446 -1.6267
 7270TIP3    H243226   5.945   2.378  11.503  0.6982  2.5461 -1.0180
 7271TIP3   OH243227   0.462   4.722   6.094  0.8861 -0.7137 -0.1834
 7271TIP3    H143228   0.453   4.662   6.020  0.8829 -2.0123  0.8261
 7271TIP3    H243229   0.503   4.801   6.057  0.7841 -1.2951 -1.5691
 7272TIP3   OH243230   4.241   2.412   0.465 -0.7269 -0.3976  0.2262
 7272TIP3    H143231   4.303   2.431   0.394 -0.4343  0.3352  0.6600
 7272TIP3    H243232   4.237   2.317   0.469 -1.3112 -0.4563 -1.2492
 7273TIP3   OH243233   6.560   1.860   3.421 -0.6411  0.0061 -0.0513
 7273TIP3    H143234   6.528   1.919   3.352 -0.0563 -0.8282 -1.0525
 7273TIP3    H243235   6.603   1.789   3.374 -3.9595 -2.9483  0.8976
 7274TIP3   OH243236   1.332   3.834  15.771 -0.0966  0.1576 -0.3517
 7274TIP3    H143237   1.339   3.796  15.858  1.1567  0.5353 -0.2801
 7274TIP3    H243238   1.369   3.767  15.713  0.1694  0.4015 -0.4612
 7275TIP3   OH243239   5.647   3.944   4.317 -0.0263 -0.2114  0.9529
 7275TIP3    H143240   5.609   3.939   4.229  0.3789 -0.7364  0.8020
 7275TIP3    H243241   5.717   4.009   4.309  0.7534 -1.0767  0.5959
 7276TIP3   OH243242   5.578   3.113   1.690 -0.1319  0.7258 -0.3798
 7276TIP3    H143243   5.600   3.039   1.747  1.1241  0.8448 -0.6883
 7276TIP3    H243244   5.637   3.104   1.615 -0.7694  1.3937 -0.9713
 7277TIP3   OH243245   0.757   0.684   0.755  0.1193  0.3363 -0.1414
 7277TIP3    H143246   0.843   0.649   0.776  0.7983  1.3562 -1.0846
 7277TIP3    H243247   0.749   0.673   0.660 -0.6735  0.5085 -0.1039
 7278TIP3   OH243248   2.326   5.635   6.151  0.0629 -0.0220 -0.8017
 7278TIP3    H143249   2.235   5.655   6.132 -0.4386 -0.2564  1.1127
 7278TIP3    H243250   2.322   5.565   6.217  1.6651 -1.5335 -2.2076
 7279TIP3   OH243251   2.652   4.379   0.969 -0.0574  0.3618  0.4111
 7279TIP3    H143252   2.664   4.406   1.060 -1.0812  0.3637  0.5574
 7279TIP3    H243253   2.658   4.283   0.973 -1.5294  0.2604  0.7321
 7280TIP3   OH243254   2.637   4.879   6.399 -0.7844  0.2791  0.4547
 7280TIP3    H143255   2.662   4.789   6.417  2.2216  0.8975 -0.0064
 7280TIP3    H243256   2.637   4.886   6.304 -0.9676  0.7593  0.4850
 7281TIP3   OH243257   1.556   5.077   0.554  0.1338 -0.5356  0.0038
 7281TIP3    H143258   1.639   5.116   0.582 -0.6588  1.0296  0.2931
 7281TIP3    H243259   1.501   5.081   0.632 -0.9399  0.5570 -0.7748
 7282TIP3   OH243260   5.407   1.338  11.735 -0.0357 -0.1479 -0.2526
 7282TIP3    H143261   5.350   1.357  11.809 -0.0752 -0.1353 -0.2853
 7282TIP3    H243262   5.381   1.402  11.668 -0.9368 -1.0283 -0.7742
 7283TIP3   OH243263   5.289   0.455  14.533 -0.1518 -0.0330  0.4399
 7283TIP3    H143264   5.332   0.490  14.611  1.4178  0.2580 -0.5087
 7283TIP3    H243265   5.330   0.370  14.520  1.7823  1.1179 -1.6763
 7284TIP3   OH243266   4.143   4.534  16.801 -0.1064 -0.1156  0.2379
 7284TIP3    H143267   4.180   4.455  16.760 -1.2639  0.2089 -1.5232
 7284TIP3    H243268   4.060   4.548  16.755 -2.1154 -0.3520  3.4782
 7285TIP3   OH243269   1.769   6.740  12.434 -0.0313 -0.0377 -0.0910
 7285TIP3    H143270   1.823   6.719  12.511 -0.4559 -1.2311 -0.1035
 7285TIP3    H243271   1.832   6.772  12.369  0.3348  0.9970  0.7441
 7286TIP3   OH243272   5.063   2.481   0.437  0.0708  0.2005 -0.4938
 7286TIP3    H143273   5.158   2.483   0.424 -0.0124  0.4232 -1.1151
 7286TIP3    H243274   5.031   2.558   0.391 -0.4149  0.1212 -0.2963
 7287TIP3   OH243275   3.159   0.129  11.950 -0.2878 -0.0852  0.0796
 7287TIP3    H143276   3.127   0.040  11.967  0.7727 -0.6898 -0.9643
 7287TIP3    H243277   3.083   0.175  11.913 -0.1954 -1.3093 -1.7509
 7288TIP3   OH243278   5.574   0.172  13.722 -0.3929  0.1146 -0.1049
 7288TIP3    H143279   5.666   0.192  13.704  0.2898 -1.8484  0.9595
 7288TIP3    H243280   5.544   0.126  13.643 -0.1727 -0.0920 -0.0707
 7289TIP3   OH243281   1.891   1.246  12.984 -0.2044  0.0157  0.3328
 7289TIP3    H143282   1.833   1.183  12.941 -1.7791  0.0675  2.2435
 7289TIP3    H243283   1.939   1.193  13.048  0.3072  0.3564  0.2356
 7290TIP3   OH243284   6.738   4.628  14.425 -0.6594 -0.1731  0.8168
 7290TIP3    H143285   6.701   4.702  14.376  2.2677  0.0871 -1.2619
 7290TIP3    H243286   6.688   4.552  14.395 -0.5859  0.3502 -0.7539
 7291TIP3   OH243287   0.025   3.615  16.568 -0.3973  0.2566 -0.2676
 7291TIP3    H143288   0.068   3.698  16.548  1.3304 -0.5035  0.1420
 7291TIP3    H243289   0.067   3.552  16.509  0.5889 -0.9089  1.6099
 7292TIP3   OH243290   0.385   0.324   0.187  0.5006  1.0016  0.1459
 7292TIP3    H143291   0.331   0.302   0.111 -4.0565 -0.4764  3.3636
 7292TIP3    H243292   0.386   0.419   0.188 -0.3142  1.0641 -1.1590
 7293TIP3   OH243293   2.992   6.334  14.406 -0.4194  0.0921 -0.0392
 7293TIP3    H143294   2.951   6.253  14.376  3.5182 -2.3689  0.3547
 7293TIP3    H243295   2.998   6.323  14.501 -0.7158  1.3216  0.1249
 7294TIP3   OH243296   4.431   2.552  12.054 -0.1867 -0.0427  0.1036
 7294TIP3    H143297   4.444   2.528  11.963  0.2103 -0.7980  0.3471
 7294TIP3    H243298   4.360   2.496  12.084 -0.4301  0.3210  0.2137
 7295TIP3   OH243299   6.063   0.881   5.734  0.3332  0.2274 -0.6224
 7295TIP3    H143300   6.083   0.810   5.795 -1.5041  1.9512  2.2242
 7295TIP3    H243301   5.975   0.860   5.701  0.6778  0.1081 -1.4803
 7296TIP3   OH243302   4.471   0.875   2.641  0.6694 -0.0982 -0.6439
 7296TIP3    H143303   4.400   0.812   2.634  0.3315 -0.0071  1.3479
 7296TIP3    H243304   4.518   0.849   2.720  1.3890  1.3033 -0.5838
 7297TIP3   OH243305   4.635   6.264   2.349 -0.6582  0.2119  0.3802
 7297TIP3    H143306   4.602   6.198   2.410 -1.0261 -1.3719 -1.4455
 7297TIP3    H243307   4.728   6.246   2.341 -1.0350 -1.2292 -1.3629
 7298TIP3   OH243308   4.608   5.425  15.753  0.2906  0.5633  0.3760
 7298TIP3    H143309   4.637   5.369  15.681  0.4991  0.7859  0.2871
 7298TIP3    H243310   4.687   5.441  15.804 -0.2541 -1.5779  2.0532
 7299TIP3   OH243311   5.881   4.933  15.413 -0.6162 -0.2718  0.1544
 7299TIP3    H143312   5.894   4.839  15.423 -0.3757 -0.6668 -2.9275
 7299TIP3    H243313   5.959   4.973  15.452  0.7663 -1.5483 -1.2258
 7300TIP3   OH243314   0.421   5.731   4.532 -0.1503 -0.3245 -0.5135
 7300TIP3    H143315   0.477   5.690   4.598 -0.4678  1.0924  0.6958
 7300TIP3    H243316   0.467   5.718   4.450  1.4579 -0.0964  0.3118
 7301TIP3   OH243317   6.352   5.928   1.766  0.4278  0.0305 -0.6967
 7301TIP3    H143318   6.324   5.846   1.726 -0.2263  0.2155 -0.6220
 7301TIP3    H243319   6.289   5.944   1.836  0.1039  0.9637 -1.1713
 7302TIP3   OH243320   3.836   2.533   1.964 -0.3615 -0.6651  0.4816
 7302TIP3    H143321   3.913   2.484   1.937 -1.0152 -0.4209 -2.0296
 7302TIP3    H243322   3.860   2.568   2.050  1.5201 -2.2559  0.6820
 7303TIP3   OH243323   2.392   4.851  14.299 -0.0878  0.2100  0.0014
 7303TIP3    H143324   2.372   4.764  14.263 -0.3727  1.2168 -2.4916
 7303TIP3    H243325   2.422   4.902  14.224 -0.2011  2.3628  1.3228
 7304TIP3   OH243326   4.499   1.469   0.253  0.0849  0.2757 -0.2092
 7304TIP3    H143327   4.592   1.452   0.268  0.8992  1.0219 -3.6749
 7304TIP3    H243328   4.484   1.554   0.295 -0.1361 -1.4301  3.6205
 7305TIP3   OH243329   2.012   5.537  16.580 -0.5070  0.0544 -0.4509
 7305TIP3    H143330   2.092   5.487  16.561  0.1701  0.9033  0.0564
 7305TIP3    H243331   1.979   5.563  16.494 -0.7003 -0.9876 -0.7084
 7306TIP3   OH243332   4.236   5.527  14.013 -0.0629  0.0182 -0.2775
 7306TIP3    H143333   4.331   5.511  14.010 -0.0266  0.2997 -0.7286
 7306TIP3    H243334   4.211   5.503  14.102  0.1685 -1.5140 -0.5929
 7307TIP3   OH243335   0.456   1.855   2.441  0.1903  0.1509 -0.4107
 7307TIP3    H143336   0.420   1.820   2.522  2.2483 -0.0598  0.4774
 7307TIP3    H243337   0.423   1.796   2.373 -2.1103  0.7323  0.1429
 7308TIP3   OH243338   2.068   2.191  14.122 -0.9075 -0.2560 -0.5649
 7308TIP3    H143339   2.130   2.203  14.193 -2.1857 -0.1035  0.5608
 7308TIP3    H243340   2.104   2.118  14.071  0.9567  0.7823 -0.8444
 7309TIP3   OH243341   0.573   2.469   1.878 -0.4266  0.7083  0.2340
 7309TIP3    H143342   0.538   2.557   1.865 -0.7234  0.8138  1.6402
 7309TIP3    H243343   0.588   2.462   1.972 -0.3369 -0.7239  0.1405
 7310TIP3   OH243344   1.205   1.840   0.557 -0.4275  0.0529 -0.3306
 7310TIP3    H143345   1.208   1.897   0.634  0.8386  1.6528 -1.4773
 7310TIP3    H243346   1.277   1.778   0.570  0.6519  1.1718 -0.8046
 7311TIP3   OH243347   5.661   6.572  17.229  0.1342 -0.0497  0.1318
 7311TIP3    H143348   5.664   6.516  17.306 -0.5184  0.3312  0.4426
 7311TIP3    H243349   5.718   6.529  17.165  0.2707 -0.6351  0.6448
 7312TIP3   OH243350   5.866   6.230  16.168  0.2109 -0.1607 -0.1628
 7312TIP3    H143351   5.955   6.204  16.143  0.0301 -0.9953  0.0300
 7312TIP3    H243352   5.861   6.323  16.144  1.1068 -0.1187 -0.2416
 7313TIP3   OH243353   1.315   0.634   5.983  0.0403  0.5769  0.2189
 7313TIP3    H143354   1.313   0.591   6.069  1.6299  0.3821  0.1944
 7313TIP3    H243355   1.346   0.723   6.002  2.1058  0.0139 -0.2986
 7314TIP3   OH243356   3.870   2.877  11.760 -0.3769 -0.4568  0.4087
 7314TIP3    H143357   3.872   2.958  11.709 -2.0458 -0.2770  0.5846
 7314TIP3    H243358   3.872   2.807  11.695 -0.8784 -0.2439  0.1584
 7315TIP3   OH243359   1.516   3.023   4.659  0.1603 -0.0964  0.4184
 7315TIP3    H143360   1.526   3.045   4.752  0.9204  0.1028  0.2934
 7315TIP3    H243361   1.591   3.063   4.616 -1.2274  1.5946 -0.5994
 7316TIP3   OH243362   0.062   6.662  13.525  0.5731 -0.7013 -0.1901
 7316TIP3    H143363   0.112   6.726  13.576 -0.4222 -0.4019  0.4453
 7316TIP3    H243364   0.031   6.599  13.590 -2.3677  0.7564 -0.0346
 7317TIP3   OH243365   1.715   5.879  11.860  0.2864  0.4279  0.3315
 7317TIP3    H143366   1.626   5.882  11.896 -0.0860 -0.8171 -0.4384
 7317TIP3    H243367   1.710   5.816  11.788  0.8533  3.1780 -2.3188
 7318TIP3   OH243368   4.915   0.479   5.462 -0.4775  0.0677  0.2876
 7318TIP3    H143369   4.961   0.501   5.543 -0.3062 -0.3702  0.3133
 7318TIP3    H243370   4.982   0.442   5.405 -0.7045 -0.1538  0.1565
 7319TIP3   OH243371   4.898   5.159   1.805 -0.0502 -0.2400 -0.1163
 7319TIP3    H143372   4.977   5.107   1.816 -0.6867 -1.1243  0.3863
 7319TIP3    H243373   4.832   5.096   1.776 -0.2398  0.7240 -1.9683
 7320TIP3   OH243374   1.265   4.418   5.960 -0.3687  0.0785  0.3293
 7320TIP3    H143375   1.322   4.342   5.969 -0.4096  0.1155  0.9344
 7320TIP3    H243376   1.274   4.466   6.043 -0.6803  0.4952  0.1293
 7321TIP3   OH243377   5.561   2.522   2.484 -0.2448  0.4606  0.1174
 7321TIP3    H143378   5.582   2.435   2.449 -1.1009  0.8130 -1.3445
 7321TIP3    H243379   5.615   2.582   2.433  1.2343  0.7512  1.9081
 7322TIP3   OH243380   3.984   4.100   0.528 -0.1280 -0.2961  0.0160
 7322TIP3    H143381   4.025   4.104   0.614  0.3331 -1.0988 -0.1629
 7322TIP3    H243382   3.972   4.192   0.503  0.1043 -0.0615  0.7527
 7323TIP3   OH243383   3.052   3.848  16.100 -0.3757 -0.0451  0.1211
 7323TIP3    H143384   3.127   3.825  16.044  0.8232  0.0289  1.6158
 7323TIP3    H243385   2.991   3.775  16.089  0.8988 -1.2219  0.5062
 7324TIP3   OH243386   3.148   2.071  10.901  0.5811 -0.1114 -0.2456
 7324TIP3    H143387   3.184   1.986  10.876 -2.3177 -1.2087 -1.0248
 7324TIP3    H243388   3.131   2.115  10.818  0.6429  0.6212  0.1217
 7325TIP3   OH243389   6.117   4.340  12.292 -0.0499 -0.5102  0.0864
 7325TIP3    H143390   6.129   4.287  12.370 -1.8775 -0.9362  0.1255
 7325TIP3    H243391   6.022   4.349  12.283  0.1643  1.4876 -0.7791
 7326TIP3   OH243392   1.656   0.915   2.691 -0.1426 -0.0994  0.0830
 7326TIP3    H143393   1.707   0.970   2.750  0.9071  0.8733 -1.6658
 7326TIP3    H243394   1.578   0.966   2.670 -1.1940 -0.9869  1.5901
 7327TIP3   OH243395   2.669   2.817   4.944 -0.6037  0.2164  0.0323
 7327TIP3    H143396   2.638   2.884   5.004  0.9828 -0.4754  1.7123
 7327TIP3    H243397   2.671   2.737   4.996 -0.0688 -0.6098 -1.2190
 7328TIP3   OH243398   2.240   0.271   0.378 -0.3956  0.2087 -0.7578
 7328TIP3    H143399   2.193   0.210   0.321  0.3735  0.7586 -2.0182
 7328TIP3    H243400   2.331   0.267   0.349 -0.3604  2.1093 -1.0488
 7329TIP3   OH243401   3.081   5.803  14.439 -0.7327 -0.0817  0.1052
 7329TIP3    H143402   3.135   5.810  14.518 -1.2684 -0.3026  0.4977
 7329TIP3    H243403   2.994   5.831  14.467 -0.9476 -0.2478 -0.3843
 7330TIP3   OH243404   5.048   5.092   3.688 -0.1754  0.5510  0.0574
 7330TIP3    H143405   5.097   5.019   3.726  1.1227  0.5249 -1.5976
 7330TIP3    H243406   4.957   5.062   3.690  0.4474 -1.7036 -1.7493
 7331TIP3   OH243407   2.534   4.908   0.058 -0.9495 -0.5454  0.6393
 7331TIP3    H143408   2.450   4.924   0.100 -1.2582  0.4290 -0.2991
 7331TIP3    H243409   2.520   4.929  -0.035  0.7734  1.4747  0.7483
 7332TIP3   OH243410   0.300   3.152   3.301 -0.5420 -0.6860 -0.2281
 7332TIP3    H143411   0.247   3.182   3.228  0.2987 -1.9095 -1.3712
 7332TIP3    H243412   0.382   3.122   3.262  0.4956 -0.1094  1.3482
 7333TIP3   OH243413   0.301   5.450  12.542 -0.0719 -0.2609  0.1824
 7333TIP3    H143414   0.347   5.385  12.488  1.1821 -1.1798  2.2235
 7333TIP3    H243415   0.285   5.523  12.483  2.2917 -0.7145 -1.1697
 7334TIP3   OH243416   3.018   2.717   3.373 -0.2922 -0.2746  0.4537
 7334TIP3    H143417   3.043   2.644   3.317 -1.7479 -0.8051  0.4332
 7334TIP3    H243418   2.990   2.785   3.312 -0.3128 -0.2413  0.5004
 7335TIP3   OH243419   0.110   6.553  12.039  0.9057 -0.2780 -0.1970
 7335TIP3    H143420   0.109   6.464  12.074  1.7313  0.0635  0.7504
 7335TIP3    H243421   0.201   6.581  12.047  1.6005 -0.7752 -4.3045
 7336TIP3   OH243422   0.532   0.576   0.877 -0.2935 -0.6135 -0.1463
 7336TIP3    H143423   0.462   0.636   0.901  0.2362  0.4774 -1.2173
 7336TIP3    H243424   0.593   0.629   0.827  1.5743 -1.4239  1.1704
 7337TIP3   OH243425   0.637   4.160  11.310  0.1958  0.5537  0.1840
 7337TIP3    H143426   0.584   4.205  11.376  0.0277  0.9147 -0.1906
 7337TIP3    H243427   0.717   4.212  11.306  0.6448 -0.0682  0.8451
 7338TIP3   OH243428   3.753   2.236  15.053 -0.2248  0.2908 -0.5425
 7338TIP3    H143429   3.764   2.259  15.145 -0.3538  0.5027 -0.5788
 7338TIP3    H243430   3.779   2.315  15.005  1.1914 -0.2757 -0.7456
 7339TIP3   OH243431   0.528   6.119   1.148  0.3253 -0.0351 -0.6306
 7339TIP3    H143432   0.505   6.137   1.057 -1.4895  1.3491  0.0470
 7339TIP3    H243433   0.444   6.109   1.193  1.1491  0.4041  1.1012
 7340TIP3   OH243434   5.457   2.023  13.541  0.6696 -0.1516 -0.1443
 7340TIP3    H143435   5.475   2.074  13.463  0.5284 -0.7240 -0.5555
 7340TIP3    H243436   5.377   1.975  13.521  1.2706 -1.2022 -0.1018
 7341TIP3   OH243437   2.905   3.790   4.831  0.1269 -0.0381 -0.1235
 7341TIP3    H143438   2.928   3.869   4.781 -0.7704 -0.8567 -1.9056
 7341TIP3    H243439   2.809   3.792   4.836  0.0877 -1.0603 -0.2809
 7342TIP3   OH243440   5.655   2.850   2.724 -0.0782  0.0472 -0.4320
 7342TIP3    H143441   5.690   2.884   2.641  0.1914 -1.6097 -1.0423
 7342TIP3    H243442   5.727   2.861   2.786  0.1591  0.1615 -0.7199
 7343TIP3   OH243443   0.490   1.893  14.122 -0.8349 -0.0659  0.2034
 7343TIP3    H143444   0.555   1.943  14.173 -0.1415 -1.0958  0.3672
 7343TIP3    H243445   0.510   1.914  14.031 -0.7925  0.2524  0.2843
 7344TIP3   OH243446   0.293   2.612   1.445 -0.0327 -0.3064  0.6417
 7344TIP3    H143447   0.219   2.622   1.506 -0.8879  0.7394 -0.5193
 7344TIP3    H243448   0.331   2.700   1.440  1.1345 -0.7707  0.9887
 7345TIP3   OH243449   6.573   4.859  14.964 -0.0302  0.2907  0.3177
 7345TIP3    H143450   6.654   4.809  14.964  0.5185  1.1190 -0.7133
 7345TIP3    H243451   6.586   4.925  14.895 -2.0237 -0.2864 -0.6965
 7346TIP3   OH243452   0.190   3.544  16.331  0.1529  0.3178  0.1693
 7346TIP3    H143453   0.116   3.533  16.272 -0.2182  0.8563  0.5175
 7346TIP3    H243454   0.215   3.636  16.322 -1.5360  1.1339  2.6711
 7347TIP3   OH243455   4.705   5.479  16.577 -0.5576 -0.0621 -0.4491
 7347TIP3    H143456   4.654   5.559  16.589 -0.3416 -0.1543  1.3396
 7347TIP3    H243457   4.653   5.410  16.618  0.5307 -0.3211  0.5773
 7348TIP3   OH243458   1.795   5.847   6.812  0.1568 -0.6302  0.3458
 7348TIP3    H143459   1.732   5.834   6.884  0.1054  2.3599  0.9421
 7348TIP3    H243460   1.778   5.935   6.779  2.0105 -0.8865 -1.5583
 7349TIP3   OH243461   3.948   1.600   5.806 -0.1252 -0.4405  0.2904
 7349TIP3    H143462   4.002   1.521   5.805 -1.3055 -1.2871 -1.6622
 7349TIP3    H243463   3.868   1.575   5.761  0.4308  2.4984 -2.7143
 7350TIP3   OH243464   4.856   3.897   3.266  0.0849 -0.2681 -0.6873
 7350TIP3    H143465   4.805   3.816   3.268  1.0367 -0.8690  0.1283
 7350TIP3    H243466   4.909   3.894   3.345  1.6648  0.1547 -1.6941
 7351TIP3   OH243467   6.426   0.199  16.658 -0.0965 -0.7727  0.2134
 7351TIP3    H143468   6.408   0.293  16.667 -0.7499 -1.0574  2.7006
 7351TIP3    H243469   6.493   0.194  16.590 -1.0127  1.3689 -0.9378
 7352TIP3   OH243470   4.664   3.083  17.324  0.1044  0.3126  0.0021
 7352TIP3    H143471   4.664   3.038  17.240 -1.2324 -0.5902  0.4648
 7352TIP3    H243472   4.590   3.047  17.372  1.5727 -0.1294  2.0952
 7353TIP3   OH243473   5.271   1.414  11.978  0.5352 -0.5274 -0.4790
 7353TIP3    H143474   5.231   1.459  11.904 -0.0438 -1.2185 -0.5996
 7353TIP3    H243475   5.317   1.483  12.026 -0.4586  0.2229 -0.5712
 7354TIP3   OH243476   3.192   2.139  15.609  0.1275 -0.5910  0.4597
 7354TIP3    H143477   3.197   2.233  15.591  0.3962 -0.7830 -0.5380
 7354TIP3    H243478   3.113   2.129  15.661  0.3768  0.2551  1.0195
 7355TIP3   OH243479   0.512   3.579  12.943  0.4447  0.1372 -0.5242
 7355TIP3    H143480   0.448   3.510  12.926  0.2007 -0.1002  1.2237
 7355TIP3    H243481   0.584   3.560  12.883 -0.0001 -1.1262 -0.6857
 7356TIP3   OH243482   1.755   3.334   4.902  0.0558 -0.3767 -0.0608
 7356TIP3    H143483   1.766   3.375   4.817 -1.2865  1.2514  0.4805
 7356TIP3    H243484   1.663   3.306   4.903  0.6500 -2.4906  0.0121
 7357TIP3   OH243485   5.944   0.949  16.540  0.3491  0.2094  0.1107
 7357TIP3    H143486   6.038   0.962  16.533  0.0722  2.1660 -0.5244
 7357TIP3    H243487   5.906   1.037  16.529 -1.6167 -0.7142 -1.0548
 7358TIP3   OH243488   0.851   2.481  14.520  0.3618  0.5461 -0.0499
 7358TIP3    H143489   0.784   2.416  14.496 -0.4243  1.2447  0.1853
 7358TIP3    H243490   0.932   2.446  14.485 -0.2578  0.0392 -1.0370
 7359TIP3   OH243491   5.475   6.039  17.031 -0.2433 -0.4912 -0.2810
 7359TIP3    H143492   5.425   6.120  17.038 -0.1478 -0.4300 -0.3052
 7359TIP3    H243493   5.548   6.051  17.091 -0.0548 -0.4304 -0.5183
 7360TIP3   OH243494   4.561   5.895  14.093 -0.1388 -0.1455  0.2428
 7360TIP3    H143495   4.655   5.910  14.107 -0.5325  2.2144  0.9161
 7360TIP3    H243496   4.556   5.845  14.012  1.7032 -0.6682  0.3960
 7361TIP3   OH243497   3.162   0.221  15.291  0.3326 -0.4526 -0.1298
 7361TIP3    H143498   3.101   0.173  15.346  1.1881 -3.0334 -1.2791
 7361TIP3    H243499   3.110   0.249  15.216 -0.1615  0.4589  0.5302
 7362TIP3   OH243500   3.916   3.063  12.103  0.6737  0.1430  0.0653
 7362TIP3    H143501   3.820   3.069  12.098  0.4793 -2.3416 -0.8865
 7362TIP3    H243502   3.948   3.136  12.051 -0.5990  2.4051  2.2671
 7363TIP3   OH243503   6.583   3.980   3.670  0.1992 -0.3468 -0.1819
 7363TIP3    H143504   6.497   4.004   3.637  0.4020 -1.1105 -1.3169
 7363TIP3    H243505   6.632   3.955   3.592  0.9208 -1.5554  0.6365
 7364TIP3   OH243506   2.154   1.847   2.582  0.1217 -0.2874  0.2750
 7364TIP3    H143507   2.136   1.769   2.634 -0.8559  0.3833  0.9809
 7364TIP3    H243508   2.070   1.870   2.543  0.1897  0.9253  0.8055
 7365TIP3   OH243509   3.046   6.330  15.125 -0.2763 -0.2552 -0.1990
 7365TIP3    H143510   3.098   6.322  15.205 -0.7764 -0.1999  0.1380
 7365TIP3    H243511   3.015   6.420  15.126  0.5206  0.0442 -0.9708
 7366TIP3   OH243512   4.231   2.871  14.102  0.7760  0.1994 -0.0822
 7366TIP3    H143513   4.313   2.914  14.125  0.9751 -0.1631 -0.1077
 7366TIP3    H243514   4.166   2.941  14.101  1.3635  0.7557 -1.6029
 7367TIP3   OH243515   4.007   1.905   2.110 -0.5521 -0.6906  0.8670
 7367TIP3    H143516   4.005   1.952   2.194  0.6639  0.5439  0.2493
 7367TIP3    H243517   4.000   1.974   2.044 -0.1251 -1.5088 -0.0610
 7368TIP3   OH243518   6.246   3.698  15.065 -0.6458  0.0910  0.1840
 7368TIP3    H143519   6.214   3.663  14.982  0.4058  0.1681 -0.2732
 7368TIP3    H243520   6.169   3.700  15.122 -0.9041 -2.3476  0.0180
 7369TIP3   OH243521   5.467   2.806   1.396  0.5466  0.1009 -0.1826
 7369TIP3    H143522   5.447   2.729   1.449 -1.3730 -0.5013 -1.6296
 7369TIP3    H243523   5.548   2.783   1.350 -0.6582 -1.7056 -1.5731
 7370TIP3   OH243524   5.905   0.599  14.843  0.6817 -0.5614 -0.4288
 7370TIP3    H143525   5.906   0.626  14.751 -2.0525 -0.5298 -0.5078
 7370TIP3    H243526   5.848   0.661  14.886  0.0452 -1.9574  0.8268
 7371TIP3   OH243527   3.631   2.585  11.095  0.6175  0.2617 -0.0713
 7371TIP3    H143528   3.717   2.607  11.059  0.6127 -1.3253 -1.1786
 7371TIP3    H243529   3.576   2.570  11.018 -0.4759  0.6145  0.6241
 7372TIP3   OH243530   1.687   0.345  11.619  0.6762  0.2524  0.4554
 7372TIP3    H143531   1.637   0.296  11.684  1.0183 -0.7080  0.0021
 7372TIP3    H243532   1.749   0.282  11.583  0.4539  0.7477 -0.8565
 7373TIP3   OH243533   3.137   2.864  16.109 -0.0239 -0.0556  0.3175
 7373TIP3    H143534   3.176   2.810  16.040 -0.7639 -1.4972  0.9793
 7373TIP3    H243535   3.209   2.920  16.139  0.2624  0.7565 -1.7121
 7374TIP3   OH243536   5.134   6.450   4.552 -0.0465  0.0063  0.2016
 7374TIP3    H143537   5.207   6.400   4.586  1.5250  1.0977 -1.4131
 7374TIP3    H243538   5.097   6.396   4.482 -0.6449 -0.4159  0.8248
 7375TIP3   OH243539   5.034   0.895  11.774  0.2563  0.5198 -0.4666
 7375TIP3    H143540   5.063   0.819  11.723  1.7878  1.3039 -0.8207
 7375TIP3    H243541   4.984   0.857  11.847  2.2002 -0.9432  0.1970
 7376TIP3   OH243542   6.735   6.237   1.565 -0.2442 -0.2535  0.3674
 7376TIP3    H143543   6.783   6.157   1.586 -0.0248 -0.6399 -1.4723
 7376TIP3    H243544   6.790   6.307   1.601 -0.5386 -0.9031  2.1657
 7377TIP3   OH243545   1.496   0.157   4.835 -0.2621  0.0976  0.0249
 7377TIP3    H143546   1.547   0.133   4.758 -0.6207 -0.6985  0.0293
 7377TIP3    H243547   1.561   0.184   4.899  0.0840  0.0779 -0.3162
 7378TIP3   OH243548   2.119   1.255   1.802  0.1590 -0.3699 -0.9568
 7378TIP3    H143549   2.128   1.162   1.779 -1.1372 -0.4127 -1.3894
 7378TIP3    H243550   2.033   1.261   1.844  0.9176  0.3702  0.5689
 7379TIP3   OH243551   5.781   2.100  15.202 -0.9241 -0.4296 -0.3206
 7379TIP3    H143552   5.843   2.170  15.219  0.2259 -1.3234 -0.7099
 7379TIP3    H243553   5.708   2.118  15.261 -0.4657  0.8410 -0.1106
 7380TIP3   OH243554   6.332   6.450  12.662 -0.0185 -0.3221 -0.5769
 7380TIP3    H143555   6.318   6.526  12.718 -2.3209 -1.3121  0.2949
 7380TIP3    H243556   6.374   6.485  12.583 -0.0428  1.6508  0.2386
 7381TIP3   OH243557   0.464   2.793  17.071 -0.0389  0.2597 -0.5286
 7381TIP3    H143558   0.379   2.749  17.069 -0.2156  0.3959  1.5332
 7381TIP3    H243559   0.528   2.723  17.084 -0.0485  0.3432 -0.0141
 7382TIP3   OH243560   3.081   3.896   1.084  0.7277 -0.2338  0.2601
 7382TIP3    H143561   3.125   3.894   0.999  1.5883 -2.3680  0.6818
 7382TIP3    H243562   3.150   3.919   1.146 -0.2927  3.3320  0.2852
 7383TIP3   OH243563   5.358   3.742   3.939  0.1018 -0.2574 -0.3815
 7383TIP3    H143564   5.430   3.802   3.957 -0.2979 -0.0068  0.4025
 7383TIP3    H243565   5.357   3.682   4.014 -0.9752  0.2063 -0.0072
 7384TIP3   OH243566   0.992   0.673  12.417 -0.3610  0.0428  0.0383
 7384TIP3    H143567   0.914   0.629  12.450 -0.7389 -0.6314 -1.6842
 7384TIP3    H243568   0.959   0.755  12.379 -0.2523 -0.2937 -0.7897
 7385TIP3   OH243569   5.176   6.207   2.286  0.1289 -0.3359  0.4551
 7385TIP3    H143570   5.242   6.155   2.240  0.9040 -0.5368  1.7566
 7385TIP3    H243571   5.136   6.147   2.348  0.7420  0.4748  1.6843
 7386TIP3   OH243572   3.671   6.638   0.534 -0.2011  0.2126  1.2746
 7386TIP3    H143573   3.692   6.656   0.626  1.4017  0.2561  0.9282
 7386TIP3    H243574   3.582   6.605   0.536  0.3699 -1.3690  3.0455
 7387TIP3   OH243575   2.958   5.603   4.591 -0.6154  0.2475  0.9765
 7387TIP3    H143576   3.008   5.562   4.661 -0.3971 -0.7714  0.2458
 7387TIP3    H243577   2.981   5.554   4.512 -2.1689  0.2418  0.4816
 7388TIP3   OH243578   0.913   4.220   4.918  0.3766  0.0450  0.2778
 7388TIP3    H143579   0.902   4.297   4.862 -0.8523 -1.1400 -1.2020
 7388TIP3    H243580   1.003   4.192   4.902  0.0576 -0.2705 -1.1939
 7389TIP3   OH243581   5.690   5.610   4.397  0.0608  0.1070 -0.2707
 7389TIP3    H143582   5.783   5.590   4.385  0.2267 -0.2103  1.3453
 7389TIP3    H243583   5.650   5.526   4.421 -0.3915  0.4901  0.3408
 7390TIP3   OH243584   2.430   2.074   2.230  0.5885  0.4228  0.1045
 7390TIP3    H143585   2.432   2.054   2.324 -0.2030  1.9219  0.4694
 7390TIP3    H243586   2.401   2.165   2.226 -0.4805  0.0380 -1.6521
 7391TIP3   OH243587   4.759   2.682   2.416  0.1995  0.5516  0.2487
 7391TIP3    H143588   4.682   2.682   2.358  1.3726  2.6660 -1.4538
 7391TIP3    H243589   4.774   2.590   2.436  0.6858 -0.5917 -4.2841
 7392TIP3   OH243590   3.108   3.633   3.998  0.1550  0.6648  0.4660
 7392TIP3    H143591   3.026   3.641   4.046  0.4597 -0.7862  1.2625
 7392TIP3    H243592   3.157   3.566   4.044 -0.3228 -2.3129 -2.9400
 7393TIP3   OH243593   3.987   2.788  16.362 -0.3073  0.5127  0.3063
 7393TIP3    H143594   4.081   2.809  16.356 -0.7313  2.3013 -1.0377
 7393TIP3    H243595   3.952   2.815  16.277 -1.6450 -2.5594 -0.2428
 7394TIP3   OH243596   1.962   5.386   1.579  0.4434 -0.5519 -0.6479
 7394TIP3    H143597   1.994   5.397   1.668  2.0575 -0.4017 -1.2146
 7394TIP3    H243598   1.888   5.326   1.587 -0.2038  0.4008  0.9200
 7395TIP3   OH243599   6.577   3.948   2.152  0.6308 -0.1125 -0.0845
 7395TIP3    H143600   6.582   3.905   2.067 -0.6478  2.1603 -1.3886
 7395TIP3    H243601   6.650   4.010   2.152 -0.0566  0.7092 -0.0257
 7396TIP3   OH243602   6.296   0.948   6.258  0.5028 -0.5261 -0.2530
 7396TIP3    H143603   6.293   0.979   6.168 -1.0766 -1.3195 -0.4940
 7396TIP3    H243604   6.323   0.857   6.252 -1.7700 -1.2501 -0.1416
 7397TIP3   OH243605   1.098   5.308  14.149 -0.3243  0.2535  0.0717
 7397TIP3    H143606   1.030   5.266  14.096  2.0164 -1.4558 -1.8302
 7397TIP3    H243607   1.138   5.371  14.089  2.2102 -1.5258 -0.2583
 7398TIP3   OH243608   2.285   2.267   4.705 -0.0638 -0.4019 -0.3208
 7398TIP3    H143609   2.293   2.213   4.627  2.2423 -1.7295  0.7320
 7398TIP3    H243610   2.374   2.271   4.741 -0.9042  0.7832  1.8246
 7399TIP3   OH243611   2.477   1.144  16.982 -0.3190  0.2867  0.1975
 7399TIP3    H143612   2.520   1.229  16.972 -1.7293  1.0875  0.6098
 7399TIP3    H243613   2.411   1.143  16.913  2.3894 -2.3550 -2.6793
 7400TIP3   OH243614   2.997   1.411   5.884  0.2377  0.5464 -0.2891
 7400TIP3    H143615   2.907   1.401   5.916  0.0007  0.6193 -0.9133
 7400TIP3    H243616   2.998   1.363   5.801  1.7470 -2.5267  1.3478
 7401TIP3   OH243617   0.155   0.569   3.682 -0.0034 -0.3117  0.0898
 7401TIP3    H143618   0.245   0.599   3.671  0.2794 -1.1884 -0.1422
 7401TIP3    H243619   0.121   0.563   3.593 -0.8615  1.6154  0.2546
 7402TIP3   OH243620   3.805   1.172  17.393 -0.2766  0.2111  0.3765
 7402TIP3    H143621   3.807   1.153  17.486  1.0848  2.4588  0.8909
 7402TIP3    H243622   3.889   1.216  17.376 -0.2703 -0.5819 -2.0167
 7403TIP3   OH243623   6.622   1.824  12.049 -0.0367 -0.3885  0.3828
 7403TIP3    H143624   6.634   1.751  11.988 -2.2433  0.8613 -1.7230
 7403TIP3    H243625   6.677   1.893  12.014 -3.1687  1.1884 -1.9319
 7404TIP3   OH243626   3.550   5.673  11.443 -0.6188  0.6462 -0.1092
 7404TIP3    H143627   3.631   5.659  11.493  0.1078 -1.2603 -1.6817
 7404TIP3    H243628   3.579   5.720  11.364 -0.8084 -0.9391 -1.1715
 7405TIP3   OH243629   4.673   4.063  16.052  0.3964 -0.2995  0.0155
 7405TIP3    H143630   4.584   4.098  16.051  0.4795 -0.0407 -1.3431
 7405TIP3    H243631   4.689   4.038  16.143 -0.7687  0.3953  0.4294
 7406TIP3   OH243632   2.051   0.554   2.403 -0.4986 -0.2664  0.3486
 7406TIP3    H143633   2.032   0.604   2.323  0.5759 -0.3453  0.0380
 7406TIP3    H243634   2.126   0.500   2.381  1.2073  1.2525  2.0315
 7407TIP3   OH243635   3.336   1.847   6.274 -0.0018  0.4125 -0.0858
 7407TIP3    H143636   3.334   1.762   6.317 -1.2412 -0.5025 -1.8344
 7407TIP3    H243637   3.421   1.848   6.228 -0.3810 -0.3253 -0.8388
 7408TIP3   OH243638   1.783   1.174   4.785 -0.0426  0.1857 -0.3497
 7408TIP3    H143639   1.755   1.199   4.873 -0.6143  1.8512 -0.9629
 7408TIP3    H243640   1.707   1.130   4.747  0.5123 -1.3748  0.2691
 7409TIP3   OH243641   5.265   5.600  13.372 -0.1122 -0.1455  0.6021
 7409TIP3    H143642   5.346   5.637  13.408 -0.5640  0.2440  1.2582
 7409TIP3    H243643   5.208   5.676  13.359 -0.4835 -0.4474  0.4485
 7410TIP3   OH243644   1.005   2.778  11.266  0.1305 -0.1572 -0.1706
 7410TIP3    H143645   0.976   2.713  11.329  2.7799 -0.9752  0.3314
 7410TIP3    H243646   1.031   2.727  11.189  0.2061  0.5097 -0.5945
 7411TIP3   OH243647   2.477   4.739   5.445  1.0690 -0.2244  0.2935
 7411TIP3    H143648   2.400   4.784   5.480  0.7592  1.5998 -2.4592
 7411TIP3    H243649   2.457   4.646   5.457 -0.6945  0.2378  1.3439
 7412TIP3   OH243650   4.806   3.168   1.898  0.5267  0.1244  0.1116
 7412TIP3    H143651   4.891   3.205   1.922  0.3401 -0.3948  1.6632
 7412TIP3    H243652   4.762   3.151   1.982  0.5135 -3.4070 -0.4486
 7413TIP3   OH243653   5.986   1.084   2.795 -0.3917 -0.0018 -0.3768
 7413TIP3    H143654   6.075   1.075   2.830  0.5776  0.9879 -2.4585
 7413TIP3    H243655   5.931   1.038   2.859  1.4070  0.5847  1.7171
 7414TIP3   OH243656   4.269   5.214  17.141  0.7131  0.4130 -0.2484
 7414TIP3    H143657   4.341   5.155  17.164  0.6553 -0.0529 -1.2558
 7414TIP3    H243658   4.302   5.301  17.165  2.2171  0.3872 -2.0490
 7415TIP3   OH243659   2.877   4.236   3.549  0.0021 -0.0239  0.0740
 7415TIP3    H143660   2.951   4.194   3.592  0.3900 -0.0533 -0.6074
 7415TIP3    H243661   2.906   4.327   3.535 -0.6271  0.3436  1.0612
 7416TIP3   OH243662   5.732   6.292  15.579 -0.2435  0.0511 -0.5058
 7416TIP3    H143663   5.737   6.367  15.638 -0.1711  0.2813 -0.7999
 7416TIP3    H243664   5.643   6.258  15.592  0.4506 -1.2054  1.2899
 7417TIP3   OH243665   2.237   0.977  12.382  0.5841 -0.5772 -0.0798
 7417TIP3    H143666   2.289   1.046  12.341 -1.9384  0.1801 -2.3527
 7417TIP3    H243667   2.166   1.023  12.426  0.0433 -1.6316  0.1883
 7418TIP3   OH243668   0.929   4.893   5.224 -0.1368 -0.2956  0.2911
 7418TIP3    H143669   0.874   4.883   5.146  1.6848 -0.4448 -1.0430
 7418TIP3    H243670   0.963   4.806   5.242  0.8632  0.0468  0.1413
 7419TIP3   OH243671   2.869   0.685   4.343 -0.3844 -0.5651  0.3209
 7419TIP3    H143672   2.937   0.698   4.277 -1.6490 -1.3870 -1.1894
 7419TIP3    H243673   2.823   0.768   4.348 -1.1119 -0.8713 -0.8363
 7420TIP3   OH243674   4.157   0.129  13.236  0.1399 -0.2599  0.4663
 7420TIP3    H143675   4.162   0.206  13.180 -2.6198 -0.7250 -0.5783
 7420TIP3    H243676   4.114   0.161  13.316 -2.0619 -0.8399 -0.4169
 7421TIP3   OH243677   0.826   5.858  16.478  0.0751 -0.4265  0.1367
 7421TIP3    H143678   0.901   5.818  16.523  0.5392 -0.3750 -0.5887
 7421TIP3    H243679   0.751   5.808  16.509  0.4352 -0.6611  0.6564
 7422TIP3   OH243680   3.144   2.828  12.273 -0.3273  0.2939 -0.4824
 7422TIP3    H143681   3.058   2.787  12.258 -0.6752  1.5285 -1.9767
 7422TIP3    H243682   3.198   2.799  12.200 -0.3044  1.7250 -1.0601
 7423TIP3   OH243683   5.057   0.286   6.267  0.0090  0.1328  0.7727
 7423TIP3    H143684   5.106   0.207   6.290  0.2535  0.2684  0.7165
 7423TIP3    H243685   5.122   0.346   6.231 -0.5040 -0.4537 -1.2644
 7424TIP3   OH243686   6.573   4.995  16.254  0.2684  0.2468  0.1767
 7424TIP3    H143687   6.655   4.949  16.269 -1.1738 -2.8471 -0.6041
 7424TIP3    H243688   6.527   4.941  16.190 -2.9355  1.0999  1.5733
 7425TIP3   OH243689   4.930   1.348  13.610  0.2688  0.2082 -0.1985
 7425TIP3    H143690   4.840   1.315  13.620  0.0529  0.6805 -0.5667
 7425TIP3    H243691   4.975   1.316  13.689  0.0246 -0.8093 -0.4507
 7426TIP3   OH243692   0.089   4.388  14.065 -0.1935 -0.0572  0.4881
 7426TIP3    H143693   0.137   4.355  14.141 -1.2434 -0.0386  1.1660
 7426TIP3    H243694   0.053   4.309  14.024 -0.5706  0.0267  0.6561
 7427TIP3   OH243695   3.988   2.587   3.750 -0.5152 -0.3444  0.0036
 7427TIP3    H143696   3.938   2.656   3.793  2.1147  1.4537  0.3893
 7427TIP3    H243697   3.986   2.610   3.657  1.4750  1.1381  0.2672
 7428TIP3   OH243698   1.758   0.783  12.620 -0.5345 -0.0138 -0.4963
 7428TIP3    H143699   1.844   0.751  12.593  0.5604  2.7200 -0.6512
 7428TIP3    H243700   1.735   0.848  12.553 -1.8650  0.6199  0.5291
 7429TIP3   OH243701   3.261   1.397   2.282 -0.3463  0.5967 -0.2144
 7429TIP3    H143702   3.346   1.420   2.244 -0.4729 -0.5995 -1.2818
 7429TIP3    H243703   3.224   1.481   2.309  1.3981  1.0996  0.8143
 7430TIP3   OH243704   4.899   1.204  10.421  0.8007  0.1746 -0.3762
 7430TIP3    H143705   4.894   1.190  10.515  1.3984  0.3060 -0.3227
 7430TIP3    H243706   4.863   1.292  10.408  1.6594  0.5762 -0.1460
 7431TIP3   OH243707   3.300   3.002   5.323 -0.1329  0.3230  0.4688
 7431TIP3    H143708   3.327   3.093   5.336  1.3475 -0.0163 -0.0388
 7431TIP3    H243709   3.220   3.007   5.271 -1.2385  1.3860  2.1924
 7432TIP3   OH243710   3.460   3.947   2.288  0.0063  0.4375 -0.1193
 7432TIP3    H143711   3.475   4.016   2.352 -2.7926  1.1650 -0.1028
 7432TIP3    H243712   3.491   3.985   2.205 -1.3226  1.7021 -0.0802
 7433TIP3   OH243713   4.568   3.731  14.309 -0.5907  0.2439 -0.1248
 7433TIP3    H143714   4.571   3.774  14.394 -0.8201  1.7062 -0.8329
 7433TIP3    H243715   4.492   3.672  14.314  0.7540 -1.4687  1.4560
 7434TIP3   OH243716   4.224   5.920  15.574 -0.3752  0.0645  0.2578
 7434TIP3    H143717   4.139   5.893  15.609  0.0701 -1.4931  0.2152
 7434TIP3    H243718   4.284   5.913  15.648  0.5233 -3.0219 -0.5767
 7435TIP3   OH243719   4.523   4.081   4.910 -0.0039  0.6032 -0.0048
 7435TIP3    H143720   4.536   3.987   4.899  0.4877  0.8635 -2.2721
 7435TIP3    H243721   4.516   4.114   4.820  0.0211  2.7522  0.7351
 7436TIP3   OH243722   2.092   2.407  17.366  0.5253  0.1727  0.3750
 7436TIP3    H143723   2.120   2.497  17.384  2.6895  0.1152 -2.1406
 7436TIP3    H243724   2.162   2.352  17.402  1.5511 -0.2072 -2.0131
 7437TIP3   OH243725   0.826   0.980  16.456  0.0208  0.2551 -0.0229
 7437TIP3    H143726   0.902   0.927  16.429  0.7614  1.5615 -0.5826
 7437TIP3    H243727   0.786   0.929  16.527  0.3356 -1.3436 -0.9531
 7438TIP3   OH243728   5.296   4.374  12.870  0.0099 -0.6357  0.9724
 7438TIP3    H143729   5.208   4.342  12.848 -0.2614  1.4753 -1.4337
 7438TIP3    H243730   5.281   4.441  12.936 -0.7875  2.3485 -1.9638
 7439TIP3   OH243731   1.952   1.570  13.762 -0.0429 -0.4536  0.3662
 7439TIP3    H143732   1.936   1.488  13.716  1.1675 -0.3587 -0.2486
 7439TIP3    H243733   2.032   1.606  13.723 -2.0776  2.5439 -1.5008
 7440TIP3   OH243734   4.498   0.686  14.514 -0.3808  0.2950 -0.2665
 7440TIP3    H143735   4.408   0.672  14.482 -0.7526 -1.3751  1.3168
 7440TIP3    H243736   4.504   0.630  14.592  2.9982 -2.2173 -2.0520
 7441TIP3   OH243737   1.891   1.047  11.356 -0.1420  0.3434  0.3275
 7441TIP3    H143738   1.962   0.988  11.328  0.0347 -0.1974  1.7995
 7441TIP3    H243739   1.934   1.132  11.367  0.2080  0.1086  0.8276
 7442TIP3   OH243740   1.298   4.601  13.603 -0.8229 -0.9489  0.2441
 7442TIP3    H143741   1.263   4.603  13.692  0.9201 -1.5606  0.9741
 7442TIP3    H243742   1.223   4.624  13.548 -1.7995  0.0400  1.8937
 7443TIP3   OH243743   3.638   6.705  15.645 -0.0674 -0.7049  0.4958
 7443TIP3    H143744   3.614   6.797  15.658 -0.6141 -0.7432 -0.1280
 7443TIP3    H243745   3.654   6.671  15.733 -0.9671 -0.2962  0.8301
 7444TIP3   OH243746   6.126   2.942   3.864 -0.0147 -0.3457 -0.5195
 7444TIP3    H143747   6.088   2.999   3.797 -0.9565 -0.5534 -0.1808
 7444TIP3    H243748   6.167   3.001   3.927  2.8275 -0.1906 -2.3422
 7445TIP3   OH243749   4.681   1.930  14.638  0.6252 -0.1685  1.3619
 7445TIP3    H143750   4.657   1.900  14.726  1.6503 -0.8334  1.4304
 7445TIP3    H243751   4.661   2.024  14.639 -0.4599 -0.3901  1.9146
 7446TIP3   OH243752   3.143   6.063   5.428 -0.0036  0.2904 -0.8664
 7446TIP3    H143753   3.192   6.058   5.509 -0.6091 -0.6050 -0.5437
 7446TIP3    H243754   3.205   6.035   5.360  0.4726  0.9521 -0.7152
 7447TIP3   OH243755   6.039   3.749  13.611  0.2842 -0.2982  0.1769
 7447TIP3    H143756   6.003   3.799  13.537 -0.7160 -0.3289  0.6277
 7447TIP3    H243757   6.121   3.794  13.633 -1.1495  1.9237  1.3360
 7448TIP3   OH243758   3.513   2.384   4.914  0.1950 -0.0748 -0.2354
 7448TIP3    H143759   3.510   2.465   4.863  0.7359  0.4232  0.4961
 7448TIP3    H243760   3.542   2.412   5.001 -2.1730 -0.6568  0.8344
 7449TIP3   OH243761   3.078   2.477  14.916  0.4181 -0.3919 -0.8410
 7449TIP3    H143762   3.019   2.528  14.971 -0.4946 -1.5831 -0.7043
 7449TIP3    H243763   3.127   2.423  14.977  0.5107 -0.5838 -1.0845
 7450TIP3   OH243764   6.093   1.897   6.087 -0.2099  0.0188 -0.2610
 7450TIP3    H143765   6.132   1.942   6.162 -0.0654  1.1678 -0.9884
 7450TIP3    H243766   6.011   1.861   6.120  0.1656 -0.0495  0.6100
 7451TIP3   OH243767   5.523   4.969  10.802 -0.9075 -0.1844 -0.1971
 7451TIP3    H143768   5.455   5.028  10.769 -0.5641  0.0558 -0.4782
 7451TIP3    H243769   5.479   4.917  10.868 -1.0124  0.9659  0.6690
 7452TIP3   OH243770   2.345   4.965  16.765  0.2660 -0.6554 -0.3523
 7452TIP3    H143771   2.341   4.921  16.849  0.1303 -0.3854 -0.2163
 7452TIP3    H243772   2.255   4.966  16.734 -0.3891  2.5703  1.2235
 7453TIP3   OH243773   5.885   2.153   6.249 -0.0316  0.5265 -0.3291
 7453TIP3    H143774   5.811   2.198   6.208 -0.1803  1.1032  0.5382
 7453TIP3    H243775   5.907   2.082   6.189 -1.8208 -0.1739 -0.2226
 7454TIP3   OH243776   6.076   5.115   4.724  0.0259  0.0032 -0.3045
 7454TIP3    H143777   6.070   5.192   4.667 -3.3263  0.1336  0.0330
 7454TIP3    H243778   6.157   5.129   4.773  0.9357  1.9098 -2.1590
 7455TIP3   OH243779   5.041   0.136  11.875  0.5144 -0.6832  0.0172
 7455TIP3    H143780   5.075   0.095  11.955 -0.6332 -1.4798  0.1301
 7455TIP3    H243781   4.998   0.216  11.905  1.7477  0.0311 -0.0581
 7456TIP3   OH243782   4.671   4.802  13.358 -0.0061 -0.9285  0.4203
 7456TIP3    H143783   4.736   4.869  13.335  0.4532 -1.0283  1.3792
 7456TIP3    H243784   4.598   4.851  13.396 -0.0793 -0.9026  0.2507
 7457TIP3   OH243785   3.668   0.025  15.120 -0.6414 -0.3066 -0.4480
 7457TIP3    H143786   3.633   0.109  15.091  0.4747  1.2295  2.2194
 7457TIP3    H243787   3.607  -0.003  15.189 -0.3726 -1.1026 -0.5301
 7458TIP3   OH243788   1.623   1.095  14.012 -0.5262  0.5443 -0.0466
 7458TIP3    H143789   1.664   1.167  13.962 -1.3278  0.3682 -0.9936
 7458TIP3    H243790   1.549   1.136  14.057  0.3291  0.7482  1.2195
 7459TIP3   OH243791   6.625   5.096   3.843  0.1509 -0.1122  0.2198
 7459TIP3    H143792   6.557   5.112   3.777  0.4312 -1.4183 -0.4149
 7459TIP3    H243793   6.698   5.153   3.815  0.1683 -0.4515 -0.4559
 7460TIP3   OH243794   2.060   5.793  13.935  0.2982 -0.1644  0.1761
 7460TIP3    H143795   2.153   5.773  13.942  0.4817  0.3303 -0.6161
 7460TIP3    H243796   2.041   5.786  13.841  0.0183  1.7204  0.0503
 7461TIP3   OH243797   2.313   2.686   3.826 -0.2978  0.5350 -0.3068
 7461TIP3    H143798   2.353   2.630   3.892 -0.3844  0.6176 -0.1824
 7461TIP3    H243799   2.262   2.749   3.877 -1.4757 -0.2337 -0.4916
 7462TIP3   OH243800   2.716   6.364  14.679 -0.1085  0.0844 -0.3649
 7462TIP3    H143801   2.809   6.348  14.666  0.1973  1.1796  0.3472
 7462TIP3    H243802   2.703   6.354  14.774 -0.7746 -0.3434 -0.4967
 7463TIP3   OH243803   2.471   2.118   2.505  0.8124  0.4991  0.1878
 7463TIP3    H143804   2.451   2.052   2.571 -0.8386  0.5207 -0.2576
 7463TIP3    H243805   2.480   2.199   2.553  1.1903  0.2441  0.5535
 7464TIP3   OH243806   5.053   3.650  14.829  0.2430 -0.1321  0.5059
 7464TIP3    H143807   5.037   3.568  14.783  0.8232 -1.2803  2.2441
 7464TIP3    H243808   4.998   3.644  14.907  0.1727  1.2185  0.5799
 7465TIP3   OH243809   3.300   3.349  14.166  0.0396 -0.2013  0.5591
 7465TIP3    H143810   3.281   3.291  14.240  0.4068  0.5270  1.2498
 7465TIP3    H243811   3.391   3.327  14.143  0.6798  1.0249  1.7403
 7466TIP3   OH243812   3.641   1.671   1.292  0.0709  0.1574 -0.5522
 7466TIP3    H143813   3.708   1.611   1.259  0.6329 -0.0128  0.8359
 7466TIP3    H243814   3.558   1.628   1.271  0.4209 -0.2837 -1.0692
 7467TIP3   OH243815   3.055   4.092  16.248 -0.2550  0.5866 -0.4495
 7467TIP3    H143816   3.071   4.011  16.199 -0.6111 -0.0190  0.4142
 7467TIP3    H243817   3.113   4.156  16.207  1.7487 -0.6598  0.2915
 7468TIP3   OH243818   2.949   5.322  15.985  0.0314 -0.6136 -0.0407
 7468TIP3    H143819   3.041   5.342  15.999  0.2467 -0.7117 -1.1975
 7468TIP3    H243820   2.922   5.275  16.064  1.4945 -2.2836 -0.4649
 7469TIP3   OH243821   5.078   0.799  12.300 -0.0794  0.6302  0.0281
 7469TIP3    H143822   4.992   0.758  12.290 -0.1245  1.0743 -1.9810
 7469TIP3    H243823   5.074   0.877  12.244  1.8322  0.2821 -0.6863
 7470TIP3   OH243824   3.042   6.683   0.728  0.2498  0.0813  0.5711
 7470TIP3    H143825   2.977   6.613   0.725  0.6384 -0.2488 -0.2982
 7470TIP3    H243826   3.045   6.708   0.821  0.3681 -1.2889  0.9596
 7471TIP3   OH243827   0.041   5.441  14.111  0.1108  0.5497  0.0393
 7471TIP3    H143828   0.074   5.369  14.057  0.0344 -0.6982  1.5947
 7471TIP3    H243829  -0.052   5.446  14.090  0.4648  1.4802 -1.4562
 7472TIP3   OH243830   0.180   3.041   4.603 -0.2208  0.4174 -0.1322
 7472TIP3    H143831   0.222   3.127   4.607 -0.7575  0.6368  1.5281
 7472TIP3    H243832   0.220   2.992   4.676 -1.7896  0.1609  0.5901
 7473TIP3   OH243833   1.542   4.817  11.602 -0.0651 -0.1540 -0.3580
 7473TIP3    H143834   1.555   4.858  11.517  0.8805  1.7876  0.6481
 7473TIP3    H243835   1.620   4.840  11.652 -0.7969 -0.8621  1.1795
 7474TIP3   OH243836   3.918   6.465   4.370 -0.1783  0.0562 -0.0759
 7474TIP3    H143837   3.945   6.456   4.462  1.2008 -0.2698 -0.4765
 7474TIP3    H243838   3.823   6.468   4.373 -0.1420  0.9419  1.4447
 7475TIP3   OH243839   4.527   1.902   4.518 -0.3431  0.1245  0.1385
 7475TIP3    H143840   4.505   1.845   4.592 -1.8617  1.1926  0.5415
 7475TIP3    H243841   4.596   1.854   4.471 -0.0183 -1.0160  1.6911
 7476TIP3   OH243842   0.486   3.817   3.545 -0.2470 -0.9569  0.1574
 7476TIP3    H143843   0.471   3.732   3.587  0.3673 -0.8471  0.6192
 7476TIP3    H243844   0.561   3.802   3.488 -0.0249 -0.6821  0.3760
 7477TIP3   OH243845   5.504   5.383  13.331  0.4119 -0.0892 -0.5600
 7477TIP3    H143846   5.478   5.350  13.417 -1.0616 -0.4799 -1.1333
 7477TIP3    H243847   5.572   5.448  13.350  0.7112 -0.7646  0.8319
 7478TIP3   OH243848   3.457   0.706   3.316  0.0834 -0.0430  0.1906
 7478TIP3    H143849   3.531   0.764   3.298 -1.6945  3.2296  2.3999
 7478TIP3    H243850   3.490   0.646   3.383  1.1962  0.1775 -0.1285
 7479TIP3   OH243851   2.305   4.784  10.609 -0.5205 -0.4479  0.0442
 7479TIP3    H143852   2.388   4.768  10.563  0.1325 -2.5973  1.7690
 7479TIP3    H243853   2.295   4.879  10.609  2.5549 -0.0209  0.7120
 7480TIP3   OH243854   0.464   0.740   1.631  0.1502  0.4443  0.2766
 7480TIP3    H143855   0.543   0.767   1.582 -0.7571  1.9699 -0.4454
 7480TIP3    H243856   0.392   0.766   1.574 -0.8985 -1.0596  0.8683
 7481TIP3   OH243857   3.656   5.098   2.182  0.1894 -0.5936  0.2988
 7481TIP3    H143858   3.698   5.155   2.247  0.0202  0.3381 -0.3839
 7481TIP3    H243859   3.575   5.144   2.160  0.8674 -0.2125 -1.5456
 7482TIP3   OH243860   4.222   1.822   4.788  0.9206  0.2264 -0.7987
 7482TIP3    H143861   4.231   1.849   4.879  0.9023 -1.3730 -0.2854
 7482TIP3    H243862   4.176   1.894   4.746  0.0092  0.5667  0.7024
 7483TIP3   OH243863   6.521   4.060  12.813  0.0159 -0.3659 -0.7034
 7483TIP3    H143864   6.563   4.138  12.777 -1.0029  0.8123  0.5734
 7483TIP3    H243865   6.555   3.988  12.759  4.0643  0.3755  0.4626
 7484TIP3   OH243866   3.869   2.057  17.070  0.1408 -0.0019 -0.5024
 7484TIP3    H143867   3.896   1.997  17.140 -0.6435  2.2410  1.8776
 7484TIP3    H243868   3.883   2.007  16.990  3.1430 -1.9953  1.0584
 7485TIP3   OH243869   4.932   4.016   2.574  0.0646 -0.1618  0.0870
 7485TIP3    H143870   4.839   4.008   2.594 -0.0887  1.2748  0.0988
 7485TIP3    H243871   4.958   4.098   2.616  1.2378 -0.3284 -0.2754
 7486TIP3   OH243872   2.865   5.259  15.568  0.2527  1.0148  0.3721
 7486TIP3    H143873   2.891   5.235  15.479 -3.1873 -1.0382 -0.2416
 7486TIP3    H243874   2.863   5.354  15.568  4.1733  1.2849 -0.3739
 7487TIP3   OH243875   1.460   1.668   6.369  0.3261 -0.5071 -0.2119
 7487TIP3    H143876   1.376   1.686   6.411  0.4792 -1.4228  0.5320
 7487TIP3    H243877   1.520   1.733   6.405  0.1077 -0.3152 -0.1908
 7488TIP3   OH243878   2.446   0.100  17.325  0.4151  0.4058  0.2968
 7488TIP3    H143879   2.452   0.188  17.361 -1.1492  0.4512  0.5092
 7488TIP3    H243880   2.453   0.112  17.231  0.5150  0.7253  0.3425
 7489TIP3   OH243881   3.627   3.601  17.304  0.1635 -0.3371 -0.2063
 7489TIP3    H143882   3.698   3.553  17.263 -0.9194  0.1168 -2.7966
 7489TIP3    H243883   3.550   3.545  17.293 -0.1595 -0.2696  1.4214
 7490TIP3   OH243884   0.640   2.472  17.390  0.2024 -0.0866  0.1014
 7490TIP3    H143885   0.734   2.491  17.390  0.1241  0.3250 -0.3702
 7490TIP3    H243886   0.598   2.557  17.381 -0.2040 -0.3113 -0.1707
 7491TIP3   OH243887   3.197   4.173   0.100  0.6227 -0.4150 -0.0565
 7491TIP3    H143888   3.212   4.180   0.195  2.4175 -0.0303 -0.3322
 7491TIP3    H243889   3.284   4.166   0.062 -0.0322 -0.0601 -1.7346
 7492TIP3   OH243890   3.158   5.029   6.277 -0.2890 -0.2184  0.3023
 7492TIP3    H143891   3.062   5.022   6.279 -0.2015 -1.3483  0.7896
 7492TIP3    H243892   3.179   5.083   6.354 -0.7100  2.9153 -1.5719
 7493TIP3   OH243893   2.558   4.786  15.059  0.1491  0.0266  0.9670
 7493TIP3    H143894   2.582   4.723  14.991 -0.2608  1.8686 -0.9985
 7493TIP3    H243895   2.478   4.828  15.026 -1.5403 -0.7106  3.7949
 7494TIP3   OH243896   2.881   3.646   0.739  0.1930  0.3149 -0.0050
 7494TIP3    H143897   2.940   3.721   0.727  0.2634  0.2431 -0.1113
 7494TIP3    H243898   2.870   3.610   0.651 -0.3128  0.5542 -0.0429
 7495TIP3   OH243899   2.983   2.847   4.443 -0.2101  0.8484 -0.6053
 7495TIP3    H143900   3.071   2.855   4.406  0.2280 -1.1851 -0.1468
 7495TIP3    H243901   2.993   2.873   4.534  0.3909 -1.1395 -0.0536
 7496TIP3   OH243902   5.775   2.206   5.569 -0.1542 -0.2751 -0.0690
 7496TIP3    H143903   5.698   2.161   5.604  0.9501 -1.9959  0.2934
 7496TIP3    H243904   5.744   2.247   5.488 -1.4036 -1.1509 -0.0677
 7497TIP3   OH243905   6.748   5.916  11.671 -0.1722  0.2587 -0.0103
 7497TIP3    H143906   6.801   5.837  11.656 -0.5879  0.1338 -0.8539
 7497TIP3    H243907   6.658   5.887  11.656 -0.3642  0.8103  0.0698
 7498TIP3   OH243908   6.643   5.111  14.077  0.1082  0.1626 -0.0122
 7498TIP3    H143909   6.618   5.188  14.025 -2.6753 -2.6772 -3.3703
 7498TIP3    H243910   6.577   5.107  14.147 -0.9486 -0.1391 -0.9922
 7499TIP3   OH243911   0.130   6.578   5.103  0.0883  0.2376 -0.0735
 7499TIP3    H143912   0.170   6.659   5.072 -1.9460  1.3538  0.0403
 7499TIP3    H243913   0.173   6.560   5.186  3.0704 -0.8152 -1.7197
 7500TIP3   OH243914   6.554   1.117  15.658 -0.0913  0.3288  0.7351
 7500TIP3    H143915   6.485   1.177  15.631  0.1466  0.1458 -0.3525
 7500TIP3    H243916   6.569   1.062  15.581  0.5701 -0.2866  1.2899
 7501TIP3   OH243917   0.228   6.240   5.757  0.9346  0.1244 -0.5458
 7501TIP3    H143918   0.259   6.231   5.666  3.1644  1.1696  0.0439
 7501TIP3    H243919   0.307   6.236   5.810 -0.3916 -1.1939  1.4669
 7502TIP3   OH243920   5.120   2.048  12.681 -1.0330  0.0548 -0.4403
 7502TIP3    H143921   5.203   2.006  12.706  0.2714  1.4019 -2.2496
 7502TIP3    H243922   5.108   2.117  12.746 -2.2370 -1.8401  1.4621
 7503TIP3   OH243923   0.723   3.296   3.699  0.1879 -0.4888 -0.0093
 7503TIP3    H143924   0.685   3.358   3.761  0.0692 -2.1153  1.6199
 7503TIP3    H243925   0.769   3.232   3.753  1.6420 -0.9807 -1.7063
 7504TIP3   OH243926   0.713   5.899   3.393  0.6820 -0.2383 -0.1094
 7504TIP3    H143927   0.663   5.967   3.438 -0.8864 -0.9750 -0.6900
 7504TIP3    H243928   0.692   5.910   3.301  1.1644 -0.9097 -0.3082
 7505TIP3   OH243929   4.893   5.089   5.507 -0.1088 -0.4555 -0.2199
 7505TIP3    H143930   4.950   5.124   5.575  0.8888  0.5767 -1.5375
 7505TIP3    H243931   4.852   5.166   5.467 -1.1132 -1.0742 -0.4313
 7506TIP3   OH243932   1.611   1.314  10.718 -0.6408  0.2337 -0.2610
 7506TIP3    H143933   1.700   1.340  10.696  0.3764 -3.1790 -0.8101
 7506TIP3    H243934   1.555   1.359  10.655  0.5113  3.1558  0.6705
 7507TIP3   OH243935   4.589   4.495  11.311 -0.3967  0.1543  0.1855
 7507TIP3    H143936   4.544   4.411  11.326  1.5628 -1.2316 -1.1583
 7507TIP3    H243937   4.555   4.525  11.227 -0.6655  0.4062  0.3842
 7508TIP3   OH243938   2.486   1.397   5.059 -0.1224  0.0625  0.0108
 7508TIP3    H143939   2.439   1.429   5.137 -1.5652 -0.0039 -0.7985
 7508TIP3    H243940   2.523   1.475   5.020 -2.1705  0.5944 -1.0004
 7509TIP3   OH243941   1.598   0.394   3.377  0.1820  0.2932 -0.4110
 7509TIP3    H143942   1.690   0.369   3.381 -0.5647 -2.9611 -0.3699
 7509TIP3    H243943   1.560   0.357   3.456 -1.1250  1.9593 -0.2047
 7510TIP3   OH243944   5.084   4.102  16.386  0.0830 -0.1876 -0.2016
 7510TIP3    H143945   5.062   4.024  16.335 -1.6589  0.7741 -0.9792
 7510TIP3    H243946   5.173   4.124  16.357  0.5929 -1.8164  0.0001
 7511TIP3   OH243947   3.926   1.248   4.048 -0.2468  0.7467  0.5491
 7511TIP3    H143948   3.848   1.201   4.018 -0.4399  0.7485  1.0476
 7511TIP3    H243949   3.892   1.318   4.104  0.1908 -0.2201  2.0695
 7512TIP3   OH243950   5.301   3.722   5.896  0.3291  0.9709  0.0112
 7512TIP3    H143951   5.289   3.815   5.918 -0.9259  0.7372  0.4000
 7512TIP3    H243952   5.386   3.719   5.853  0.3266  2.3322 -0.1508
 7513TIP3   OH243953   4.836   4.861   3.918  0.3809 -0.4854  0.2280
 7513TIP3    H143954   4.832   4.919   3.842 -0.2915  1.4331  1.6676
 7513TIP3    H243955   4.919   4.883   3.961 -0.9858  1.2599  2.1257
 7514TIP3   OH243956   0.029   2.841   4.112  0.2179  0.0383  0.3377
 7514TIP3    H143957  -0.035   2.912   4.110  2.5428  2.3833  1.8494
 7514TIP3    H243958   0.091   2.862   4.041 -0.6487 -2.2758 -1.2293
 7515TIP3   OH243959   4.668   6.436   1.008  0.3640  0.0166 -0.1090
 7515TIP3    H143960   4.735   6.495   1.042  0.0784 -0.1554  0.7776
 7515TIP3    H243961   4.658   6.370   1.076 -2.0506  1.0779  0.6599
 7516TIP3   OH243962   0.183   3.473   0.545  0.3316  0.3711 -0.0842
 7516TIP3    H143963   0.181   3.519   0.461  1.0718  0.1167 -0.2541
 7516TIP3    H243964   0.212   3.384   0.523 -2.2143 -0.5632  0.0866
 7517TIP3   OH243965   4.320   5.132  11.041 -0.1113  1.0049 -0.5304
 7517TIP3    H143966   4.276   5.047  11.045  2.3799 -0.5966 -3.0257
 7517TIP3    H243967   4.320   5.154  10.948  3.2834  1.3476 -0.5791
 7518TIP3   OH243968   6.604   1.404  12.218  0.0859 -0.0203  0.5857
 7518TIP3    H143969   6.664   1.389  12.145  2.5486 -0.4893  2.5819
 7518TIP3    H243970   6.529   1.348  12.200  1.9758 -2.4827 -0.1133
 7519TIP3   OH243971   2.216   5.360  16.480 -0.0973  0.2451 -0.2485
 7519TIP3    H143972   2.232   5.394  16.392  1.6087 -1.0723 -0.5119
 7519TIP3    H243973   2.206   5.266  16.468 -3.4938  0.3673  0.6026
 7520TIP3   OH243974   0.832   5.593  10.593 -0.0374 -0.6057  0.5894
 7520TIP3    H143975   0.789   5.671  10.558  0.0732 -1.4092 -1.5226
 7520TIP3    H243976   0.912   5.626  10.635  0.1374  0.4182 -0.4747
 7521TIP3   OH243977   0.616   5.529   4.655 -0.1350 -0.6466 -0.4397
 7521TIP3    H143978   0.706   5.517   4.685 -0.1668 -0.4675 -0.2644
 7521TIP3    H243979   0.618   5.511   4.561  0.2617  0.2300 -0.6049
 7522TIP3   OH243980   4.416   4.819  16.359 -0.2199  0.3638 -0.8667
 7522TIP3    H143981   4.478   4.867  16.304  1.3558 -0.1984  0.3462
 7522TIP3    H243982   4.452   4.730  16.364 -1.1529  0.0048 -0.1759
 7523TIP3   OH243983   4.665   0.435   2.888  0.6135  0.0156 -0.2352
 7523TIP3    H143984   4.726   0.492   2.841 -0.0326 -0.1644 -1.3269
 7523TIP3    H243985   4.578   0.464   2.859  0.2361 -0.7649  0.0943
 7524TIP3   OH243986   2.519   1.409   0.878  0.0986  0.2553  0.1790
 7524TIP3    H143987   2.499   1.332   0.826  0.2328 -0.0472  0.5654
 7524TIP3    H243988   2.460   1.402   0.954 -1.4154  1.6490 -0.8031
 7525TIP3   OH243989   2.657   6.430  15.827  0.1579  0.0268  0.5810
 7525TIP3    H143990   2.648   6.447  15.921 -1.3251  0.4757  0.3865
 7525TIP3    H243991   2.609   6.502  15.786  0.6635 -0.2522 -0.5157
 7526TIP3   OH243992   4.361   4.987   5.978 -0.3265 -0.2407  0.0074
 7526TIP3    H143993   4.333   4.984   6.070 -1.6102  0.8096 -0.3188
 7526TIP3    H243994   4.443   5.035   5.979  0.8943 -2.2156  0.8409
 7527TIP3   OH243995   0.769   4.330  11.715  0.4265  0.0560  0.2251
 7527TIP3    H143996   0.767   4.358  11.806  2.2976 -3.2618  1.4510
 7527TIP3    H243997   0.735   4.240  11.716  1.8418 -0.6007 -2.0615
 7528TIP3   OH243998   0.588   4.942  10.808  0.5437 -0.8013  0.0536
 7528TIP3    H143999   0.550   4.924  10.894  1.3403 -1.2432  0.3140
 7528TIP3    H244000   0.646   5.016  10.822 -0.1374 -0.1801 -0.3310
 7529TIP3   OH244001   4.466   6.547  14.091  0.4770  0.4719  0.4392
 7529TIP3    H144002   4.394   6.602  14.059 -0.3285 -0.5077  0.5428
 7529TIP3    H244003   4.502   6.596  14.165 -0.4735  0.6954  0.7682
 7530TIP3   OH244004   4.683   2.051  12.861 -0.1315  0.1449 -0.2794
 7530TIP3    H144005   4.692   2.067  12.955  2.6343 -0.9441 -0.2604
 7530TIP3    H244006   4.692   2.137  12.821 -1.6567  0.6673  0.3955
 7531TIP3   OH244007   6.208   0.845  16.583  0.1893 -0.2465  0.5222
 7531TIP3    H144008   6.233   0.862  16.674 -0.1869  1.7575  0.2919
 7531TIP3    H244009   6.265   0.901  16.531 -2.3013  1.8242 -0.2016
 7532TIP3   OH244010   3.203   1.423   4.759 -0.2194 -0.0867 -0.5243
 7532TIP3    H144011   3.199   1.327   4.761  3.0242 -0.3346 -0.0761
 7532TIP3    H244012   3.120   1.449   4.720 -2.2427 -2.9146  1.4630
 7533TIP3   OH244013   1.696   0.783   3.015  0.5193  0.2723 -0.2140
 7533TIP3    H144014   1.706   0.747   3.103 -0.6334  2.0653  0.7060
 7533TIP3    H244015   1.776   0.757   2.969  1.2274 -0.5445  1.4053
 7534TIP3   OH244016   2.304   2.168  14.958 -0.5586 -0.1290 -0.9117
 7534TIP3    H144017   2.329   2.146  15.047 -0.9183 -0.2518 -0.8421
 7534TIP3    H244018   2.228   2.225  14.967 -1.1428 -0.8579 -1.1650
 7535TIP3   OH244019   0.334   2.968   1.604 -0.1505 -0.0108  0.1525
 7535TIP3    H144020   0.373   3.041   1.652  1.0702  0.5102 -1.5321
 7535TIP3    H244021   0.396   2.951   1.532 -1.3074 -1.5219 -0.5440
 7536TIP3   OH244022   0.132   5.800   1.153 -0.0811  0.1121 -0.3653
 7536TIP3    H144023   0.159   5.800   1.061  0.8733 -0.1786 -0.0984
 7536TIP3    H244024   0.213   5.787   1.202 -0.6688 -0.4506  0.4956
 7537TIP3   OH244025   1.051   3.697  10.903  0.3227  0.3899 -0.2161
 7537TIP3    H144026   1.057   3.616  10.853  0.1095 -0.0155  0.3951
 7537TIP3    H244027   0.958   3.720  10.898  0.1991  0.0650  0.4052
 7538TIP3   OH244028   2.922   6.146  15.514  0.4702  0.1708  0.7152
 7538TIP3    H144029   2.837   6.189  15.516 -0.8839 -2.1153 -1.7360
 7538TIP3    H244030   2.983   6.212  15.549 -1.9187  2.7054  0.4407
 7539TIP3   OH244031   1.827   6.345  15.962  0.3614  0.3552 -0.1646
 7539TIP3    H144032   1.907   6.329  16.013  1.2952 -1.6664 -2.1055
 7539TIP3    H244033   1.781   6.261  15.962 -0.3557  0.7164 -1.3790
 7540TIP3   OH244034   5.739   5.308  12.113  0.8381 -0.0814  0.4845
 7540TIP3    H144035   5.683   5.371  12.068 -1.0735 -0.1234  2.6047
 7540TIP3    H244036   5.678   5.252  12.160  2.6410 -0.8300  2.0464
 7541TIP3   OH244037   0.176   3.851  12.858 -1.0492  0.0953 -0.2879
 7541TIP3    H144038   0.140   3.889  12.938 -0.9195  0.6749 -0.5042
 7541TIP3    H244039   0.143   3.761  12.858  2.5013 -1.5048  2.7729
 7542TIP3   OH244040   5.118   3.259   3.336  0.7117  0.4544  0.0025
 7542TIP3    H144041   5.099   3.236   3.245  0.7669  0.8558 -0.1128
 7542TIP3    H244042   5.108   3.354   3.339  0.8265  0.4546  0.3887
 7543TIP3   OH244043   1.269   1.759   1.438 -0.3079 -0.0998 -0.0757
 7543TIP3    H144044   1.332   1.710   1.385  0.9772  1.4618 -0.0656
 7543TIP3    H244045   1.307   1.760   1.526 -1.0451 -0.3127  0.2554
 7544TIP3   OH244046   2.760   4.584  13.347  1.0230  0.1446 -0.5828
 7544TIP3    H144047   2.716   4.510  13.389  0.2515  0.2780 -1.1408
 7544TIP3    H244048   2.853   4.571  13.367  0.5269  1.8378  3.8012
 7545TIP3   OH244049   3.837   3.671   3.944 -0.2916  0.2049 -0.1515
 7545TIP3    H144050   3.909   3.609   3.957 -0.6018 -0.4486 -1.3498
 7545TIP3    H244051   3.763   3.616   3.918 -0.9106  0.9773 -0.0454
 7546TIP3   OH244052   2.181   6.744  11.343  0.2673  0.7899 -0.2583
 7546TIP3    H144053   2.152   6.813  11.284 -1.0686  0.7393  0.3060
 7546TIP3    H244054   2.248   6.696  11.293  1.5252  2.7028 -0.5040
 7547TIP3   OH244055   0.700   1.962  13.024 -0.3939 -0.3235  0.5957
 7547TIP3    H144056   0.711   1.872  13.054 -0.4452 -0.6467 -0.3180
 7547TIP3    H244057   0.608   1.982  13.039  0.1952  0.6707  3.6505
 7548TIP3   OH244058   2.661   4.149   4.546  0.3934  0.6296 -0.2131
 7548TIP3    H144059   2.727   4.215   4.567  1.2939 -0.1000 -0.7018
 7548TIP3    H244060   2.598   4.154   4.618  0.1561  2.3859 -0.5018
 7549TIP3   OH244061   1.689   4.733  12.687  0.3779 -1.0182 -0.3127
 7549TIP3    H144062   1.728   4.739  12.774  0.8568  1.1130 -0.6133
 7549TIP3    H244063   1.597   4.758  12.700  0.1119 -1.9801 -0.2475
 7550TIP3   OH244064   4.452   4.270   0.412  0.2432  0.1654  0.3366
 7550TIP3    H144065   4.466   4.339   0.347  1.0109  0.5945  0.9323
 7550TIP3    H244066   4.359   4.248   0.404 -0.2565  1.9280  0.7503
 7551TIP3   OH244067   2.103   6.062  16.826  0.0513  0.1170 -0.3485
 7551TIP3    H144068   2.011   6.068  16.801  0.3464 -1.1044 -1.8947
 7551TIP3    H244069   2.120   6.141  16.877 -2.3886 -0.6620  1.8799
 7552TIP3   OH244070   4.975   1.701   0.655 -0.5868  0.3170 -0.0719
 7552TIP3    H144071   4.977   1.637   0.584 -0.3595  1.5937 -1.2767
 7552TIP3    H244072   4.944   1.653   0.731 -0.3395 -1.2244 -0.9164
 7553TIP3   OH244073   2.133   4.404   2.814 -0.0154  0.8353 -0.0301
 7553TIP3    H144074   2.103   4.320   2.848  1.4187  0.0128 -0.7463
 7553TIP3    H244075   2.115   4.466   2.885 -2.3117  0.2094  0.0075
 7554TIP3   OH244076   5.794   0.809  11.194  0.2787  0.5099 -0.6130
 7554TIP3    H144077   5.751   0.856  11.122  0.8828 -0.7309 -1.8195
 7554TIP3    H244078   5.723   0.788  11.255 -0.2818  1.3383 -0.9627
 7555TIP3   OH244079   2.044   1.240   2.118  0.0005 -0.6613  0.4463
 7555TIP3    H144080   2.098   1.304   2.073  1.3035 -3.4398 -2.3621
 7555TIP3    H244081   1.956   1.253   2.083 -0.2268  0.7682  1.4332
 7556TIP3   OH244082   0.921   4.413  16.955 -0.0735  0.4186  0.0735
 7556TIP3    H144083   0.828   4.438  16.953 -0.2000  0.1931  1.6920
 7556TIP3    H244084   0.943   4.395  16.864 -1.5819  0.6302 -0.3596
 7557TIP3   OH244085   5.109   2.402   3.324  0.0611 -0.1130  0.0667
 7557TIP3    H144086   5.112   2.491   3.356  0.8401  0.0287 -0.3756
 7557TIP3    H244087   5.019   2.390   3.294 -0.1280  0.4113  0.4231
 7558TIP3   OH244088   4.908   2.797  14.964 -0.2755 -0.2373  0.5723
 7558TIP3    H144089   4.833   2.814  15.022 -0.1132 -0.6301  0.9068
 7558TIP3    H244090   4.984   2.826  15.014  0.0894 -2.5447  1.4831
 7559TIP3   OH244091   1.398   4.124  14.088 -0.5583  0.0143 -0.6877
 7559TIP3    H144092   1.490   4.150  14.083 -0.9126  2.0617  1.5358
 7559TIP3    H244093   1.352   4.204  14.113 -2.5006 -1.6375  1.4096
 7560TIP3   OH244094   4.852   1.582   2.188 -0.4690 -0.0441 -0.0362
 7560TIP3    H144095   4.920   1.647   2.171  0.8383 -2.0321 -3.4193
 7560TIP3    H244096   4.899   1.499   2.196 -2.1964 -0.9033  2.6006
 7561TIP3   OH244097   3.778   0.783  15.691  0.1324  0.5531 -0.4222
 7561TIP3    H144098   3.859   0.770  15.641 -0.1312  0.7500 -0.9058
 7561TIP3    H244099   3.767   0.701  15.740 -0.4603 -0.3151 -1.9366
 7562TIP3   OH244100   5.760   3.966  11.419  0.1371 -0.6504  0.0211
 7562TIP3    H144101   5.735   4.059  11.422  0.6770 -0.5191  2.0878
 7562TIP3    H244102   5.782   3.950  11.327 -1.2833  0.8849 -0.6475
 7563TIP3   OH244103   6.517   5.302  15.669  0.4046 -0.0708  0.6345
 7563TIP3    H144104   6.427   5.322  15.647 -0.4832 -1.8804  2.3105
 7563TIP3    H244105   6.562   5.294  15.585 -1.0539  0.5260 -0.2365
 7564TIP3   OH244106   4.815   1.197  11.567 -0.2428  0.4236 -0.3576
 7564TIP3    H144107   4.853   1.272  11.521  1.3050 -1.2916 -2.0803
 7564TIP3    H244108   4.888   1.160  11.616 -0.6474 -0.7071 -0.5885
 7565TIP3   OH244109   6.708   3.623  15.000  0.4924 -0.6336 -0.0383
 7565TIP3    H144110   6.633   3.591  14.950  0.8400 -0.3801 -0.7356
 7565TIP3    H244111   6.752   3.684  14.941  0.2190  0.6450  1.0307
 7566TIP3   OH244112   3.413   4.858   1.932  0.6671 -0.0046  0.0667
 7566TIP3    H144113   3.429   4.814   2.015  1.1491 -0.1144 -0.0829
 7566TIP3    H244114   3.322   4.837   1.911  0.7540 -0.5374  0.2240
 7567TIP3   OH244115   1.667   1.952   3.330  0.1638 -0.0001  0.1344
 7567TIP3    H144116   1.737   2.017   3.322  0.1455 -0.0439 -0.3670
 7567TIP3    H244117   1.595   2.000   3.371 -0.0280  0.4312 -0.6979
 7568TIP3   OH244118   1.132   5.732  11.752 -0.0727  0.3106  0.3484
 7568TIP3    H144119   1.074   5.664  11.717  0.0708  0.9877 -1.2728
 7568TIP3    H244120   1.088   5.814  11.732  0.9264  0.7901  0.0570
 7569TIP3   OH244121   1.899   0.145  13.629 -0.1282 -0.2797 -0.4409
 7569TIP3    H144122   1.971   0.092  13.593  1.1462  0.7580  0.4613
 7569TIP3    H244123   1.826   0.084  13.637  0.4361 -1.2360 -1.9859
 7570TIP3   OH244124   6.189   5.927   3.081 -0.8091  0.1340  0.5339
 7570TIP3    H144125   6.250   5.966   3.019  0.5010 -0.6928  1.2581
 7570TIP3    H244126   6.245   5.890   3.150 -2.2035  0.9521  2.1777
 7571TIP3   OH244127   3.663   3.047  12.675 -0.0909 -0.2372 -0.4449
 7571TIP3    H144128   3.688   2.999  12.754 -0.1238  1.4346  0.6395
 7571TIP3    H244129   3.743   3.049  12.622  0.3984 -0.0235  0.2828
 7572TIP3   OH244130   1.570   3.464  16.730 -0.3672  0.4284 -0.3012
 7572TIP3    H144131   1.655   3.433  16.699 -0.3775  0.5733 -0.4708
 7572TIP3    H244132   1.522   3.384  16.752 -0.4263  0.3149 -0.8263
 7573TIP3   OH244133   4.075   1.634  13.437  0.1485  0.2087  0.3876
 7573TIP3    H144134   4.083   1.730  13.434 -1.0831  0.3049 -0.4081
 7573TIP3    H244135   4.130   1.603  13.366 -2.5835  0.6051 -2.0752
 7574TIP3   OH244136   1.994   3.947  16.214  0.0319 -0.9308 -0.2650
 7574TIP3    H144137   1.970   3.894  16.291  1.7077 -2.0711 -0.4599
 7574TIP3    H244138   1.952   4.031  16.229 -2.3394 -2.1330  0.3127
 7575TIP3   OH244139   0.168   5.104   2.003  0.2396  0.5489  0.0927
 7575TIP3    H144140   0.108   5.069   2.069  0.0903  0.7155  0.0474
 7575TIP3    H244141   0.120   5.094   1.921  0.0133  1.2694  0.1330
 7576TIP3   OH244142   4.555   3.861  17.095  0.9928  0.5013 -0.3808
 7576TIP3    H144143   4.471   3.816  17.104  0.2989  1.7388 -0.5128
 7576TIP3    H244144   4.548   3.910  17.013  2.0111  0.2857 -0.6157
 7577TIP3   OH244145   3.436   2.231  15.166  0.2524 -0.1982 -0.0723
 7577TIP3    H144146   3.473   2.143  15.158  1.1857  0.0788  0.9128
 7577TIP3    H244147   3.509   2.285  15.195 -0.7588  0.4951  1.3094
 7578TIP3   OH244148   4.504   5.802   3.903  0.9116  0.0309 -0.3234
 7578TIP3    H144149   4.530   5.894   3.910  1.3495  0.2042 -3.1101
 7578TIP3    H244150   4.494   5.773   3.994 -0.8292  3.2281  0.6643
 7579TIP3   OH244151   0.670   5.068   2.700 -0.3405  0.5812 -0.2684
 7579TIP3    H144152   0.667   5.144   2.759  1.9597  1.9299 -1.7232
 7579TIP3    H244153   0.761   5.065   2.670 -0.9649 -1.2480 -2.1858
 7580TIP3   OH244154   2.321   3.007   3.484 -0.2134  0.3897  0.2018
 7580TIP3    H144155   2.352   3.014   3.575 -1.0186 -0.7750  0.5947
 7580TIP3    H244156   2.226   3.009   3.492 -0.3270 -1.1031 -0.4589
 7581TIP3   OH244157   3.495   4.738   0.158 -0.1223  0.5823 -0.2282
 7581TIP3    H144158   3.475   4.664   0.215  1.8146  0.8930  0.9446
 7581TIP3    H244159   3.418   4.795   0.164 -0.0222  0.5606  2.0666
 7582TIP3   OH244160   0.325   3.583  17.007 -0.8331  0.3622  0.0448
 7582TIP3    H144161   0.348   3.602  16.916  2.0848 -2.3367  0.0561
 7582TIP3    H244162   0.340   3.666  17.052 -1.6920  1.5815 -1.7711
 7583TIP3   OH244163   3.888   3.095  15.502 -0.0060 -0.0995 -0.7260
 7583TIP3    H144164   3.876   3.000  15.498  2.6050 -0.5038 -0.9576
 7583TIP3    H244165   3.922   3.118  15.416 -0.6785  1.0795 -0.6947
 7584TIP3   OH244166   6.383   0.718   5.332 -0.1130  0.0827 -0.2610
 7584TIP3    H144167   6.375   0.659   5.258  0.7473 -1.7848  1.0440
 7584TIP3    H244168   6.309   0.778   5.324 -1.9559 -2.1155 -0.8614
 7585TIP3   OH244169   2.152   5.307   4.584  0.0815  0.0768 -0.2468
 7585TIP3    H144170   2.201   5.258   4.650 -1.9270  1.8419  2.7288
 7585TIP3    H244171   2.215   5.320   4.513  1.4888 -4.3942 -0.1171
 7586TIP3   OH244172   2.704   4.157   0.285  0.3119  0.2498 -0.0316
 7586TIP3    H144173   2.695   4.249   0.310  1.3208  0.1879  0.5959
 7586TIP3    H244174   2.782   4.127   0.330  0.8261 -0.5372 -1.3823
 7587TIP3   OH244175   0.554   3.352  15.044  0.0609 -0.1362  0.2095
 7587TIP3    H144176   0.513   3.272  15.010  0.6998 -0.0916 -0.7041
 7587TIP3    H244177   0.630   3.366  14.987 -0.4500  1.5339 -0.1108
 7588TIP3   OH244178   4.547   1.546   6.419  0.4502 -0.3680 -0.0574
 7588TIP3    H144179   4.598   1.563   6.340 -2.4034  1.1682 -1.7476
 7588TIP3    H244180   4.550   1.628   6.468  1.7619 -1.1427  1.2104
 7589TIP3   OH244181   1.646   6.422  12.502  0.2563 -0.3437  0.2697
 7589TIP3    H144182   1.687   6.509  12.506  0.2789 -0.2659 -1.2386
 7589TIP3    H244183   1.712   6.363  12.538  0.9059  0.0430 -0.2625
 7590TIP3   OH244184   1.616   5.048   4.770  0.2796  0.1197 -0.2478
 7590TIP3    H144185   1.558   5.108   4.818  1.5611  0.6884  0.6505
 7590TIP3    H244186   1.692   5.037   4.827  0.2774 -2.0400 -0.5968
 7591TIP3   OH244187   3.843   0.749  12.708 -0.2237  0.7017  0.0527
 7591TIP3    H144188   3.920   0.805  12.705 -0.4488  1.2511  2.5081
 7591TIP3    H244189   3.824   0.738  12.802 -0.7031 -2.8143 -0.3191
 7592TIP3   OH244190   3.983   0.251   2.278 -0.2423 -0.0148  0.0854
 7592TIP3    H144191   4.071   0.220   2.258 -0.5435 -1.1284  0.4097
 7592TIP3    H244192   3.961   0.308   2.204  0.9169  0.6656  0.2378
 7593TIP3   OH244193   4.328   1.927  13.145  0.2918 -0.0312 -0.5264
 7593TIP3    H144194   4.238   1.950  13.124 -0.6382 -0.8436  2.1495
 7593TIP3    H244195   4.366   2.007  13.181  0.3493  0.0423 -0.7457
 7594TIP3   OH244196   0.883   2.701  13.857 -0.1576  0.8737  0.4637
 7594TIP3    H144197   0.935   2.697  13.776  2.3233  2.2375  1.8507
 7594TIP3    H244198   0.800   2.740  13.830 -0.0356 -0.1992 -1.6633
 7595TIP3   OH244199   6.630   2.836  10.985 -0.7478  0.5690  0.4589
 7595TIP3    H144200   6.653   2.922  10.951 -0.9977  0.0357 -1.1358
 7595TIP3    H244201   6.554   2.809  10.933  0.7881 -1.6265 -0.7993
 7596TIP3   OH244202   2.627   0.407  14.200  0.0231  0.2355  0.2641
 7596TIP3    H144203   2.591   0.363  14.124  0.4957  0.6239 -0.1893
 7596TIP3    H244204   2.646   0.337  14.262 -1.2639 -0.0028  0.4171
 7597TIP3   OH244205   3.822   4.086   4.861  0.1117 -0.1814 -0.2236
 7597TIP3    H144206   3.877   4.010   4.843  1.7473  1.2987 -1.8929
 7597TIP3    H244207   3.878   4.144   4.912  0.3205  1.5354 -2.2980
 7598TIP3   OH244208   3.638   0.365  14.337  0.2534 -0.1088 -0.4567
 7598TIP3    H144209   3.579   0.397  14.406  0.3789 -2.1102  0.6667
 7598TIP3    H244210   3.638   0.434  14.271 -0.5071  1.5358  1.1792
 7599TIP3   OH244211   2.568   0.718  11.984  0.3898  0.1831  0.3381
 7599TIP3    H144212   2.493   0.665  11.956  1.1591 -0.8981  0.2497
 7599TIP3    H244213   2.529   0.795  12.026 -0.7805 -1.2730  2.0562
 7600TIP3   OH244214   6.112   2.477   0.557 -0.5359 -0.6129 -0.3855
 7600TIP3    H144215   6.204   2.467   0.583 -0.3382  1.1984 -0.2296
 7600TIP3    H244216   6.114   2.542   0.487 -1.9147  2.4025  2.1001
 7601TIP3   OH244217   2.766   1.380   2.859  0.0416 -0.1551 -0.0176
 7601TIP3    H144218   2.827   1.436   2.810 -0.8607  0.0779 -0.9023
 7601TIP3    H244219   2.823   1.328   2.916  0.8843  2.2223  1.4866
 7602TIP3   OH244220   2.047   4.205  12.009 -0.0853 -0.3619  0.1528
 7602TIP3    H144221   2.025   4.116  12.039 -0.0564 -0.9453 -1.4507
 7602TIP3    H244222   1.990   4.262  12.059  0.0683 -1.2630  1.4018
 7603TIP3   OH244223   5.276   2.725   0.472 -0.0277  0.3395  0.5461
 7603TIP3    H144224   5.234   2.688   0.550  1.2144 -1.2897  0.5037
 7603TIP3    H244225   5.367   2.696   0.479  0.1862  0.4663 -1.3214
 7604TIP3   OH244226   0.986   5.975   4.560 -0.0575 -0.0832  0.0574
 7604TIP3    H144227   1.081   5.968   4.563 -0.0638 -0.8777 -0.9752
 7604TIP3    H244228   0.969   6.069   4.563  0.7553  0.0639  0.2745
 7605TIP3   OH244229   1.437   0.789   2.892 -0.3193  0.0748  0.5451
 7605TIP3    H144230   1.452   0.703   2.853  0.8860 -0.4722  2.0835
 7605TIP3    H244231   1.524   0.820   2.916 -0.6636  2.0498 -0.5646
 7606TIP3   OH244232   6.221   2.551  11.169  0.2626  0.5673  0.2295
 7606TIP3    H144233   6.204   2.546  11.075 -0.7326 -0.1296  0.4213
 7606TIP3    H244234   6.136   2.571  11.208  0.3677 -0.5330  1.0780
 7607TIP3   OH244235   2.875   0.269  11.456 -0.1423 -0.0040  0.7006
 7607TIP3    H144236   2.918   0.309  11.380  0.2252  0.7798  1.3086
 7607TIP3    H244237   2.944   0.219  11.499 -0.0611  0.5014  1.1634
 7608TIP3   OH244238   4.372   4.728  11.361  0.0325  0.7253  0.1986
 7608TIP3    H144239   4.344   4.676  11.436 -1.5864  1.9943  0.5335
 7608TIP3    H244240   4.462   4.699  11.344 -0.3842 -1.2629  1.1144
 7609TIP3   OH244241   5.001   0.700   1.835  0.3012 -0.1153 -0.9574
 7609TIP3    H144242   4.947   0.774   1.864 -0.3691  0.0330 -2.4417
 7609TIP3    H244243   5.088   0.738   1.821  0.3796  0.0175 -0.1258
 7610TIP3   OH244244   5.663   1.062   4.000  0.2747  0.3959  0.1429
 7610TIP3    H144245   5.597   1.075   3.933 -0.0504  1.0121  0.5703
 7610TIP3    H244246   5.746   1.061   3.953  0.1982  2.4942 -0.1205
 7611TIP3   OH244247   2.004   6.379  14.184  0.1545  0.2900  0.1907
 7611TIP3    H144248   2.024   6.462  14.141  1.0010  0.7046  1.3440
 7611TIP3    H244249   2.033   6.312  14.122  1.1504  0.8652  0.0174
 7612TIP3   OH244250   3.701   2.777  13.376 -0.1612 -0.2674 -0.5288
 7612TIP3    H144251   3.626   2.837  13.378  0.8636  1.1914 -2.6349
 7612TIP3    H244252   3.668   2.700  13.330 -0.5239  0.1592 -0.9980
 7613TIP3   OH244253   3.571   1.095  15.523  0.4694  0.3065  0.4007
 7613TIP3    H144254   3.658   1.064  15.496 -0.8405 -4.0801  0.5034
 7613TIP3    H244255   3.532   1.129  15.442  2.2503  2.6457  0.4153
 7614TIP3   OH244256   5.769   6.741  14.750 -0.6309 -0.5263 -0.0904
 7614TIP3    H144257   5.827   6.758  14.676  1.8674 -0.0014  1.8277
 7614TIP3    H244258   5.810   6.667  14.795 -2.2441 -1.0248  0.6292
 7615TIP3   OH244259   5.827   3.853  15.883  0.1983  0.4185  0.7311
 7615TIP3    H144260   5.803   3.855  15.976 -0.2158  0.5819  0.6233
 7615TIP3    H244261   5.908   3.904  15.879  0.6377 -0.2396  1.1160
 7616TIP3   OH244262   3.259   3.260  12.604 -0.4348 -0.0372  0.1003
 7616TIP3    H144263   3.199   3.330  12.578  0.4204 -0.1081 -2.3276
 7616TIP3    H244264   3.334   3.271  12.546  0.8310 -1.4643  1.3878
 7617TIP3   OH244265   5.663   3.149  14.330 -0.1960 -0.4109  0.1391
 7617TIP3    H144266   5.582   3.195  14.350  0.8102  0.4505  2.6980
 7617TIP3    H244267   5.646   3.105  14.247 -3.5512 -0.9757  0.9716
 7618TIP3   OH244268   2.155   4.041   5.851  0.1092 -0.7095 -0.2165
 7618TIP3    H144269   2.154   4.120   5.904 -0.4638  0.4623 -1.8866
 7618TIP3    H244270   2.164   3.970   5.914  1.9798  0.7139  1.2702
 7619TIP3   OH244271   1.530   2.063  12.197 -0.2796  0.2003  0.3434
 7619TIP3    H144272   1.605   2.007  12.216 -0.1983  1.0073  2.6706
 7619TIP3    H244273   1.565   2.129  12.136  0.6625  0.0362  0.6883
 7620TIP3   OH244274   3.861   0.371   0.667 -0.2728 -0.0077  0.7011
 7620TIP3    H144275   3.847   0.347   0.758 -1.8875 -0.0522  0.4803
 7620TIP3    H244276   3.773   0.375   0.630  0.3786 -0.4997 -0.9892
 7621TIP3   OH244277   2.612   6.405  17.096  0.8659  0.1156 -0.0112
 7621TIP3    H144278   2.695   6.361  17.115  0.0844 -0.8415  1.2891
 7621TIP3    H244279   2.584   6.369  17.012  1.0599 -0.6415  0.2443
 7622TIP3   OH244280   5.549   0.576  16.539 -0.0993  0.1732  0.2557
 7622TIP3    H144281   5.605   0.651  16.524  1.0573 -0.2871  1.9686
 7622TIP3    H244282   5.608   0.501  16.537 -0.8303 -0.4459  0.8913
 7623TIP3   OH244283   2.786   4.266   4.225  0.0801  0.0384 -0.0206
 7623TIP3    H144284   2.739   4.341   4.189  0.2044  0.1828  0.1138
 7623TIP3    H244285   2.718   4.209   4.261 -0.1571 -0.7148 -1.5813
 7624TIP3   OH244286   3.124   4.161   6.618  0.0719 -0.2223  0.0574
 7624TIP3    H144287   3.212   4.165   6.656  0.4046 -0.7338 -0.6405
 7624TIP3    H244288   3.117   4.073   6.582 -0.6395 -0.1055 -0.1054
 7625TIP3   OH244289   2.167   5.598   4.975 -0.5219 -0.1233  0.1815
 7625TIP3    H144290   2.135   5.573   4.889 -0.9986 -0.2367  0.3924
 7625TIP3    H244291   2.201   5.687   4.964 -0.3435 -0.2360 -0.1792
 7626TIP3   OH244292   5.646   2.009   6.140 -0.2611 -0.4608 -0.2036
 7626TIP3    H144293   5.596   2.090   6.152 -2.2127 -1.7439  0.8401
 7626TIP3    H244294   5.605   1.947   6.199  1.4389 -2.1383 -0.6933
 7627TIP3   OH244295   3.988   1.799   3.107 -0.0950 -0.2110 -0.3857
 7627TIP3    H144296   3.948   1.763   3.186 -0.8890  0.8318 -0.2802
 7627TIP3    H244297   3.915   1.810   3.046  0.7984 -2.9486 -2.0877
 7628TIP3   OH244298   1.716   3.342   5.838  0.3024 -0.1851  0.4045
 7628TIP3    H144299   1.668   3.261   5.823 -1.9398  0.8003  1.5820
 7628TIP3    H244300   1.742   3.338   5.930 -1.8628  1.3105  1.1659
 7629TIP3   OH244301   3.969   2.880   2.893 -0.1735 -0.0822  0.1443
 7629TIP3    H144302   3.903   2.948   2.876 -2.1390 -1.8880  0.2029
 7629TIP3    H244303   4.006   2.861   2.807 -0.2186  0.4302  0.0045
 7630TIP3   OH244304   3.629   2.191  17.038  0.2463  0.1529  0.5975
 7630TIP3    H144305   3.654   2.101  17.058 -0.2389  0.0887  0.9257
 7630TIP3    H244306   3.573   2.217  17.110  0.4093  0.7327  0.5165
 7631TIP3   OH244307   3.754   4.265  13.073  0.2630  0.6471  0.1134
 7631TIP3    H144308   3.713   4.326  13.012  0.9672  1.7653  0.6959
 7631TIP3    H244309   3.835   4.309  13.099 -0.9107  1.2000  3.3390
 7632TIP3   OH244310   3.549   2.011  13.599 -0.3500  0.5210  0.2018
 7632TIP3    H144311   3.586   2.093  13.567 -0.2766  1.3544  2.2690
 7632TIP3    H244312   3.455   2.026  13.603 -0.3556  0.4479  0.3816
 7633TIP3   OH244313   5.319   1.142  17.272 -0.2329 -0.1053 -0.3422
 7633TIP3    H144314   5.409   1.116  17.250  0.3392  0.7798  0.8637
 7633TIP3    H244315   5.319   1.237  17.260 -0.5338  0.1110  1.2503
 7634TIP3   OH244316   1.253   5.360  12.747  0.5104 -0.1757 -0.2470
 7634TIP3    H144317   1.274   5.373  12.840  0.6595  0.3839 -0.3580
 7634TIP3    H244318   1.336   5.335  12.707  0.3039 -1.1425 -0.1065
 7635TIP3   OH244319   0.982   3.785  12.532  0.7010 -0.2044 -0.4716
 7635TIP3    H144320   0.902   3.733  12.527  0.4071  0.0207  1.3015
 7635TIP3    H244321   1.000   3.809  12.441 -0.3628 -1.5560 -1.0830
 7636TIP3   OH244322   0.465   5.140   0.311  0.5915 -0.2475 -0.3128
 7636TIP3    H144323   0.420   5.059   0.334 -1.3815  0.6415 -0.8622
 7636TIP3    H244324   0.514   5.163   0.391 -1.2816 -0.3881  0.9270
 7637TIP3   OH244325   0.407   4.565  14.177  0.2447 -0.2980 -0.2726
 7637TIP3    H144326   0.415   4.484  14.228  0.0517 -0.9223 -1.2091
 7637TIP3    H244327   0.498   4.589  14.157  0.3911  0.5339  1.2118
 7638TIP3   OH244328   3.099   6.091   3.827 -0.1959  0.2481 -0.1222
 7638TIP3    H144329   3.103   6.009   3.875  2.1822  1.5786  2.1805
 7638TIP3    H244330   3.069   6.066   3.740 -0.0723 -2.9524  0.6333
 7639TIP3   OH244331   1.951   5.220   3.938 -0.3861 -0.1189 -0.2451
 7639TIP3    H144332   1.946   5.315   3.932 -1.4095 -0.2542 -2.8315
 7639TIP3    H244333   1.862   5.192   3.960 -0.1468 -0.5149  0.2626
 7640TIP3   OH244334   3.441   1.863  13.194 -0.3649 -0.2273  0.1191
 7640TIP3    H144335   3.454   1.812  13.274  0.9893 -1.8568 -1.0842
 7640TIP3    H244336   3.517   1.843  13.139 -1.0588  1.1527 -1.4395
 7641TIP3   OH244337   3.019   4.706  15.700  0.3978 -0.2181 -0.0024
 7641TIP3    H144338   3.028   4.766  15.625  0.3702 -0.0394  0.1370
 7641TIP3    H244339   3.107   4.704  15.739  0.4270 -0.3579 -0.0743
 7642TIP3   OH244340   4.246   4.358   0.686 -0.1591  0.5840 -0.3862
 7642TIP3    H144341   4.308   4.403   0.744  0.9153  0.5145 -1.4431
 7642TIP3    H244342   4.232   4.418   0.613 -0.5787  0.1889 -0.6385
 7643TIP3   OH244343   1.739   1.319  11.429 -0.2398  0.0723  0.3937
 7643TIP3    H144344   1.776   1.255  11.490  2.3412  0.7728 -0.3116
 7643TIP3    H244345   1.807   1.331  11.363 -2.3674  0.4008 -1.8848
 7644TIP3   OH244346   5.653   4.091  14.217  0.0254  0.1097 -0.3982
 7644TIP3    H144347   5.693   4.044  14.144  0.2133  0.6763 -0.6681
 7644TIP3    H244348   5.560   4.074  14.208  0.0255  0.3588 -0.9079
 7645TIP3   OH244349   1.608   2.139  12.677 -0.4171 -0.0562  0.0324
 7645TIP3    H144350   1.588   2.219  12.726 -1.1401 -1.1258  1.5527
 7645TIP3    H244351   1.550   2.073  12.714  0.7040 -1.4793 -0.6456
 7646TIP3   OH244352   5.386   2.020  17.337  0.0077  0.1960 -0.2191
 7646TIP3    H144353   5.482   2.010  17.334 -0.0851 -0.7856 -0.0852
 7646TIP3    H244354   5.373   2.105  17.378  0.8114 -0.7460  2.1545
 7647TIP3   OH244355   2.999   6.114  16.396  0.5212 -0.3194 -0.0707
 7647TIP3    H144356   2.978   6.088  16.306  0.5471 -0.1500 -0.1261
 7647TIP3    H244357   3.082   6.070  16.414 -0.3258 -1.7943  0.4888
 7648TIP3   OH244358   3.890   3.776  13.271  0.1368  0.1435  0.0223
 7648TIP3    H144359   3.975   3.786  13.228 -0.8584 -0.0572 -2.1064
 7648TIP3    H244360   3.870   3.682  13.263  0.1360  0.0072  1.4053
 7649TIP3   OH244361   4.382   4.127   3.090  0.2845  0.3742 -0.2604
 7649TIP3    H144362   4.370   4.074   3.169  0.3025 -0.5881 -0.8942
 7649TIP3    H244363   4.293   4.152   3.065  0.3777  2.3091  1.1240
 7650TIP3   OH244364   5.282   3.255  14.124 -0.1614 -0.5173 -0.0320
 7650TIP3    H144365   5.219   3.309  14.075  0.2652 -1.3372 -1.5509
 7650TIP3    H244366   5.356   3.246  14.065  1.4247  0.4024  1.7127
 7651TIP3   OH244367   0.085   3.433  11.613 -0.1573  0.2980 -0.1568
 7651TIP3    H144368   0.177   3.455  11.632 -0.7835  1.9992  1.1842
 7651TIP3    H244369   0.090   3.373  11.540  1.9882  1.6129 -1.2124
 7652TIP3   OH244370   1.952   6.318  16.335  0.0602  0.2845 -0.0521
 7652TIP3    H144371   1.898   6.259  16.283 -1.8588  1.1296  0.9055
 7652TIP3    H244372   2.020   6.261  16.373  0.3665 -0.6534 -1.9222
 7653TIP3   OH244373   4.285   3.792  12.054  0.0099 -0.2242  0.3113
 7653TIP3    H144374   4.228   3.818  11.982  1.1514 -0.4425 -0.7130
 7653TIP3    H244375   4.340   3.870  12.070 -0.3077 -0.1379  1.0350
 7654TIP3   OH244376   3.261   3.344   3.257  0.4606 -0.7489 -0.0689
 7654TIP3    H144377   3.326   3.414   3.249  1.5721 -1.6540  0.7933
 7654TIP3    H244378   3.219   3.359   3.341  0.6170 -1.0369  0.0633
 7655TIP3   OH244379   5.711   3.504   0.086  0.9915  0.5428 -0.4491
 7655TIP3    H144380   5.799   3.541   0.098  1.1859 -0.5745  2.5217
 7655TIP3    H244381   5.726   3.419   0.046  1.1418  0.8353 -1.0259
 7656TIP3   OH244382   4.676   5.900   4.815  0.7489  0.3524  0.3003
 7656TIP3    H144383   4.686   5.808   4.793 -1.4468 -0.0769  0.9064
 7656TIP3    H244384   4.616   5.901   4.889  1.2421  2.2493  0.7328
 7657TIP3   OH244385   4.370   5.533   4.274 -0.1882 -0.5783  0.2383
 7657TIP3    H144386   4.347   5.456   4.326 -1.6002 -0.7747 -0.6239
 7657TIP3    H244387   4.297   5.543   4.213  1.2009 -0.0895 -1.3946
 7658TIP3   OH244388   6.601   5.862  14.641  0.1137  0.0756 -0.0573
 7658TIP3    H144389   6.670   5.822  14.589 -0.6434  0.9011 -1.7659
 7658TIP3    H244390   6.520   5.839  14.596 -0.5651  0.9629  0.6495
 7659TIP3   OH244391   1.625   0.330  17.090  0.3216  0.0580 -0.3554
 7659TIP3    H144392   1.615   0.426  17.095 -0.2000  0.0093 -0.4053
 7659TIP3    H244393   1.540   0.296  17.118  1.2810 -0.4602  2.1857
 7660TIP3   OH244394   1.339   6.714  15.133  0.2525 -0.3405 -0.1199
 7660TIP3    H144395   1.371   6.800  15.105  1.3359 -0.4076  0.8774
 7660TIP3    H244396   1.248   6.730  15.160  1.0961  0.9828  2.1648
 7661TIP3   OH244397   1.652   2.280  15.372 -0.1263  0.2481 -0.5541
 7661TIP3    H144398   1.610   2.253  15.291  0.7567  0.8304 -1.2216
 7661TIP3    H244399   1.738   2.240  15.369 -0.5407 -0.8088  0.7317
 7662TIP3   OH244400   5.458   4.401  14.932 -0.2909 -0.3783 -0.2582
 7662TIP3    H144401   5.479   4.310  14.913  2.1269 -0.0011  0.3085
 7662TIP3    H244402   5.495   4.450  14.859 -1.4987  0.1956 -0.5145
 7663TIP3   OH244403   0.159   1.446  16.526 -0.1855  0.1669  0.2830
 7663TIP3    H144404   0.165   1.539  16.547 -0.5221  0.1903  0.2893
 7663TIP3    H244405   0.249   1.419  16.508 -0.1022  0.5246  0.1557
 7664TIP3   OH244406   6.021   2.406  12.199 -0.1057 -0.7844 -0.4130
 7664TIP3    H144407   5.959   2.454  12.253  1.4255 -0.1752  0.8765
 7664TIP3    H244408   5.982   2.318  12.191 -0.8748 -0.5801  0.8078
 7665TIP3   OH244409   6.490   1.379   6.496 -0.6878 -0.1665  0.5632
 7665TIP3    H144410   6.469   1.471   6.484  0.7900  0.0841 -0.3886
 7665TIP3    H244411   6.461   1.337   6.415 -0.3413 -0.3362  0.5266
 7666TIP3   OH244412   2.561   6.256   4.587  0.0612 -0.1811 -0.2227
 7666TIP3    H144413   2.483   6.258   4.532  0.2877  0.5935 -0.5257
 7666TIP3    H244414   2.564   6.342   4.628  1.0586  0.0001 -0.6511
 7667TIP3   OH244415   3.136   4.632  14.735  0.4727  0.0161  0.9869
 7667TIP3    H144416   3.085   4.614  14.814  0.6612 -0.5031  0.9967
 7667TIP3    H244417   3.126   4.553  14.682  2.5001 -0.7617  1.6531
 7668TIP3   OH244418   1.320   3.594  11.431 -0.0011  0.1993  0.1579
 7668TIP3    H144419   1.316   3.589  11.335  0.3410 -1.7354  0.1965
 7668TIP3    H244420   1.236   3.630  11.457 -0.8043 -0.8783 -0.8239
 7669TIP3   OH244421   0.086   4.437   1.907  0.0240 -0.0126  0.4198
 7669TIP3    H144422  -0.004   4.432   1.941 -0.1767 -1.2961 -0.2106
 7669TIP3    H244423   0.075   4.458   1.814  0.5444  2.9154  0.9338
 7670TIP3   OH244424   1.439   4.551   6.643 -0.3979 -0.6748 -0.1001
 7670TIP3    H144425   1.485   4.610   6.583 -2.4026  0.9784 -0.1273
 7670TIP3    H244426   1.508   4.511   6.695  1.1219  1.3438 -0.4225
 7671TIP3   OH244427   1.592   0.984  17.297  0.1877 -0.4836  0.5872
 7671TIP3    H144428   1.519   0.980  17.235  1.5632  0.5656 -1.1966
 7671TIP3    H244429   1.573   1.060  17.351  0.3913  0.3620 -0.4904
 7672TIP3   OH244430   6.657   3.447  15.812 -0.1783 -0.7900  0.5450
 7672TIP3    H144431   6.743   3.486  15.799 -0.3018 -0.1449  1.5157
 7672TIP3    H244432   6.661   3.363  15.767  0.8522 -0.6276  0.3133
 7673TIP3   OH244433   2.976   5.879  12.716  0.2526  0.2947  0.1114
 7673TIP3    H144434   2.946   5.807  12.772  0.4456  1.9306  2.4259
 7673TIP3    H244435   3.000   5.836  12.634  1.4399 -2.4613  1.7633
 7674TIP3   OH244436   3.885   3.272   4.038  0.3237  0.2952 -0.2316
 7674TIP3    H144437   3.841   3.355   4.054 -0.0161  0.3188 -1.2290
 7674TIP3    H244438   3.928   3.251   4.121 -0.0089  1.2080  0.1814
 7675TIP3   OH244439   4.431   2.178  13.188 -0.1558  0.1823 -0.3153
 7675TIP3    H144440   4.428   2.221  13.103  2.8607 -0.0152 -0.6232
 7675TIP3    H244441   4.434   2.250  13.252  0.2682  0.3733 -0.5486
 7676TIP3   OH244442   0.323   6.377  13.469 -0.0179 -0.6037  0.3862
 7676TIP3    H144443   0.278   6.443  13.417  0.2174  1.3774  2.5739
 7676TIP3    H244444   0.253   6.326  13.510 -0.2443  0.1468  0.9417
 7677TIP3   OH244445   2.968   0.778   6.787 -0.3842  0.1022  0.0407
 7677TIP3    H144446   2.891   0.800   6.839  0.5133  1.6751  0.7814
 7677TIP3    H244447   3.020   0.722   6.845  0.3576  1.4102  0.6941
 7678TIP3   OH244448   4.376   0.507  10.934 -0.2827  0.0696  0.2261
 7678TIP3    H144449   4.406   0.418  10.950  0.8232 -0.1613 -2.4994
 7678TIP3    H244450   4.454   0.561  10.946 -0.2650  0.2901 -0.8020
 7679TIP3   OH244451   4.651   5.849   3.672 -0.2775  0.3467 -0.7762
 7679TIP3    H144452   4.633   5.806   3.756  0.8904 -0.6575 -1.0177
 7679TIP3    H244453   4.731   5.898   3.687 -0.3063  0.5214 -1.1827
 7680TIP3   OH244454   1.370   6.472   1.016 -0.4515 -0.2587  0.1047
 7680TIP3    H144455   1.454   6.474   0.969  0.4785 -1.1531  1.6370
 7680TIP3    H244456   1.305   6.455   0.948  0.9847 -2.8747 -0.7675
 7681TIP3   OH244457   2.482   3.321  14.628 -0.6149  0.2025 -0.4149
 7681TIP3    H144458   2.443   3.234  14.623 -0.4504 -0.0708  1.8837
 7681TIP3    H244459   2.568   3.311  14.586 -1.0144 -0.4669 -1.0953
 7682TIP3   OH244460   6.696   6.345   4.003 -0.5615  0.2741  0.0201
 7682TIP3    H144461   6.675   6.347   4.096 -0.7294 -2.1471  0.0926
 7682TIP3    H244462   6.613   6.369   3.960 -0.4720  1.4377  0.4578
 7683TIP3   OH244463   0.444   1.338  16.461  0.3182  0.1240  0.2606
 7683TIP3    H144464   0.409   1.348  16.372  0.8722  0.0369  0.0308
 7683TIP3    H244465   0.465   1.245  16.468 -2.5840 -0.5461  1.5620
 7684TIP3   OH244466   0.796   1.107   1.243  1.2498 -0.1421  0.1812
 7684TIP3    H144467   0.829   1.101   1.333 -2.1141  0.6744  1.6352
 7684TIP3    H244468   0.751   1.191   1.240 -1.1928 -1.3818 -1.2780
 7685TIP3   OH244469   3.480   5.334  13.906 -0.3412 -0.1124  0.2080
 7685TIP3    H144470   3.472   5.340  14.001  1.9586  0.4063  0.4321
 7685TIP3    H244471   3.569   5.364  13.888 -0.7945 -0.0259 -2.1407
 7686TIP3   OH244472   5.289   4.915   0.336  0.1688  0.0026 -0.2954
 7686TIP3    H144473   5.339   4.835   0.350 -0.0885 -0.4294 -1.6702
 7686TIP3    H244474   5.338   4.961   0.267 -0.3620  0.4219 -0.3970
 7687TIP3   OH244475   6.274   0.090   5.366 -0.0669 -0.3579 -0.2083
 7687TIP3    H144476   6.207   0.069   5.431  0.0639 -1.1563 -0.3122
 7687TIP3    H244477   6.351   0.041   5.396  0.0029 -0.7064 -0.9383
 7688TIP3   OH244478   1.251   3.240   0.530  0.2127  0.2661  0.5061
 7688TIP3    H144479   1.314   3.180   0.570 -0.7223 -1.6840 -0.7813
 7688TIP3    H244480   1.303   3.316   0.503  1.7663 -0.7116  0.6199
 7689TIP3   OH244481   4.441   0.405   2.309  0.2002  0.7390  0.3131
 7689TIP3    H144482   4.517   0.350   2.291 -1.5688 -1.9886  0.6429
 7689TIP3    H244483   4.455   0.437   2.399  0.1302 -1.2722  1.0776
 7690TIP3   OH244484   2.908   2.852  13.840  0.5543  0.2342 -0.1248
 7690TIP3    H144485   2.875   2.842  13.930 -1.2126  0.4199 -0.7072
 7690TIP3    H244486   2.863   2.930  13.807 -0.2233 -0.8466 -1.7464
 7691TIP3   OH244487   1.164   6.503  13.532  0.6014  0.1937  0.2868
 7691TIP3    H144488   1.202   6.432  13.584 -0.9341 -0.0683  1.1217
 7691TIP3    H244489   1.235   6.532  13.476  1.7362 -0.9122  1.0830
 7692TIP3   OH244490   4.287   1.517  13.300  0.1220  0.4800 -0.2436
 7692TIP3    H144491   4.378   1.510  13.331 -0.3470  0.1344  1.1309
 7692TIP3    H244492   4.293   1.500  13.206  1.4215 -0.0488 -0.0966
 7693TIP3   OH244493   4.546   2.053   0.638 -0.3588 -0.2324 -0.4591
 7693TIP3    H144494   4.589   2.125   0.592  1.2995  0.0654  1.3907
 7693TIP3    H244495   4.610   1.982   0.637 -1.1051 -0.9136 -0.3843
 7694TIP3   OH244496   2.922   3.185   5.429 -0.0080 -0.1097 -0.1137
 7694TIP3    H144497   2.953   3.270   5.457 -2.5211  0.1185  2.3751
 7694TIP3    H244498   2.953   3.124   5.495 -0.5945 -0.6487 -0.3168
 7695TIP3   OH244499   3.188   0.945   1.932  0.0337  0.3502 -0.5058
 7695TIP3    H144500   3.276   0.919   1.904  0.0164  1.4037 -1.6617
 7695TIP3    H244501   3.164   0.882   1.999  0.3650 -2.0278 -2.4634
 7696TIP3   OH244502   3.665   1.487   0.710 -0.6275  0.1104 -0.2702
 7696TIP3    H144503   3.676   1.398   0.742 -0.7101  0.8359  1.9110
 7696TIP3    H244504   3.667   1.542   0.788 -3.0030  1.8276 -1.2769
 7697TIP3   OH244505   0.433   0.382  15.534  0.4296 -0.0625  0.1116
 7697TIP3    H144506   0.394   0.467  15.556 -0.8512 -0.8949  1.2569
 7697TIP3    H244507   0.527   0.395  15.546  0.0683  0.4445  3.2377
 7698TIP3   OH244508   5.668   4.733  10.956  0.0619 -0.6120  0.1997
 7698TIP3    H144509   5.623   4.755  10.874 -0.8750 -0.6110  0.6981
 7698TIP3    H244510   5.597   4.711  11.016  0.5762  1.4856  1.6696
 7699TIP3   OH244511   2.160   4.908  12.212  0.1678 -0.5403  0.2749
 7699TIP3    H144512   2.179   4.990  12.257 -1.7934 -0.9908  2.0651
 7699TIP3    H244513   2.213   4.843  12.258 -0.0471 -0.6298  0.3977
 7700TIP3   OH244514   2.854   2.655  11.571 -0.7275 -0.1937  0.2707
 7700TIP3    H144515   2.791   2.592  11.607 -0.6303 -0.5238 -0.1241
 7700TIP3    H244516   2.906   2.604  11.509 -0.2689  0.1458  0.3625
 7701TIP3   OH244517   2.637   3.736  13.996 -0.2717 -0.1079  0.5202
 7701TIP3    H144518   2.647   3.770  13.906 -2.3669  0.2096  0.3558
 7701TIP3    H244519   2.648   3.641  13.987  0.5831  0.0168  0.1231
 7702TIP3   OH244520   2.324   0.361   4.004  0.7048 -0.3059 -0.1452
 7702TIP3    H144521   2.360   0.284   4.048 -1.2347 -0.7755  0.7060
 7702TIP3    H244522   2.353   0.435   4.057  1.8893 -0.4832 -0.5056
 7703TIP3   OH244523   0.874   4.607   1.493 -0.1370 -0.0622 -0.0312
 7703TIP3    H144524   0.964   4.617   1.460  0.7942 -2.5814  1.4352
 7703TIP3    H244525   0.879   4.637   1.584 -0.4270 -1.3624  0.4369
 7704TIP3   OH244526   0.324   3.636   4.593 -0.4121  0.1168  0.1636
 7704TIP3    H144527   0.233   3.653   4.572 -0.2858  1.6122  0.7223
 7704TIP3    H244528   0.327   3.633   4.689 -0.2935 -2.5441  0.1406
 7705TIP3   OH244529   3.760   2.358  11.274  0.1818  0.4272  0.4583
 7705TIP3    H144530   3.682   2.392  11.230  0.6617 -0.1176 -0.8730
 7705TIP3    H244531   3.766   2.267  11.244  0.9197  0.2537  1.1186
 7706TIP3   OH244532   2.824   3.003  14.687  0.3994 -1.0066  0.3392
 7706TIP3    H144533   2.898   2.952  14.654  2.0594  1.5326 -0.1836
 7706TIP3    H244534   2.783   3.038  14.608 -0.1216 -0.7840  0.7101
 7707TIP3   OH244535   0.059   2.602   2.317  0.2354 -0.0083 -0.1315
 7707TIP3    H144536   0.100   2.608   2.403 -1.3350 -2.1177  0.8510
 7707TIP3    H244537   0.086   2.517   2.283  0.6746  0.7137 -1.6738
 7708TIP3   OH244538   1.649   5.253  14.909  0.6754  0.4520  0.3231
 7708TIP3    H144539   1.561   5.267  14.876  0.5247 -0.2726  0.4112
 7708TIP3    H244540   1.647   5.166  14.947  1.0203  1.0048  1.6726
 7709TIP3   OH244541   3.155   1.896  12.443 -0.2212  0.5438  0.1960
 7709TIP3    H144542   3.123   1.830  12.504 -1.2291  0.0636 -0.8291
 7709TIP3    H244543   3.159   1.976  12.495 -0.8961  0.1126  0.9409
 7710TIP3   OH244544   2.256   2.060  14.537 -0.2547 -0.3042 -0.3429
 7710TIP3    H144545   2.328   2.112  14.573  0.8086 -1.7440 -0.3176
 7710TIP3    H244546   2.196   2.049  14.611 -1.0135  1.6773 -0.5977
 7711TIP3   OH244547   3.482   4.183   1.218  0.7534  0.5337 -0.1265
 7711TIP3    H144548   3.549   4.152   1.278  1.0947 -0.1000 -0.8217
 7711TIP3    H244549   3.483   4.278   1.228 -0.2512  0.3748  1.9618
 7712TIP3   OH244550   4.547   2.512  17.300  0.0806 -0.3031  0.0403
 7712TIP3    H144551   4.629   2.492  17.345 -1.5563 -1.2355  2.9092
 7712TIP3    H244552   4.512   2.426  17.275 -0.3970  0.0165 -0.4201
 7713TIP3   OH244553   1.686   5.969   0.116  0.0096  0.2361 -0.6538
 7713TIP3    H144554   1.713   5.879   0.100  1.7911  0.8346 -1.2588
 7713TIP3    H244555   1.596   5.974   0.084  0.2001 -1.0840 -1.4381
 7714TIP3   OH244556   5.411   1.617   2.379 -0.3218  0.0981 -0.1330
 7714TIP3    H144557   5.442   1.572   2.458 -1.2337  0.4245  0.4306
 7714TIP3    H244558   5.471   1.590   2.310  0.5825 -0.0821  0.7067
 7715TIP3   OH244559   3.798   0.478   1.162 -0.7297  0.0420 -0.2720
 7715TIP3    H144560   3.816   0.449   1.251  1.4490  0.9584 -0.3640
 7715TIP3    H244561   3.738   0.552   1.173  0.2799  0.7654  0.5225
 7716TIP3   OH244562   3.673   1.629  13.856  0.0282 -0.5568  0.2047
 7716TIP3    H144563   3.719   1.546  13.850 -0.6346 -0.9774  0.7826
 7716TIP3    H244564   3.609   1.627  13.785  1.5559  0.4891 -1.3029
 7717TIP3   OH244565   4.371   4.754  12.668  0.6251  0.2298 -0.0415
 7717TIP3    H144566   4.461   4.725  12.659  0.7194  0.0634  1.2397
 7717TIP3    H244567   4.370   4.844  12.636  0.7137 -0.5257 -2.3476
 7718TIP3   OH244568   2.406   0.023  15.388  0.4754  0.1392  0.2981
 7718TIP3    H144569   2.438  -0.044  15.327  0.5523 -0.8560  1.3867
 7718TIP3    H244570   2.338  -0.022  15.438  1.1132  0.6096  1.6318
 7719TIP3   OH244571   1.669   4.211  17.155  0.3893 -0.0785 -0.1933
 7719TIP3    H144572   1.643   4.135  17.207 -1.2212 -0.7490 -1.8571
 7719TIP3    H244573   1.704   4.174  17.074  1.1152  0.9378 -0.3645
 7720TIP3   OH244574   4.470   5.265  15.391  0.2880 -0.4439  0.4775
 7720TIP3    H144575   4.433   5.352  15.401  1.6025  0.3380 -0.9513
 7720TIP3    H244576   4.395   5.206  15.394 -0.8202  0.8770 -0.1746
 7721TIP3   OH244577   6.750   0.639  13.059  0.3483  0.4447  0.1549
 7721TIP3    H144578   6.790   0.575  13.000 -0.2511  0.5894 -0.4156
 7721TIP3    H244579   6.824   0.677  13.107  0.9647  1.1163 -1.2810
 7722TIP3   OH244580   1.134   5.945   4.907 -0.0131  0.8651 -0.5941
 7722TIP3    H144581   1.057   5.893   4.884 -0.2499  1.4158 -1.0573
 7722TIP3    H244582   1.207   5.882   4.904 -0.3386  0.4969 -0.8431
 7723TIP3   OH244583   2.123   1.439  11.805  0.4928 -0.3297 -0.4426
 7723TIP3    H144584   2.045   1.420  11.754 -0.5989  1.1139  0.6112
 7723TIP3    H244585   2.182   1.483  11.744 -0.0005 -0.3717 -0.9553
 7724TIP3   OH244586   1.946   6.466  16.694 -0.2968 -0.2443 -0.6667
 7724TIP3    H144587   1.924   6.507  16.778 -1.4342 -0.1520 -0.9883
 7724TIP3    H244588   1.911   6.377  16.700  1.0114 -0.7747 -0.4679
 7725TIP3   OH244589   0.632   2.381   4.072  0.0485  0.3795  0.0362
 7725TIP3    H144590   0.689   2.454   4.098  1.1142  0.3256 -1.9505
 7725TIP3    H244591   0.665   2.355   3.986 -1.0937 -1.6677  0.1702
 7726TIP3   OH244592   0.864   0.365  16.410  0.0367 -0.0197  0.0657
 7726TIP3    H144593   0.931   0.433  16.415  0.8164 -0.8313  1.1110
 7726TIP3    H244594   0.865   0.339  16.318  0.5404  0.5893 -0.1130
 7727TIP3   OH244595   3.085   2.574   4.514 -0.0293  0.3263 -0.3050
 7727TIP3    H144596   3.132   2.491   4.505  1.2574  0.9726  0.2395
 7727TIP3    H244597   3.019   2.572   4.445 -0.4779 -1.4402  0.1066
 7728TIP3   OH244598   5.220   2.755   6.044  0.1284 -0.0293 -0.0342
 7728TIP3    H144599   5.139   2.710   6.022 -0.0551  0.5899 -0.6232
 7728TIP3    H244600   5.235   2.732   6.136 -1.3299  0.7955  0.4287
 7729TIP3   OH244601   2.344   6.410  15.876 -0.2870 -0.0304  0.0427
 7729TIP3    H144602   2.377   6.405  15.786  1.4292  0.0637  0.6216
 7729TIP3    H244603   2.419   6.386  15.930 -0.1998  3.2226  1.6214
 7730TIP3   OH244604   4.115   6.596   2.219  0.1447 -0.5364  0.1853
 7730TIP3    H144605   4.123   6.682   2.261 -0.1561 -1.2903  1.8666
 7730TIP3    H244606   4.023   6.572   2.230  0.2999 -1.2261  0.0564
 7731TIP3   OH244607   0.737   4.627   4.533  0.0927 -0.5284  0.2485
 7731TIP3    H144608   0.692   4.616   4.449  1.2277 -0.5780 -0.3724
 7731TIP3    H244609   0.807   4.562   4.531  0.7020  0.0885  0.8246
 7732TIP3   OH244610   6.194   5.500  11.998  0.7314 -0.1303 -0.0315
 7732TIP3    H144611   6.195   5.415  11.953 -2.2346 -1.0533  1.3152
 7732TIP3    H244612   6.127   5.551  11.952 -0.5750 -0.1877  1.6833
 7733TIP3   OH244613   3.389   5.927  12.476 -0.3633 -0.2860  0.4835
 7733TIP3    H144614   3.328   5.927  12.402  0.0167 -0.6941  0.1658
 7733TIP3    H244615   3.465   5.975  12.445 -0.6984  0.6370  1.0422
 7734TIP3   OH244616   4.385   3.327  15.545 -0.4915 -0.0795 -0.3878
 7734TIP3    H144617   4.470   3.349  15.506 -0.9324  1.1687 -0.6810
 7734TIP3    H244618   4.407   3.269  15.618  0.6384  0.4278 -0.2966
 7735TIP3   OH244619   0.315   2.525  16.991  0.4172  0.1856 -1.1160
 7735TIP3    H144620   0.317   2.434  17.021  3.9522  0.9074  1.3435
 7735TIP3    H244621   0.252   2.568  17.049  0.7481 -0.1878 -0.4703
 7736TIP3   OH244622   5.054   3.918  13.955  0.3939  0.1250  0.3753
 7736TIP3    H144623   5.132   3.956  13.914 -0.5661  1.5768 -0.1674
 7736TIP3    H244624   5.088   3.863  14.025  1.8771  1.1386  0.4831
 7737TIP3   OH244625   2.487   5.990  12.656  0.3157  0.5437  0.3903
 7737TIP3    H144626   2.392   5.993  12.648  0.2983  1.1109  0.7480
 7737TIP3    H244627   2.519   5.998  12.566  0.0126 -1.0262  0.1183
 7738TIP3   OH244628   5.497   0.185   3.976 -0.2772  0.4282  0.1153
 7738TIP3    H144629   5.577   0.186   3.923 -0.5751  1.0789 -0.3347
 7738TIP3    H244630   5.528   0.179   4.066  0.2255 -0.9826 -0.1415
 7739TIP3   OH244631   2.798   2.620  13.956  0.0884  0.4752 -0.1903
 7739TIP3    H144632   2.800   2.548  14.019 -0.2500  0.9863  0.4241
 7739TIP3    H244633   2.708   2.652  13.959  0.0335  0.4357 -1.0302
 7740TIP3   OH244634   5.542   3.942   3.050  0.1313 -0.1578 -0.1170
 7740TIP3    H144635   5.591   3.932   3.131  0.3000 -1.9549 -0.3947
 7740TIP3    H244636   5.545   4.035   3.031  1.6070  0.0528  0.9985
 7741TIP3   OH244637   6.731   4.208   2.195 -0.1498  0.0859  0.8985
 7741TIP3    H144638   6.778   4.240   2.273  0.1122 -0.0634  0.8054
 7741TIP3    H244639   6.767   4.259   2.123 -0.1474 -0.0133  0.8294
 7742TIP3   OH244640   2.006   6.701  15.899 -0.1221 -0.7393  0.0852
 7742TIP3    H144641   1.920   6.672  15.869 -0.6962  0.0103  0.9560
 7742TIP3    H244642   2.010   6.794  15.876 -0.0839 -0.4500  1.1837
 7743TIP3   OH244643   0.814   0.667  14.057 -0.2753  0.2443 -1.1023
 7743TIP3    H144644   0.875   0.714  14.114  1.0764 -1.1756 -1.3072
 7743TIP3    H244645   0.730   0.673  14.102  0.1812  1.4968 -0.3657
 7744TIP3   OH244646   4.047   1.261  14.128 -0.8262  0.2788 -0.2367
 7744TIP3    H144647   4.043   1.173  14.092 -2.3083  0.1144  0.2962
 7744TIP3    H244648   4.063   1.248  14.222 -1.6664  0.5347 -0.0468
 7745TIP3   OH244649   5.160   3.994   0.511 -0.0015  0.1049 -0.2279
 7745TIP3    H144650   5.155   4.028   0.421  3.7710 -0.0431 -0.6482
 7745TIP3    H244651   5.100   3.919   0.511  1.6286 -1.4231 -3.4457
 7746TIP3   OH244652   6.076   1.924  16.502 -0.7777  0.2723  0.2563
 7746TIP3    H144653   6.106   1.973  16.579  1.5530 -0.6771  0.0334
 7746TIP3    H244654   5.981   1.918  16.513 -0.4634 -0.5311  3.5037
 7747TIP3   OH244655   1.098   5.516  13.987  0.3393 -0.2706  0.1607
 7747TIP3    H144656   1.099   5.535  13.894  0.0920 -0.7753  0.0528
 7747TIP3    H244657   1.034   5.577  14.024  0.7740  0.2433  0.0741
 7748TIP3   OH244658   4.362   0.920   3.511  0.2174  0.2657  0.0776
 7748TIP3    H144659   4.449   0.930   3.549 -0.5357  0.7171  1.8006
 7748TIP3    H244660   4.309   0.988   3.554 -1.2110 -0.6306 -0.1790
 7749TIP3   OH244661   0.322   3.311   2.573  0.0138  0.5792  0.3033
 7749TIP3    H144662   0.303   3.227   2.531  1.8205  0.3035 -0.0380
 7749TIP3    H244663   0.365   3.288   2.656  0.0806  1.1631  0.4413
 7750TIP3   OH244664   6.325   2.457   0.305  0.3330 -0.0691 -0.0177
 7750TIP3    H144665   6.344   2.521   0.373 -0.0247 -1.5442  1.5438
 7750TIP3    H244666   6.403   2.402   0.301  0.2603 -0.1340 -0.6424
 7751TIP3   OH244667   2.973   3.105   0.708 -0.2919 -0.5917 -0.2942
 7751TIP3    H144668   3.016   3.161   0.772 -0.0470  0.3965 -1.2827
 7751TIP3    H244669   2.963   3.020   0.752  0.6970 -0.2057  0.7122
 7752TIP3   OH244670   1.617   4.439  11.535 -0.2881 -0.4116  0.2473
 7752TIP3    H144671   1.673   4.378  11.487  1.2522  0.7910  0.4273
 7752TIP3    H244672   1.568   4.484  11.466  0.0249 -0.4765 -0.0217
 7753TIP3   OH244673   0.462   4.843   3.428 -0.5899 -0.3284 -0.3192
 7753TIP3    H144674   0.479   4.775   3.493  4.0591  0.6445 -0.2280
 7753TIP3    H244675   0.430   4.918   3.479  0.8701 -0.2999  0.5933
 7754TIP3   OH244676   1.326   2.648  15.165  0.0462 -0.6302 -0.3121
 7754TIP3    H144677   1.302   2.700  15.088 -1.0384  0.6601  0.8347
 7754TIP3    H244678   1.274   2.568  15.157 -1.2974  0.1874 -0.1684
 7755TIP3   OH244679   2.846   1.571  16.577 -0.1724 -0.0542 -0.1203
 7755TIP3    H144680   2.778   1.510  16.606 -1.1074  0.0645 -1.8694
 7755TIP3    H244681   2.923   1.517  16.563 -0.5557 -0.5901 -0.1902
 7756TIP3   OH244682   5.268   3.523  14.525  0.1107  0.2436 -0.4805
 7756TIP3    H144683   5.266   3.607  14.479 -0.1293 -0.7173 -2.3206
 7756TIP3    H244684   5.225   3.462  14.466  0.5099 -1.2449  0.6940
 7757TIP3   OH244685   4.025   3.131  10.919  0.1949  0.3655 -0.0194
 7757TIP3    H144686   3.935   3.142  10.951  0.4344  1.0971  0.4240
 7757TIP3    H244687   4.038   3.036  10.918 -0.5014  0.2583  0.1359
 7758TIP3   OH244688   6.500   2.222  14.379  0.8380  0.2043  0.4344
 7758TIP3    H144689   6.552   2.296  14.348  1.4935 -0.1444  0.6799
 7758TIP3    H244690   6.435   2.208  14.311 -0.0045  1.7037  0.8756
 7759TIP3   OH244691   4.692   6.346   2.676 -0.1068 -0.3133  0.0759
 7759TIP3    H144692   4.699   6.383   2.764  0.1631  0.0244 -0.0855
 7759TIP3    H244693   4.782   6.327   2.650 -0.0065  1.1833 -0.7947
 7760TIP3   OH244694   5.402   3.077   4.272  0.1273  0.0161 -0.6661
 7760TIP3    H144695   5.456   3.015   4.322 -0.2221  1.4085  1.5574
 7760TIP3    H244696   5.460   3.151   4.254 -0.2523  0.2945 -0.7576
 7761TIP3   OH244697   0.954   4.106  14.202 -0.0520 -0.9259  0.4209
 7761TIP3    H144698   0.940   4.042  14.272 -1.0178 -0.5528  0.5909
 7761TIP3    H244699   1.006   4.175  14.242 -1.5941 -0.1324  1.1608
 7762TIP3   OH244700   4.982   5.719  13.978  0.2690  0.7191  0.0325
 7762TIP3    H144701   5.048   5.659  13.945 -0.0306 -0.0322  0.7806
 7762TIP3    H244702   5.027   5.803  13.985  0.6663  0.6095 -1.0947
 7763TIP3   OH244703   0.644   6.194   4.577  0.0083 -0.1848  0.0649
 7763TIP3    H144704   0.559   6.237   4.593 -0.2310 -0.6401  0.0238
 7763TIP3    H244705   0.708   6.253   4.616 -0.4211 -0.4182  1.1694
 7764TIP3   OH244706   4.536   2.137   3.218  0.2328  0.0091 -0.1168
 7764TIP3    H144707   4.555   2.217   3.268  0.0744 -1.3119  2.1724
 7764TIP3    H244708   4.621   2.110   3.183  0.9350 -0.6390  1.9759
 7765TIP3   OH244709   1.241   2.832   0.006  0.3180  0.4298  0.2056
 7765TIP3    H144710   1.284   2.764  -0.045 -2.6055  0.0325 -1.9812
 7765TIP3    H244711   1.232   2.906  -0.054  0.1392  1.4072  1.3792
 7766TIP3   OH244712   4.444   4.282  13.392  0.3427  0.7284  0.2361
 7766TIP3    H144713   4.527   4.323  13.420  0.6121  0.6894 -0.4872
 7766TIP3    H244714   4.471   4.203  13.345 -0.1668 -0.1944  1.4306
 7767TIP3   OH244715   3.162   3.498  14.848 -0.6407 -0.7640 -0.4722
 7767TIP3    H144716   3.198   3.518  14.934  0.3661  1.2130 -1.3031
 7767TIP3    H244717   3.074   3.533  14.850 -0.2069  0.3573 -0.6276
 7768TIP3   OH244718   4.240   5.462  11.048 -0.1377  0.5858  0.2055
 7768TIP3    H144719   4.215   5.474  10.956 -0.5607 -1.4334  0.0216
 7768TIP3    H244720   4.330   5.430  11.044 -0.1450  0.5251  0.5088
 7769TIP3   OH244721   3.066   5.834  14.140  0.4184 -0.3321  0.1686
 7769TIP3    H144722   3.092   5.909  14.194 -3.3117  1.1293  0.2628
 7769TIP3    H244723   3.065   5.760  14.200  1.2211  0.1645  0.8230
 7770TIP3   OH244724   2.329   2.432  16.439 -0.4668 -0.3334 -0.3163
 7770TIP3    H144725   2.361   2.357  16.490 -1.4213  0.9889  2.4329
 7770TIP3    H244726   2.244   2.403  16.405  0.2071 -1.2603 -1.2771
 7771TIP3   OH244727   2.234   0.283   1.256 -0.2015 -0.1902 -0.1168
 7771TIP3    H144728   2.220   0.318   1.345 -0.7127 -0.6025 -0.0305
 7771TIP3    H244729   2.299   0.214   1.268 -0.4833 -0.4399 -0.0162
 7772TIP3   OH244730   1.272   6.234  16.891 -0.6913  0.0213  0.4975
 7772TIP3    H144731   1.246   6.170  16.825 -1.4606 -0.2980  1.0832
 7772TIP3    H244732   1.229   6.204  16.971 -0.2049  0.6902  1.0248
 7773TIP3   OH244733   6.360   1.244  16.547  0.3642 -0.0139  0.2074
 7773TIP3    H144734   6.423   1.202  16.605  1.8624  0.7312 -0.8320
 7773TIP3    H244735   6.402   1.326  16.520  0.8301 -1.3291 -3.7186
 7774TIP3   OH244736   5.438   5.847   3.007 -0.1424  0.0782  0.5653
 7774TIP3    H144737   5.531   5.823   3.008 -0.4914 -1.3000  0.6954
 7774TIP3    H244738   5.424   5.889   3.093 -0.5025 -3.2963  2.3222
 7775TIP3   OH244739   5.453   1.120  11.486 -0.0057 -0.1608  0.3254
 7775TIP3    H144740   5.465   1.154  11.575  1.3408 -0.0774  0.1378
 7775TIP3    H244741   5.377   1.166  11.452  0.8505  1.5525  0.6371
 7776TIP3   OH244742   6.017   1.546   1.886 -0.3673 -0.0011  0.0157
 7776TIP3    H144743   5.936   1.538   1.835 -0.1139 -1.1020 -0.2603
 7776TIP3    H244744   5.988   1.575   1.972 -0.7878  2.1239 -0.7854
 7777TIP3   OH244745   5.810   4.815   5.898 -0.4373  0.1360 -0.0362
 7777TIP3    H144746   5.890   4.794   5.945 -1.2335 -0.5826  1.0322
 7777TIP3    H244747   5.740   4.796   5.960 -1.5106 -0.6352 -1.4361
 7778TIP3   OH244748   2.977   4.013  13.570 -0.0177 -0.4032 -0.2385
 7778TIP3    H144749   2.975   3.938  13.631  0.5698  0.3426  0.7344
 7778TIP3    H244750   2.885   4.037  13.559 -0.1073 -0.1869  0.8450
 7779TIP3   OH244751   6.705   0.021   0.745 -0.0078 -0.1612  0.4454
 7779TIP3    H144752   6.740  -0.040   0.680 -0.7545 -0.2738  0.1372
 7779TIP3    H244753   6.732  -0.016   0.829  1.2736  0.1781  0.2009
 7780TIP3   OH244754   3.553   3.966   5.144 -0.6121  0.5625 -0.1948
 7780TIP3    H144755   3.630   4.016   5.171 -0.1192  0.7835 -1.8521
 7780TIP3    H244756   3.478   4.019   5.172 -0.1308  1.0921  0.1107
 7781TIP3   OH244757   1.104   2.338  15.818  0.6321  0.0597  0.4159
 7781TIP3    H144758   1.140   2.249  15.816  1.1651  0.2551  0.8996
 7781TIP3    H244759   1.033   2.337  15.754  0.2267 -0.8882  0.8607
 7782TIP3   OH244760   2.616   2.683  16.834 -0.1133  0.0913  0.0960
 7782TIP3    H144761   2.565   2.762  16.848 -0.8798 -0.3249 -0.2896
 7782TIP3    H244762   2.674   2.678  16.910  0.7590  1.6285 -0.4367
 7783TIP3   OH244763   0.389   4.179   1.127 -0.4478  0.9180  0.0057
 7783TIP3    H144764   0.421   4.255   1.176 -0.2399  0.8254  0.0147
 7783TIP3    H244765   0.469   4.135   1.096 -0.3634 -1.3163  3.0028
 7784TIP3   OH244766   0.990   6.378  12.288 -0.1866 -0.1477  0.1528
 7784TIP3    H144767   0.955   6.459  12.326 -1.9909 -0.7131 -0.2102
 7784TIP3    H244768   1.042   6.339  12.358 -0.5268  0.5992  0.8379
 7785TIP3   OH244769   5.131   2.884  14.264  0.5865 -0.8808  0.1140
 7785TIP3    H144770   5.221   2.879  14.232  1.2999  0.0967  1.8161
 7785TIP3    H244771   5.118   2.803  14.312  0.7866 -0.7357  0.4142
 7786TIP3   OH244772   6.270   5.181   4.908  0.6226  0.0629  0.1641
 7786TIP3    H144773   6.337   5.131   4.956 -0.7845 -0.6355  1.5055
 7786TIP3    H244774   6.269   5.266   4.951 -0.0992 -0.3041  0.9050
 7787TIP3   OH244775   3.741   1.026  16.548 -0.0643  0.1659  0.2310
 7787TIP3    H144776   3.752   0.944  16.595  0.5028  0.6873  1.0314
 7787TIP3    H244777   3.708   1.087  16.613 -0.1903  0.6609 -0.2833
 7788TIP3   OH244778   0.365   6.043   2.053 -0.1890 -0.1535 -0.5536
 7788TIP3    H144779   0.276   6.058   2.085  0.2059 -0.7170  0.9006
 7788TIP3    H244780   0.409   6.127   2.063 -0.8742  0.4913 -2.5033
 7789TIP3   OH244781   5.669   1.630   0.355  0.2913  0.7911 -0.3767
 7789TIP3    H144782   5.588   1.579   0.363  1.1910 -0.6589 -0.1593
 7789TIP3    H244783   5.714   1.616   0.438  1.7322 -0.1561 -1.2846
 7790TIP3   OH244784   3.344   1.971   6.787 -0.0841 -0.2517 -0.0748
 7790TIP3    H144785   3.323   2.003   6.699  1.7248 -0.5837 -0.6708
 7790TIP3    H244786   3.308   1.882   6.790 -2.4045  0.6405  0.4867
 7791TIP3   OH244787   3.211   4.642  12.589  0.3218 -0.1392 -0.7229
 7791TIP3    H144788   3.230   4.705  12.519 -0.2999 -1.0188 -1.7149
 7791TIP3    H244789   3.131   4.598  12.560  0.1959 -0.6996  0.4330
 7792TIP3   OH244790   5.700   4.427  16.747  0.3424 -0.2925  0.3097
 7792TIP3    H144791   5.681   4.519  16.765  1.0712 -0.3675  1.5323
 7792TIP3    H244792   5.631   4.379  16.792  0.4219 -0.3752  0.3434
 7793TIP3   OH244793   2.627   0.087   1.523  0.8587 -0.2098  0.3475
 7793TIP3    H144794   2.651   0.006   1.568  0.8842 -0.5552 -0.2825
 7793TIP3    H244795   2.683   0.090   1.446  0.8248  0.3852  0.3381
 7794TIP3   OH244796   5.229   6.214  16.249 -0.1741 -0.0982 -0.2427
 7794TIP3    H144797   5.285   6.144  16.284 -0.6697  0.6278  2.1502
 7794TIP3    H244798   5.145   6.201  16.292 -0.3056  1.8823  0.1704
 7795TIP3   OH244799   5.677   6.038  15.177  0.0949  0.8741 -0.0809
 7795TIP3    H144800   5.646   5.988  15.253  0.2765 -1.2688 -1.3401
 7795TIP3    H244801   5.724   6.112  15.215  0.1636 -0.1185  1.9089
 7796TIP3   OH244802   1.686   2.730   3.066 -0.9094  0.0238  0.1180
 7796TIP3    H144803   1.745   2.780   3.009  1.2205 -0.1301  2.0449
 7796TIP3    H244804   1.666   2.650   3.016 -0.4989  0.6501 -1.0731
 7797TIP3   OH244805   2.932   1.593   0.618 -0.2655 -0.1059 -0.1589
 7797TIP3    H144806   3.015   1.552   0.593 -0.9227 -1.2998 -0.4955
 7797TIP3    H244807   2.919   1.568   0.709 -0.6911 -0.7268 -0.3792
 7798TIP3   OH244808   5.614   1.272   6.589 -0.4904 -0.4964  0.2957
 7798TIP3    H144809   5.624   1.344   6.527  1.8949 -1.0404 -0.0210
 7798TIP3    H244810   5.673   1.294   6.661  0.4034 -2.1752  0.1206
 7799TIP3   OH244811   0.488   1.813  12.668 -0.2618  0.5793  0.2436
 7799TIP3    H144812   0.475   1.767  12.585  0.4130  2.2746 -0.8382
 7799TIP3    H244813   0.582   1.806  12.685 -0.4993 -0.4275  1.3127
 7800TIP3   OH244814   2.957   2.148   3.337  0.2850 -0.3381 -0.3065
 7800TIP3    H144815   2.892   2.163   3.405 -0.5272 -0.5660 -1.0109
 7800TIP3    H244816   3.033   2.198   3.365 -0.6456  1.0200 -0.1222
 7801TIP3   OH244817   3.334   3.942   1.204  0.7521 -0.1570 -0.5399
 7801TIP3    H144818   3.410   3.888   1.183  0.5357  0.0999 -2.1436
 7801TIP3    H244819   3.368   4.032   1.204  0.5523 -0.0789 -0.7724
 7802TIP3   OH244820   5.429   4.613   2.409  0.3248  0.3511 -0.3391
 7802TIP3    H144821   5.376   4.590   2.333  0.0525  2.3225 -0.7953
 7802TIP3    H244822   5.371   4.599   2.484  0.3328 -0.8308 -0.5464
 7803TIP3   OH244823   3.300   1.132   2.614  0.1131 -0.1135 -0.3062
 7803TIP3    H144824   3.218   1.177   2.593  0.6330  1.1385  0.2439
 7803TIP3    H244825   3.355   1.200   2.652  0.8433 -1.3053  0.8166
 7804TIP3   OH244826   6.724   6.673  12.574  0.1393 -0.3707  0.1890
 7804TIP3    H144827   6.648   6.639  12.527 -0.4365  0.8471  0.1979
 7804TIP3    H244828   6.799   6.650  12.520 -0.2861 -1.1546 -0.0720
 7805TIP3   OH244829   5.374   2.784   0.794 -0.4328 -0.1125  0.0579
 7805TIP3    H144830   5.409   2.826   0.872 -0.3883 -0.1420  0.0537
 7805TIP3    H244831   5.451   2.755   0.745 -0.4732 -0.8020  0.3849
 7806TIP3   OH244832   1.580   5.525   4.933 -0.4351  0.0779  0.8513
 7806TIP3    H144833   1.610   5.464   5.001 -0.4451 -1.3979 -0.4269
 7806TIP3    H244834   1.597   5.612   4.970  2.0416 -0.6759  1.6962
 7807TIP3   OH244835   2.097   3.131  14.510  0.2394 -0.2312  0.6288
 7807TIP3    H144836   2.097   3.079  14.591 -0.0724 -0.4616  0.4821
 7807TIP3    H244837   2.129   3.071  14.443 -0.0879 -0.2230  0.4644
 7808TIP3   OH244838   0.941   4.465   4.636 -0.1895  0.2672  0.3082
 7808TIP3    H144839   1.021   4.419   4.660  0.8821  0.5146 -2.4520
 7808TIP3    H244840   0.891   4.403   4.584 -0.8802  0.7639  0.3510
 7809TIP3   OH244841   4.103   4.329   6.005  0.7042 -0.2306 -0.1279
 7809TIP3    H144842   4.030   4.322   6.067  1.2199  1.5621  0.7216
 7809TIP3    H244843   4.127   4.238   5.987 -1.4571 -0.8713 -0.1294
 7810TIP3   OH244844   4.923   1.646  13.650 -0.0659 -0.0149  0.0545
 7810TIP3    H144845   4.848   1.685  13.695 -0.7316 -1.2432  0.0372
 7810TIP3    H244846   4.911   1.552  13.659  2.0723 -0.2650  1.0494
 7811TIP3   OH244847   4.002   0.464   0.942 -0.0062 -0.0357  0.0870
 7811TIP3    H144848   3.928   0.451   1.001  0.9417  0.4672  1.4458
 7811TIP3    H244849   4.062   0.520   0.991  1.5416 -0.8972 -0.7510
 7812TIP3   OH244850   0.161   4.018  12.661  0.2219  0.2624  0.3466
 7812TIP3    H144851   0.196   4.100  12.696 -1.1379  0.5007  1.2365
 7812TIP3    H244852   0.180   3.953  12.729  3.0138 -0.6656 -1.1515
 7813TIP3   OH244853   4.121   0.769   3.176 -0.4124 -0.2425 -0.1382
 7813TIP3    H144854   4.119   0.808   3.264  1.7203  1.0822 -0.5962
 7813TIP3    H244855   4.200   0.715   3.176 -0.1665  0.0995 -1.3616
 7814TIP3   OH244856   6.712   5.811  14.182  0.6498 -0.4250  0.6031
 7814TIP3    H144857   6.664   5.782  14.104 -0.8016  0.5162  1.0929
 7814TIP3    H244858   6.647   5.810  14.252  1.5429  0.1760  1.4738
 7815TIP3   OH244859   3.641   5.419   4.874 -0.5752  0.1329 -0.0302
 7815TIP3    H144860   3.674   5.492   4.926  0.3994 -0.9114  0.8941
 7815TIP3    H244861   3.546   5.431   4.872 -0.5318  0.7952  1.0943
 7816TIP3   OH244862   6.641   0.371   1.235 -0.2725  0.0898  0.0872
 7816TIP3    H144863   6.714   0.358   1.174 -0.6311 -0.9675 -0.1421
 7816TIP3    H244864   6.592   0.288   1.232 -1.1107  0.5416  0.7301
 7817TIP3   OH244865   4.137   4.600   5.040  1.1876  0.0152  0.2825
 7817TIP3    H144866   4.074   4.540   5.001  0.3477  1.4764 -0.6665
 7817TIP3    H244867   4.149   4.669   4.975  1.6551  1.2108  1.5776
 7818TIP3   OH244868   6.291   0.019  13.109 -0.1864 -0.0903 -0.1355
 7818TIP3    H144869   6.360  -0.044  13.086 -1.0932 -1.2378  0.1678
 7818TIP3    H244870   6.333   0.081  13.169  0.5303 -0.8891  0.2038
 7819TIP3   OH244871   0.439   1.426  10.541  0.3276  0.0127 -0.4826
 7819TIP3    H144872   0.426   1.377  10.622  1.2992 -0.1901 -0.4334
 7819TIP3    H244873   0.471   1.511  10.569  1.2733 -0.2736 -0.6699
 7820TIP3   OH244874   1.271   2.943  12.656  0.6160 -0.1593 -0.0213
 7820TIP3    H144875   1.304   2.877  12.595  1.6450 -0.0277  0.3679
 7820TIP3    H244876   1.297   3.026  12.617 -2.5405  0.2294 -1.6338
 7821TIP3   OH244877   4.049   6.482   0.854 -0.3180 -0.4393  0.2496
 7821TIP3    H144878   3.961   6.478   0.892 -0.7036  1.4202 -0.3518
 7821TIP3    H244879   4.096   6.546   0.908  0.4842 -0.9430  0.1694
 7822TIP3   OH244880   2.129   4.318   3.151 -0.2630  0.3864  0.0671
 7822TIP3    H144881   2.081   4.268   3.085  0.9875 -0.4249 -0.2724
 7822TIP3    H244882   2.210   4.268   3.165 -0.1692  0.9227  1.6924
 7823TIP3   OH244883   0.522   3.714  17.362 -0.9552  0.2218  0.6144
 7823TIP3    H144884   0.507   3.750  17.450 -0.5427 -1.0039  1.2042
 7823TIP3    H244885   0.564   3.630  17.377 -1.7072 -0.4297 -0.7441
 7824TIP3   OH244886   4.240   4.122  12.775 -0.0558 -0.2426  0.7911
 7824TIP3    H144887   4.199   4.204  12.801 -1.0059  0.3944 -2.3050
 7824TIP3    H244888   4.171   4.056  12.784  0.5861 -0.7050  2.8728
 7825TIP3   OH244889   0.963   3.615  15.784  0.1071 -0.8688 -0.3073
 7825TIP3    H144890   1.057   3.619  15.764 -0.2234  0.0585 -1.8664
 7825TIP3    H244891   0.920   3.619  15.698 -1.3826 -0.3472  0.4300
 7826TIP3   OH244892   3.288   4.624  16.607 -0.0580  0.4636  0.5096
 7826TIP3    H144893   3.258   4.641  16.696  0.7750 -0.7738  1.0591
 7826TIP3    H244894   3.383   4.635  16.612  0.1029 -0.5518  0.0248
 7827TIP3   OH244895   3.937   0.970  16.947 -0.0219 -1.0090 -0.3601
 7827TIP3    H144896   3.852   0.984  16.989 -0.2457 -0.1604 -1.0797
 7827TIP3    H244897   3.996   1.031  16.991 -0.2701 -0.0752 -1.3045
 7828TIP3   OH244898   2.861   5.578   2.846 -0.3802  0.1902  0.3462
 7828TIP3    H144899   2.818   5.534   2.919  0.8325 -0.7593  0.5328
 7828TIP3    H244900   2.920   5.641   2.887  1.9202 -1.8205  0.3827
 7829TIP3   OH244901   3.703   5.852   1.131 -0.0578 -0.2294  0.4443
 7829TIP3    H144902   3.658   5.920   1.080 -0.9273  0.0854  1.6045
 7829TIP3    H244903   3.759   5.901   1.191  0.3598 -0.5796  0.3408
 7830TIP3   OH244904   0.048   6.446   3.247  0.0963  0.4879 -0.2105
 7830TIP3    H144905  -0.010   6.389   3.197  2.4164 -1.2471 -1.0806
 7830TIP3    H244906   0.057   6.403   3.332  0.3931  0.5421 -0.2116
 7831TIP3   OH244907   4.928   2.295  11.768  0.3337  0.5410  0.2251
 7831TIP3    H144908   5.017   2.276  11.798  1.1321  2.6525 -0.5309
 7831TIP3    H244909   4.874   2.291  11.846  1.4060  0.8118  0.9986
 7832TIP3   OH244910   1.335   1.615   2.218  0.7466  0.4159  0.4576
 7832TIP3    H144911   1.399   1.663   2.272  1.3134  1.1536 -0.8273
 7832TIP3    H244912   1.255   1.616   2.270  1.0637  1.7682  0.9757
 7833TIP3   OH244913   3.524   2.595  12.714  0.0859  0.0487  0.1733
 7833TIP3    H144914   3.466   2.593  12.790  0.7218 -0.3154  0.6495
 7833TIP3    H244915   3.545   2.688  12.703 -1.3848  0.3301 -0.6308
 7834TIP3   OH244916   3.591   4.460   1.216  0.4261 -0.3726 -0.2414
 7834TIP3    H144917   3.679   4.434   1.189  0.5910  0.9277 -1.0161
 7834TIP3    H244918   3.560   4.516   1.146 -0.7447 -0.2176  0.3807
 7835TIP3   OH244919   5.050   3.763   2.526 -0.0796 -0.1676  0.2618
 7835TIP3    H144920   5.024   3.856   2.527 -1.1538 -0.4450  1.6071
 7835TIP3    H244921   5.049   3.737   2.618  0.7022 -1.4008 -0.0553
 7836TIP3   OH244922   4.324   1.559  11.798  0.0291 -0.3720  0.2114
 7836TIP3    H144923   4.237   1.560  11.758 -0.3978 -0.6167  1.1082
 7836TIP3    H244924   4.318   1.492  11.866  0.6517  0.2507  0.8895
 7837TIP3   OH244925   1.507   3.169   6.598  0.0394  0.1692 -0.2026
 7837TIP3    H144926   1.427   3.167   6.652  0.5947 -1.3388  0.6189
 7837TIP3    H244927   1.564   3.232   6.641  1.2429 -2.3805  2.2292
 7838TIP3   OH244928   3.826   0.845  14.114 -0.9494 -0.1768 -0.4225
 7838TIP3    H144929   3.802   0.850  14.206 -0.4991  0.0459 -0.3151
 7838TIP3    H244930   3.873   0.762  14.106 -1.7147 -0.6021 -0.6289
 7839TIP3   OH244931   0.823   5.953  14.828  0.1890  0.0164 -0.2148
 7839TIP3    H144932   0.822   6.028  14.887  0.3259  0.0047 -0.1980
 7839TIP3    H244933   0.836   5.877  14.885  0.8241  0.0513 -0.3078
 7840TIP3   OH244934   4.045   5.949   5.402 -0.1248  0.2048  0.4128
 7840TIP3    H144935   4.089   6.032   5.382 -0.9042  0.1356 -1.8352
 7840TIP3    H244936   3.985   5.936   5.329 -0.0930 -2.3128  0.7735
 7841TIP3   OH244937   4.249   4.581  15.171 -0.4160 -0.3332 -0.4448
 7841TIP3    H144938   4.222   4.540  15.089  0.2770  1.0206 -1.3999
 7841TIP3    H244939   4.321   4.640  15.145 -0.2438  0.1781  1.1211
 7842TIP3   OH244940   0.846   3.827  11.999 -0.6353  0.2966  0.0985
 7842TIP3    H144941   0.805   3.744  11.979 -1.0362  0.8490 -1.4884
 7842TIP3    H244942   0.919   3.804  12.057 -2.4017 -0.8172  2.0293
 7843TIP3   OH244943   5.062   1.743  12.073 -0.0516  0.1727  0.0563
 7843TIP3    H144944   4.969   1.753  12.050 -0.6030 -2.7263  0.5605
 7843TIP3    H244945   5.063   1.671  12.136  2.6273 -0.5600 -0.6863
 7844TIP3   OH244946   2.184   1.844  16.258  0.3807 -0.1087  0.8324
 7844TIP3    H144947   2.180   1.920  16.315  1.2190 -0.1463  0.9600
 7844TIP3    H244948   2.278   1.829  16.244  0.2216  0.5275 -1.3970
 7845TIP3   OH244949   5.593   5.508   3.616  0.2642  0.0125 -0.7654
 7845TIP3    H144950   5.663   5.565   3.647 -2.2522  2.5935  0.7549
 7845TIP3    H244951   5.580   5.533   3.525  0.4616  0.5296 -0.6566
 7846TIP3   OH244952   0.211   2.089   4.119  0.2637  0.2433  0.3797
 7846TIP3    H144953   0.204   2.031   4.043  2.4421  0.3236  0.0411
 7846TIP3    H244954   0.282   2.149   4.096  2.1764 -0.8020  3.1488
 7847TIP3   OH244955   3.812   5.626  16.279  0.5740  0.6839 -0.3649
 7847TIP3    H144956   3.722   5.658  16.280  1.2703  2.8510 -0.3009
 7847TIP3    H244957   3.865   5.704  16.296  2.5488 -0.1996 -2.0015
 7848TIP3   OH244958   1.560   1.920   2.859  0.7598 -0.2665  0.2591
 7848TIP3    H144959   1.474   1.884   2.835 -0.1687  0.7333  1.9446
 7848TIP3    H244960   1.581   1.981   2.788 -0.2322 -0.0386  0.1438
 7849TIP3   OH244961   4.915   2.886   2.333 -0.2727  0.3294 -0.2204
 7849TIP3    H144962   4.907   2.896   2.238 -1.0893  0.5296 -0.1386
 7849TIP3    H244963   4.854   2.815   2.355 -1.4429  1.4823  0.3690
 7850TIP3   OH244964   2.091   5.178  14.253 -0.2994 -0.1037 -0.0247
 7850TIP3    H144965   2.031   5.252  14.250  1.0466  1.0859  0.8479
 7850TIP3    H244966   2.142   5.184  14.172  0.9160  0.9589  0.7725
 7851TIP3   OH244967   4.300   2.026   2.027  0.4049  0.1873 -0.1841
 7851TIP3    H144968   4.328   2.022   2.119  1.3665 -0.4882 -0.4896
 7851TIP3    H244969   4.253   1.944   2.013 -2.9828  1.8220  0.6596
 7852TIP3   OH244970   5.305   4.065  12.931 -0.4897  0.5630 -0.2334
 7852TIP3    H144971   5.270   4.064  13.020  2.0786 -1.0730  0.8688
 7852TIP3    H244972   5.281   3.981  12.894 -1.6966  1.3028 -1.2144
 7853TIP3   OH244973   5.006   5.294  14.878  0.3649 -0.0159 -0.0309
 7853TIP3    H144974   4.920   5.335  14.870 -0.0480 -0.6463  0.9614
 7853TIP3    H244975   5.028   5.301  14.970  0.5673 -1.4077  0.0604
 7854TIP3   OH244976   2.514   1.795  12.516 -0.2864 -0.6376  0.1637
 7854TIP3    H144977   2.532   1.852  12.591 -0.4888 -0.0602 -0.2108
 7854TIP3    H244978   2.509   1.856  12.442 -1.0305 -1.0866 -0.1635
 7855TIP3   OH244979   4.179   3.388   2.841 -0.0634  0.0395 -0.2974
 7855TIP3    H144980   4.273   3.366   2.841  0.1772  0.9556  0.9395
 7855TIP3    H244981   4.145   3.348   2.761  1.1984 -1.0996 -0.2974
 7856TIP3   OH244982   0.747   0.046   2.815 -0.5795  0.0518 -0.1909
 7856TIP3    H144983   0.754   0.134   2.852  1.2226 -0.5553  1.0367
 7856TIP3    H244984   0.691   0.057   2.738 -1.5837  1.9929  0.7377
 7857TIP3   OH244985   3.044   1.986   5.636  0.7297 -0.0816 -1.0121
 7857TIP3    H144986   2.951   2.011   5.637  1.0816  1.3137 -0.5822
 7857TIP3    H244987   3.082   2.038   5.565  1.4055  0.2602 -0.4126
 7858TIP3   OH244988   0.940   5.332  12.330 -0.2615  0.3443 -0.1061
 7858TIP3    H144989   1.033   5.328  12.308 -0.2975  0.1707 -0.2286
 7858TIP3    H244990   0.933   5.401  12.396 -0.0907  0.5699 -0.3259
 7859TIP3   OH244991   4.667   6.651  15.179 -0.4346  0.2497 -0.2671
 7859TIP3    H144992   4.687   6.631  15.088  1.1361 -0.2870  0.1776
 7859TIP3    H244993   4.701   6.577  15.229 -2.4231 -0.1066  0.6896
 7860TIP3   OH244994   5.503   2.841  16.870 -0.1587  0.6370  0.1661
 7860TIP3    H144995   5.408   2.832  16.884  0.0310 -2.8298  0.0798
 7860TIP3    H244996   5.510   2.891  16.788 -1.9021  0.5803 -0.0702
 7861TIP3   OH244997   3.814   4.093  11.234  0.5821  0.0062  0.5382
 7861TIP3    H144998   3.855   4.173  11.266  0.5203  1.2494 -2.2599
 7861TIP3    H244999   3.865   4.069  11.157 -1.1280 -1.0147 -0.3423
 7862TIP3   OH245000   3.429   6.367  16.976 -0.3716 -0.1066  0.1310
 7862TIP3    H145001   3.469   6.449  17.006 -1.2109  0.2206  0.3959
 7862TIP3    H245002   3.481   6.342  16.900  0.3675  0.2722  0.4982
 7863TIP3   OH245003   2.234   2.884   5.971  0.0278 -0.4913  0.4357
 7863TIP3    H145004   2.144   2.866   5.946 -0.5180  1.2287  1.0457
 7863TIP3    H245005   2.235   2.879   6.066  0.3375  0.4297  0.4949
 7864TIP3   OH245006   1.071   0.859   4.601 -0.0320  0.2448 -0.0442
 7864TIP3    H145007   1.150   0.813   4.576 -0.8569 -0.4544 -1.4575
 7864TIP3    H245008   1.068   0.936   4.543 -0.7535 -0.1275 -0.5099
 7865TIP3   OH245009   1.607   6.671   0.426  0.4988  0.1380 -0.3121
 7865TIP3    H145010   1.577   6.762   0.414  1.8338  0.4301 -1.7256
 7865TIP3    H245011   1.686   6.679   0.480 -0.2492 -0.3680  0.9158
 7866TIP3   OH245012   2.154   0.434  13.184 -0.0833 -0.3896  0.2371
 7866TIP3    H145013   2.151   0.352  13.234 -0.6292 -0.5851 -0.0972
 7866TIP3    H245014   2.205   0.494  13.238  0.4123 -0.9839  0.4392
 7867TIP3   OH245015   2.480   1.081  13.371 -0.4244 -0.1616 -0.6758
 7867TIP3    H145016   2.538   1.005  13.359 -0.0477  0.0965 -0.5327
 7867TIP3    H245017   2.460   1.080  13.465  1.1552  1.0143 -0.2758
 7868TIP3   OH245018   0.020   3.773  13.306  0.3179 -0.7367  0.2178
 7868TIP3    H145019  -0.001   3.811  13.391  0.5902 -0.7030  0.2679
 7868TIP3    H245020   0.026   3.679  13.323 -1.4477 -0.9523 -0.1098
 7869TIP3   OH245021   6.331   2.445   3.441 -0.1985  0.5985  0.4898
 7869TIP3    H145022   6.371   2.529   3.418  0.2176  0.8120  1.8515
 7869TIP3    H245023   6.237   2.462   3.439 -0.1431  0.8737 -0.0232
 7870TIP3   OH245024   0.018   1.010  15.909  0.3714  0.2428  0.1016
 7870TIP3    H145025   0.111   1.031  15.898  0.7004  0.1237  2.2537
 7870TIP3    H245026  -0.026   1.058  15.839  2.0228  0.4563 -0.8431
 7871TIP3   OH245027   5.638   2.853   5.093  0.0540 -0.4634  0.5763
 7871TIP3    H145028   5.571   2.791   5.122 -0.2806  0.2549  1.3650
 7871TIP3    H245029   5.716   2.799   5.081 -0.3199 -1.0949  0.9124
 7872TIP3   OH245030   5.858   5.978   0.929  0.0661  0.5010  0.2442
 7872TIP3    H145031   5.792   6.046   0.945 -0.5742 -0.3709  1.4793
 7872TIP3    H245032   5.808   5.900   0.906  0.8216  0.5891 -2.0085
 7873TIP3   OH245033   1.543   1.510   4.212 -0.3185 -0.0877 -0.0928
 7873TIP3    H145034   1.518   1.568   4.139 -0.3751  1.4322  1.0826
 7873TIP3    H245035   1.508   1.424   4.187 -0.3165  0.3836 -1.8573
 7874TIP3   OH245036   1.597   2.351   0.117 -0.3265  0.4951  0.6452
 7874TIP3    H145037   1.623   2.425   0.172 -0.8363  2.1336 -1.1732
 7874TIP3    H245038   1.635   2.372   0.031 -0.6749 -1.2732  0.0273
 7875TIP3   OH245039   1.759   2.262  13.057 -0.7374 -0.0850 -0.2171
 7875TIP3    H145040   1.736   2.186  13.110 -1.4706  0.6507  0.5410
 7875TIP3    H245041   1.694   2.263  12.987 -0.7753 -0.1117 -0.1826
 7876TIP3   OH245042   3.071   2.626   5.623 -0.2283 -0.3436  0.7016
 7876TIP3    H145043   3.018   2.677   5.684  0.2112  0.1044  0.7084
 7876TIP3    H245044   3.032   2.642   5.537  0.9203  1.3484  0.4651
 7877TIP3   OH245045   5.438   2.882  14.141 -0.2837 -0.3482  0.1499
 7877TIP3    H145046   5.486   2.955  14.101 -0.0164  0.6504  2.1436
 7877TIP3    H245047   5.435   2.815  14.073  0.9814  0.8533 -1.1745
 7878TIP3   OH245048   5.533   0.644   5.887 -0.5527  0.1237 -0.1120
 7878TIP3    H145049   5.442   0.658   5.861 -0.4872  0.7883 -0.0010
 7878TIP3    H245050   5.568   0.586   5.819 -0.7939  0.6302 -0.6784
 7879TIP3   OH245051   5.545   4.112  11.604 -0.1424 -0.2761  0.3163
 7879TIP3    H145052   5.470   4.075  11.649 -0.0106 -0.7051  0.1833
 7879TIP3    H245053   5.509   4.188  11.556 -0.3985 -0.2023  0.6231
 7880TIP3   OH245054   5.082   3.409   4.430  0.2352 -0.6297  0.5013
 7880TIP3    H145055   5.038   3.325   4.447 -1.2320  0.0763  0.3650
 7880TIP3    H245056   5.074   3.421   4.335 -0.8266  0.2889  0.6751
 7881TIP3   OH245057   5.761   4.581   4.991  0.0015 -0.2287  0.1538
 7881TIP3    H145058   5.689   4.586   4.929  1.5900 -0.7637 -1.8373
 7881TIP3    H245059   5.810   4.663   4.978 -0.0555 -0.0037  1.2609
 7882TIP3   OH245060   5.164   5.982  16.890 -0.0417  0.8513 -0.1718
 7882TIP3    H145061   5.243   6.034  16.905  0.7903 -0.2584 -0.5627
 7882TIP3    H245062   5.102   6.013  16.956  0.2947  2.5473 -0.5857
 7883TIP3   OH245063   5.394   3.369  15.399  0.5639  0.4891  0.4206
 7883TIP3    H145064   5.428   3.440  15.345 -0.0268  1.0966  0.8493
 7883TIP3    H245065   5.388   3.295  15.338  1.8240  0.5949  0.1292
 7884TIP3   OH245066   0.915   5.353  11.948  0.1002 -0.2403 -0.6936
 7884TIP3    H145067   0.855   5.405  12.002 -1.5070 -0.9904 -1.6934
 7884TIP3    H245068   0.869   5.270  11.935  0.7566 -0.3287 -2.6391
 7885TIP3   OH245069   6.083   1.007   4.715  0.4739  0.2791  0.3154
 7885TIP3    H145070   6.100   0.988   4.807 -2.6961 -0.1322  0.9436
 7885TIP3    H245071   6.144   1.077   4.693  0.2722  1.5089  3.2228
 7886TIP3   OH245072   0.843   6.311  11.233 -0.5464  0.1450 -0.4692
 7886TIP3    H145073   0.906   6.352  11.292 -0.1210  0.0033 -0.8156
 7886TIP3    H245074   0.889   6.234  11.199 -1.5352 -0.9636  0.6063
 7887TIP3   OH245075   0.751   1.358  15.831 -0.0045  0.1026 -0.2218
 7887TIP3    H145076   0.813   1.304  15.880 -0.3301 -0.4626 -0.4193
 7887TIP3    H245077   0.740   1.313  15.747 -1.1397 -0.1585  0.0405
 7888TIP3   OH245078   4.996   2.747   0.941 -0.0363  0.3774  0.3367
 7888TIP3    H145079   4.936   2.723   1.012 -1.0017 -0.4276 -0.7292
 7888TIP3    H245080   4.992   2.843   0.938  0.2475  0.4461  1.5474
 7889TIP3   OH245081   6.603   0.094   0.346 -0.4613 -0.0361 -0.0978
 7889TIP3    H145082   6.590   0.125   0.256 -2.3353 -0.2204  0.0719
 7889TIP3    H245083   6.627   0.172   0.395  1.6092 -0.1034 -0.9123
 7890TIP3   OH245084   5.072   4.355   3.568  0.2110  0.4382 -0.7846
 7890TIP3    H145085   5.005   4.423   3.576  2.5681  2.7091  1.3616
 7890TIP3    H245086   5.032   4.289   3.511 -4.1143  1.2366  0.9505
 7891TIP3   OH245087   0.836   6.088  12.791 -0.0593  0.1981 -0.0559
 7891TIP3    H145088   0.747   6.120  12.777 -0.4421 -0.2610  1.1370
 7891TIP3    H245089   0.886   6.164  12.820 -0.5661  0.0894  1.1837
 7892TIP3   OH245090   6.191   3.445  12.539  0.1333 -0.3522 -0.4746
 7892TIP3    H145091   6.196   3.422  12.632  0.2373 -0.8178 -0.5942
 7892TIP3    H245092   6.252   3.518  12.529 -0.3961  0.1634 -0.0373
 7893TIP3   OH245093   1.663   0.049   0.018  0.2294  0.0546  0.0387
 7893TIP3    H145094   1.717   0.025   0.094 -0.1654 -1.1648 -0.0334
 7893TIP3    H245095   1.668  -0.028  -0.039  1.9989  1.6209 -2.0768
 7894TIP3   OH245096   5.305   5.936  15.608 -0.1976 -0.4877 -0.4965
 7894TIP3    H145097   5.255   5.861  15.578  1.9522 -1.0053 -3.0596
 7894TIP3    H245098   5.276   5.949  15.699 -1.7686 -3.3816 -0.4766
 7895TIP3   OH245099   6.073   1.040  10.578 -0.9157 -0.3144  0.4827
 7895TIP3    H145100   6.001   1.066  10.521 -1.3956  1.4674  1.8228
 7895TIP3    H245101   6.086   1.115  10.636  0.0810 -1.7415  2.1984
 7896TIP3   OH245102   4.085   0.453  16.841  0.2543  0.0432 -0.1001
 7896TIP3    H145103   4.124   0.376  16.881 -1.6973 -0.0624  1.7875
 7896TIP3    H245104   4.056   0.424  16.754 -0.7265 -1.4960  0.6894
 7897TIP3   OH245105   3.669   0.625   2.295 -0.0776 -0.3862  1.0494
 7897TIP3    H145106   3.677   0.682   2.371  2.2584 -0.1561  0.6888
 7897TIP3    H245107   3.744   0.646   2.240  0.3693 -3.1336  0.4488
 7898TIP3   OH245108   1.762   3.207   5.506 -0.1380 -0.2451  0.0619
 7898TIP3    H145109   1.821   3.280   5.525 -0.9544  0.6628 -0.7643
 7898TIP3    H245110   1.773   3.148   5.580 -0.3783  1.3112  1.4156
 7899TIP3   OH245111   5.953   6.617  16.244  0.1138  0.2447  0.6240
 7899TIP3    H145112   5.933   6.708  16.264 -1.5520 -0.2318  1.2875
 7899TIP3    H245113   5.876   6.585  16.198  1.4242 -0.3616 -1.2765
 7900TIP3   OH245114   2.963   0.553   3.307 -0.4107 -0.2587 -0.3423
 7900TIP3    H145115   2.998   0.573   3.394 -0.2165 -0.8463 -0.2760
 7900TIP3    H245116   2.906   0.477   3.322  0.1856 -0.8193 -0.8314
 7901TIP3   OH245117   5.657   3.712  13.469 -0.5963 -0.3754  0.9154
 7901TIP3    H145118   5.641   3.771  13.543 -0.0759  1.4697 -0.3568
 7901TIP3    H245119   5.699   3.635  13.508  1.1611  1.2114  2.3861
 7902TIP3   OH245120   2.746   0.004  15.293  0.0085 -0.0885 -0.1113
 7902TIP3    H145121   2.695  -0.073  15.268  0.0325  0.0374 -0.5499
 7902TIP3    H245122   2.710   0.075  15.240  1.3060 -0.2022 -1.2001
 7903TIP3   OH245123   4.078   5.931  14.571  0.1969  1.0828 -0.2352
 7903TIP3    H145124   4.119   5.866  14.628 -0.5472  0.9862  0.2081
 7903TIP3    H245125   4.137   5.939  14.497  0.3399 -0.0472 -0.2626
 7904TIP3   OH245126   4.249   3.749   4.495 -0.7221  0.3338  0.2391
 7904TIP3    H145127   4.179   3.755   4.560  0.2835 -1.2098  1.5462
 7904TIP3    H245128   4.221   3.680   4.435 -1.0494  0.8465 -0.2042
 7905TIP3   OH245129   0.416   0.836   0.457 -0.1322 -0.3655  0.4041
 7905TIP3    H145130   0.403   0.786   0.538  0.4096 -0.4953  0.4121
 7905TIP3    H245131   0.508   0.825   0.436 -0.8804 -3.0150 -2.0247
 7906TIP3   OH245132   4.088   3.674  17.333  0.0057 -0.1150 -0.3967
 7906TIP3    H145133   4.012   3.704  17.283 -1.3491 -1.4629  0.7773
 7906TIP3    H245134   4.126   3.606  17.278 -1.1092 -1.1496  0.0659
 7907TIP3   OH245135   1.410   0.574  15.298  0.5246 -0.1508 -0.9340
 7907TIP3    H145136   1.438   0.482  15.300 -0.5169 -0.4807  0.5881
 7907TIP3    H245137   1.480   0.621  15.344  0.2015 -0.4690 -0.0968
 7908TIP3   OH245138   5.049   2.287   0.222 -0.4239 -0.3919 -0.1424
 7908TIP3    H145139   4.965   2.300   0.267 -0.4153  0.3535 -0.3271
 7908TIP3    H245140   5.107   2.352   0.260 -0.6119  0.7212 -1.6941
 7909TIP3   OH245141   1.511   6.177  17.039 -0.3065 -0.2973 -0.0488
 7909TIP3    H145142   1.505   6.093  17.085 -1.4038 -1.0758 -1.5471
 7909TIP3    H245143   1.431   6.183  16.988  0.3924  1.0233 -1.0556
 7910TIP3   OH245144   3.960   0.575  15.092 -0.3558 -0.8491  0.4352
 7910TIP3    H145145   4.017   0.638  15.048 -1.1218 -1.4090 -1.4606
 7910TIP3    H245146   3.903   0.628  15.148  3.0706 -0.3652  3.8699
 7911TIP3   OH245147   0.823   4.302  16.090  0.0821 -0.0968  0.1218
 7911TIP3    H145148   0.833   4.397  16.101  2.2442  0.0600 -2.1857
 7911TIP3    H245149   0.739   4.282  16.132 -0.8109  2.9481  0.0844
 7912TIP3   OH245150   4.301   2.094   1.174  1.3326  0.1695 -0.0181
 7912TIP3    H145151   4.260   2.114   1.090 -0.7603 -1.6141  0.4705
 7912TIP3    H245152   4.374   2.036   1.151  0.8426 -0.2243 -0.6178
 7913TIP3   OH245153   1.977   5.815  16.175 -0.0730  0.0935  0.1656
 7913TIP3    H145154   1.915   5.761  16.225  1.2546 -1.5037  0.1875
 7913TIP3    H245155   2.049   5.756  16.155  0.9787  1.6163 -0.7612
 7914TIP3   OH245156   2.438   3.918   1.557  0.5803  0.0859 -0.8290
 7914TIP3    H145157   2.440   3.825   1.579 -0.4933 -0.5851 -3.2394
 7914TIP3    H245158   2.408   3.921   1.466 -0.0303  2.8293 -0.6389
 7915TIP3   OH245159   1.844   2.701  16.463  0.0049  0.6715  0.3732
 7915TIP3    H145160   1.826   2.688  16.370 -0.5021  1.4326  0.3618
 7915TIP3    H245161   1.825   2.616  16.503  0.9583  0.1213 -0.3178
 7916TIP3   OH245162   2.728   2.093   2.398  0.1858  0.1572  0.0022
 7916TIP3    H145163   2.640   2.097   2.435 -0.1650 -1.1060 -0.6675
 7916TIP3    H245164   2.752   2.185   2.383 -1.0744  0.5056  0.0387
 7917TIP3   OH245165   6.496   6.253   6.228 -0.2840  0.5527  0.5214
 7917TIP3    H145166   6.425   6.253   6.292 -0.6093 -3.1726  0.3314
 7917TIP3    H245167   6.566   6.301   6.272 -0.4258 -1.9067  3.8771
 7918TIP3   OH245168   4.920   0.774  15.152  0.1792 -0.1102 -0.0575
 7918TIP3    H145169   4.834   0.796  15.189 -0.4891 -0.9401 -1.0864
 7918TIP3    H245170   4.930   0.680  15.167  2.1595  0.3702  2.5326
 7919TIP3   OH245171   4.182   6.137  15.390  0.2443  0.1234  0.1631
 7919TIP3    H145172   4.192   6.221  15.435  0.3283 -0.2354  0.8384
 7919TIP3    H245173   4.214   6.072  15.453  0.0175 -0.4317 -0.2793
 7920TIP3   OH245174   0.139   1.771   5.763 -0.1188  0.7499 -0.3581
 7920TIP3    H145175   0.103   1.779   5.675  1.4739  1.3994 -0.9890
 7920TIP3    H245176   0.218   1.824   5.762 -0.1476  0.9225  1.5330
 7921TIP3   OH245177   2.596   2.764   2.856  0.3039 -0.1410 -0.6108
 7921TIP3    H145178   2.544   2.838   2.888  0.0462 -0.5678 -0.0154
 7921TIP3    H245179   2.653   2.741   2.929  0.0060 -0.8661 -0.5915
 7922TIP3   OH245180   2.858   0.622   0.168  0.0538  0.1195  0.1498
 7922TIP3    H145181   2.919   0.635   0.095  0.1091  0.6326  0.2881
 7922TIP3    H245182   2.910   0.639   0.246 -0.0068 -0.4294  0.3133
 7923TIP3   OH245183   3.047   5.203   4.605 -0.3611 -0.6097  0.5909
 7923TIP3    H145184   2.977   5.138   4.612  0.1620 -1.3121 -0.4975
 7923TIP3    H245185   3.126   5.153   4.586  0.0936  0.3233 -0.0761
 7924TIP3   OH245186   1.940   2.607   0.245  0.2767 -0.4537  0.1255
 7924TIP3    H145187   2.034   2.625   0.254  0.1005  0.1125  0.9146
 7924TIP3    H245188   1.936   2.514   0.221  0.9842 -1.1611  2.4422
 7925TIP3   OH245189   4.109   6.299  12.871 -0.3705  0.0380 -0.0035
 7925TIP3    H145190   4.033   6.290  12.929  0.9135  0.0971  1.7674
 7925TIP3    H245191   4.071   6.323  12.786 -2.5376 -2.9419 -0.0359
 7926TIP3   OH245192   1.037   3.328  13.004  0.4668 -0.3717  0.2640
 7926TIP3    H145193   0.997   3.391  13.064  0.9495  1.0861 -0.9108
 7926TIP3    H245194   1.105   3.284  13.056 -0.0565 -0.1304  1.1638
 7927TIP3   OH245195   2.192   2.804  16.964 -0.0759 -0.3298 -0.0574
 7927TIP3    H145196   2.281   2.831  16.940 -0.1092 -0.0084  0.1737
 7927TIP3    H245197   2.204   2.721  17.010  0.4055  1.0510  2.4953
 7928TIP3   OH245198   0.132   6.414   1.701 -0.7284  0.0507  0.6708
 7928TIP3    H145199   0.131   6.509   1.694 -1.8410  0.0416  0.4406
 7928TIP3    H245200   0.126   6.397   1.795  1.9720  0.1745  0.9444
 7929TIP3   OH245201   3.429   2.983   1.740  0.1607 -0.5776  0.1589
 7929TIP3    H145202   3.515   2.944   1.757  0.7434 -0.1415 -1.5951
 7929TIP3    H245203   3.439   3.075   1.762  0.0553 -0.5803  0.2209
 7930TIP3   OH245204   3.491   1.423   2.992 -0.8156  0.0123 -0.2198
 7930TIP3    H145205   3.497   1.375   3.074 -1.5549 -0.7491 -0.5992
 7930TIP3    H245206   3.579   1.417   2.954  0.0389  1.9020  1.3271
 7931TIP3   OH245207   3.480   0.126   3.944 -0.1914  0.3069  0.8576
 7931TIP3    H145208   3.545   0.062   3.973 -0.5628 -0.6904 -0.4053
 7931TIP3    H245209   3.520   0.211   3.963  0.7501 -0.2865  1.6384
 7932TIP3   OH245210   4.521   0.209  16.186 -0.0723  0.6573  0.3450
 7932TIP3    H145211   4.598   0.225  16.240 -0.0393 -0.7977  0.7780
 7932TIP3    H245212   4.447   0.218  16.247 -0.0093 -1.4920  0.8322
 7933TIP3   OH245213   4.582   6.022   2.504 -0.1656 -0.4638 -0.3785
 7933TIP3    H145214   4.639   6.005   2.579  0.6113 -1.2058 -1.1134
 7933TIP3    H245215   4.571   5.936   2.462 -0.5169 -0.0530 -1.1530
 7934TIP3   OH245216   4.269   2.999  11.215  0.0095 -0.3891 -0.1119
 7934TIP3    H145217   4.260   2.919  11.163  1.2722 -0.4758 -0.2293
 7934TIP3    H245218   4.233   2.976  11.301  1.5388 -1.5348  0.2729
 7935TIP3   OH245219   3.590   5.336  16.078  0.7880 -0.2684 -0.3455
 7935TIP3    H145220   3.607   5.393  16.152  0.1206 -0.8616  0.2804
 7935TIP3    H245221   3.516   5.281  16.106  0.0078  0.0150 -1.7190
 7936TIP3   OH245222   2.314   1.962   1.212  0.6121 -1.0398 -0.3790
 7936TIP3    H145223   2.316   2.052   1.180 -0.5196 -1.4413 -1.6710
 7936TIP3    H245224   2.230   1.954   1.257  1.2430 -1.1236  0.8365
 7937TIP3   OH245225   3.809   5.372   2.061  0.3066 -0.0141 -0.1182
 7937TIP3    H145226   3.765   5.444   2.106  2.1598  0.3880  1.1711
 7937TIP3    H245227   3.897   5.405   2.044  0.7134 -1.4319 -0.9110
 7938TIP3   OH245228   6.739   0.546  17.144  0.3047 -0.1787 -0.4977
 7938TIP3    H145229   6.717   0.590  17.062  2.1499  1.5647 -0.1244
 7938TIP3    H245230   6.746   0.616  17.209  2.7130 -1.0146  0.2730
 7939TIP3   OH245231   0.360   3.250  10.533  0.3263  0.4366 -0.0884
 7939TIP3    H145232   0.348   3.284  10.444 -0.7931 -1.7368 -0.8197
 7939TIP3    H245233   0.317   3.315  10.589  1.6248  2.1903 -1.0117
 7940TIP3   OH245234   1.015   2.496  11.285  0.2317  0.0844  0.0563
 7940TIP3    H145235   1.047   2.412  11.319 -2.2897 -0.3212  1.6505
 7940TIP3    H245236   0.928   2.477  11.251 -0.4299  2.0450  0.4983
 7941TIP3   OH245237   3.243   3.721  17.283  0.0216  0.0073  0.5203
 7941TIP3    H145238   3.273   3.649  17.338 -1.4629  0.6329  2.2368
 7941TIP3    H245239   3.148   3.712  17.282 -0.2659  2.4026  1.4746
 7942TIP3   OH245240   4.363   4.395  15.550  0.8185  0.6153 -0.3116
 7942TIP3    H145241   4.291   4.440  15.594  0.8897  1.8230 -1.3662
 7942TIP3    H245242   4.348   4.302  15.567 -0.2862  0.9368  0.5199
 7943TIP3   OH245243   3.264   3.169  14.961 -0.1300  0.0728 -0.3409
 7943TIP3    H145244   3.175   3.140  14.980  0.3799 -0.8058  0.8264
 7943TIP3    H245245   3.255   3.263  14.945 -1.4904 -0.2721 -1.9037
 7944TIP3   OH245246   2.979   2.884   4.016 -0.0205  0.1788  0.2511
 7944TIP3    H145247   2.917   2.818   4.048 -0.1472  0.0546 -0.2362
 7944TIP3    H245248   3.064   2.853   4.047 -0.1830  0.2540  0.7699
 7945TIP3   OH245249   0.666   3.892   4.210  0.3001  0.3508  0.4298
 7945TIP3    H145250   0.601   3.958   4.233  0.9754  0.9388  0.6754
 7945TIP3    H245251   0.675   3.839   4.290  1.7541  1.6497  1.1690
 7946TIP3   OH245252   2.278   0.463  14.507  0.1457  0.1614  0.4706
 7946TIP3    H145253   2.278   0.510  14.590 -1.3252  2.2162 -0.5947
 7946TIP3    H245254   2.319   0.523  14.445  1.5267 -1.4545 -0.2643
 7947TIP3   OH245255   1.896   2.068   6.025  0.9336  0.3622 -0.4779
 7947TIP3    H145256   1.802   2.048   6.029  0.8237  0.3273 -2.2958
 7947TIP3    H245257   1.899   2.164   6.025  0.8498  0.3689 -0.8696
 7948TIP3   OH245258   2.573   4.276  14.876  0.1607 -0.3259  0.2590
 7948TIP3    H145259   2.490   4.230  14.893  0.2743 -0.4843  0.3909
 7948TIP3    H245260   2.622   4.268  14.958 -0.0257  0.4844  0.4595
 7949TIP3   OH245261   4.667   4.288   0.575  0.2150  0.3698  0.1257
 7949TIP3    H145262   4.576   4.289   0.544  0.0895  1.8799  0.4837
 7949TIP3    H245263   4.718   4.263   0.499 -0.5488 -1.3861  0.1298
 7950TIP3   OH245264   0.271   6.068   3.149 -0.1224  0.3689 -0.0365
 7950TIP3    H145265   0.194   6.056   3.204  0.0080  0.3871  0.1491
 7950TIP3    H245266   0.236   6.076   3.060 -0.1458 -3.5484 -0.5495
 7951TIP3   OH245267   2.569   2.998  16.026 -0.6201  0.1869 -0.1138
 7951TIP3    H145268   2.651   2.978  16.071 -1.4391  0.2390  1.4458
 7951TIP3    H245269   2.534   2.912  16.000 -1.4188 -0.0923  1.7155
 7952TIP3   OH245270   1.270   6.444   1.512 -0.0568  0.1527 -0.1722
 7952TIP3    H145271   1.189   6.414   1.553 -1.2550  2.6600 -0.5264
 7952TIP3    H245272   1.313   6.364   1.482 -2.0644 -1.2983  0.6104
 7953TIP3   OH245273   2.089   1.837  16.611  0.3402 -0.3001  0.0785
 7953TIP3    H145274   2.091   1.746  16.582 -0.9958 -0.6737  1.0542
 7953TIP3    H245275   2.112   1.833  16.704 -0.2879  0.2772  0.2697
 7954TIP3   OH245276   4.091   4.271  16.290 -0.0895 -0.3605 -0.1291
 7954TIP3    H145277   4.077   4.362  16.314 -1.2523 -0.3410 -0.8085
 7954TIP3    H245278   4.138   4.274  16.206  2.7578 -0.4331  1.3125
 7955TIP3   OH245279   1.026   1.548   3.857 -0.2938  0.0366 -0.3192
 7955TIP3    H145280   0.983   1.610   3.799  3.3283  1.7970 -1.4431
 7955TIP3    H245281   0.976   1.467   3.848 -2.6040  1.5591 -2.2601
 7956TIP3   OH245282   2.781   6.588   2.692 -0.2170  0.0272  0.2857
 7956TIP3    H145283   2.839   6.660   2.717  2.7700 -1.9742 -0.2545
 7956TIP3    H245284   2.766   6.600   2.598  0.3227 -0.0352  0.1860
 7957TIP3   OH245285   1.689   5.126   0.912 -0.3079 -1.2554 -0.2155
 7957TIP3    H145286   1.758   5.169   0.963 -0.1778  0.7116 -1.8934
 7957TIP3    H245287   1.609   5.140   0.963 -0.1020  0.1892 -0.2475
 7958TIP3   OH245288   4.732   1.285   1.374  0.2052  0.3028  0.4067
 7958TIP3    H145289   4.757   1.266   1.284 -1.7868 -0.7183  0.0294
 7958TIP3    H245290   4.724   1.200   1.416 -1.1069  0.6487  0.9034
 7959TIP3   OH245291   4.676   6.430   3.334  0.0284 -0.1739 -1.1421
 7959TIP3    H145292   4.757   6.381   3.348  0.0251  0.2568  0.7019
 7959TIP3    H245293   4.701   6.501   3.276  0.2436 -1.7379 -3.0944
 7960TIP3   OH245294   4.503   1.553   4.209 -0.1588 -0.1633 -0.5400
 7960TIP3    H145295   4.420   1.521   4.246  0.2804 -0.4652  0.2169
 7960TIP3    H245296   4.487   1.560   4.115 -0.9079 -0.6441 -0.4527
 7961TIP3   OH245297   5.914   1.146  12.002 -0.4866  0.1224  0.4616
 7961TIP3    H145298   6.003   1.121  12.029  0.0159  2.7910  1.4996
 7961TIP3    H245299   5.926   1.181  11.914 -0.3568  1.2590  0.9259
 7962TIP3   OH245300   5.557   0.702   4.544 -0.7576  0.1833 -0.1091
 7962TIP3    H145301   5.540   0.738   4.457  0.1800  0.1850 -0.2937
 7962TIP3    H245302   5.651   0.712   4.557 -1.2311  3.1490  2.2060
 7963TIP3   OH245303   6.414   2.234  12.059  0.3486 -0.2197  0.0783
 7963TIP3    H145304   6.360   2.156  12.074 -1.4526  0.8332 -0.5029
 7963TIP3    H245305   6.450   2.255  12.145 -1.9511  0.2196  1.0210
 7964TIP3   OH245306   4.369   5.487   4.721  0.1088  0.0104  0.1981
 7964TIP3    H145307   4.310   5.550   4.677 -0.3114 -1.0343 -0.7834
 7964TIP3    H245308   4.449   5.490   4.669  0.1402 -0.1428  0.2388
 7965TIP3   OH245309   4.206   4.045   1.831  0.2300  0.6680  0.0815
 7965TIP3    H145310   4.263   3.974   1.802 -0.5485  0.9370 -2.2562
 7965TIP3    H245311   4.200   4.103   1.756  0.7939  3.2424  1.9081
 7966TIP3   OH245312   2.305   1.618  17.387  0.3953 -0.0333 -0.5507
 7966TIP3    H145313   2.383   1.658  17.426 -0.3077 -1.7503  3.0408
 7966TIP3    H245314   2.339   1.554  17.325  1.8955 -0.4720  0.6557
 7967TIP3   OH245315   5.709   4.126  16.223 -0.1648 -0.5110 -0.1421
 7967TIP3    H145316   5.774   4.194  16.206  0.5080 -1.4255 -1.4723
 7967TIP3    H245317   5.642   4.168  16.277  1.5152  0.4772  1.2866
 7968TIP3   OH245318   0.267   0.157   0.616  0.1607 -0.3669  0.1330
 7968TIP3    H145319   0.188   0.114   0.581 -0.2919 -0.1904  0.9107
 7968TIP3    H245320   0.339   0.100   0.589  0.0283  0.5295 -2.3775
 7969TIP3   OH245321   3.270   0.846   2.643  0.0618  0.0510 -0.4126
 7969TIP3    H145322   3.184   0.822   2.678  0.2619  1.4058  1.1413
 7969TIP3    H245323   3.265   0.941   2.632  0.6750 -0.0885 -2.3656
 7970TIP3   OH245324   2.011   2.190  15.033 -0.0727  0.2268 -0.0955
 7970TIP3    H145325   1.921   2.204  15.005 -0.7559 -0.9446  1.3739
 7970TIP3    H245326   2.010   2.206  15.127  1.0303 -0.7205  0.1018
 7971TIP3   OH245327   3.914   3.784  16.684 -0.2517  0.3188 -0.0248
 7971TIP3    H145328   3.925   3.879  16.677 -1.3663  0.5539  1.0946
 7971TIP3    H245329   3.830   3.767  16.642 -2.0261  0.4214  3.1550
 7972TIP3   OH245330   2.912   2.108  14.872  0.4826 -0.4500 -0.5119
 7972TIP3    H145331   2.981   2.141  14.929  0.8993  1.1376 -1.8655
 7972TIP3    H245332   2.932   2.015  14.861  0.6548 -0.6985  1.4746
 7973TIP3   OH245333   1.184   5.181   0.413  0.5140  0.3106 -0.3545
 7973TIP3    H145334   1.218   5.094   0.392 -0.6128  0.0253 -1.0743
 7973TIP3    H245335   1.089   5.170   0.412  0.3583  1.6025 -0.6945
 7974TIP3   OH245336   3.126   1.923  12.860  0.0324  0.2910  0.7182
 7974TIP3    H145337   3.207   1.956  12.900  1.4103 -0.4340 -1.2842
 7974TIP3    H245338   3.081   1.878  12.931  0.5268  2.1422  2.3041
 7975TIP3   OH245339   5.220   6.270   1.011 -0.0888 -0.6712  0.1591
 7975TIP3    H145340   5.293   6.283   0.951 -2.4371 -1.1199 -3.0950
 7975TIP3    H245341   5.200   6.358   1.044  1.7778 -0.5370  1.0780
 7976TIP3   OH245342   5.033   2.161  16.165 -0.1782  0.5700  0.0783
 7976TIP3    H145343   4.956   2.217  16.178 -2.1887 -1.5431 -1.6815
 7976TIP3    H245344   5.053   2.126  16.252 -3.2574 -1.1835  0.2249
 7977TIP3   OH245345   1.074   6.047   0.561 -0.2909  0.0912 -0.0771
 7977TIP3    H145346   1.127   5.976   0.526 -0.7007 -0.0221 -0.4797
 7977TIP3    H245347   1.120   6.075   0.641 -1.2620 -2.1170  1.3565
 7978TIP3   OH245348   2.193   0.055  13.624 -0.0869 -0.4306 -0.0198
 7978TIP3    H145349   2.264  -0.010  13.628  0.6095  0.3562  2.4866
 7978TIP3    H245350   2.233   0.131  13.581  0.7807  0.1395  1.7019
 7979TIP3   OH245351   3.193   0.209  17.322  0.1159  0.7920 -0.3227
 7979TIP3    H145352   3.168   0.198  17.231  2.6993  1.3246 -1.1934
 7979TIP3    H245353   3.207   0.119  17.354 -1.6073  0.5576 -0.1436
 7980TIP3   OH245354   2.805   5.316   1.738 -0.0897  0.0487  0.4074
 7980TIP3    H145355   2.792   5.264   1.817 -0.9078  0.0119  0.2534
 7980TIP3    H245356   2.899   5.309   1.719 -0.2218 -1.5828  0.2421
 7981TIP3   OH245357   5.838   4.841  14.261 -0.1447  0.2597 -0.5704
 7981TIP3    H145358   5.874   4.764  14.305  0.1223  0.6090 -0.1664
 7981TIP3    H245359   5.744   4.826  14.260 -0.4259  1.2659  2.1870
 7982TIP3   OH245360   6.008   4.954   2.187 -0.3781 -0.2107 -0.2501
 7982TIP3    H145361   6.006   4.901   2.266 -0.3473 -2.1470 -1.4692
 7982TIP3    H245362   6.021   4.891   2.116 -3.1196  1.0739 -2.0799
 7983TIP3   OH245363   5.120   1.773   5.830 -0.0725 -0.7534 -0.0923
 7983TIP3    H145364   5.109   1.678   5.836 -1.2431 -0.5941  0.6488
 7983TIP3    H245365   5.046   1.804   5.778  0.4309 -0.2609 -0.5359
 7984TIP3   OH245366   5.300   0.758   0.650 -0.1934  0.2147 -0.2994
 7984TIP3    H145367   5.249   0.752   0.731  1.2165  1.4058  0.7386
 7984TIP3    H245368   5.388   0.732   0.676  0.0989 -0.2603 -1.6917
 7985TIP3   OH245369   3.941   0.195   0.269  0.5556  0.2282 -0.1434
 7985TIP3    H145370   3.851   0.165   0.283  1.1961 -1.4006  0.7437
 7985TIP3    H245371   3.938   0.241   0.185 -1.0641  0.0408 -0.2113
 7986TIP3   OH245372   1.738   1.370   4.435  0.2680  0.3021  0.2715
 7986TIP3    H145373   1.692   1.427   4.373 -0.3693 -1.7332 -1.2487
 7986TIP3    H245374   1.670   1.315   4.472  1.2515 -2.3666 -1.5716
 7987TIP3   OH245375   5.034   4.984  11.012 -0.0200 -0.2576  0.1012
 7987TIP3    H145376   4.966   4.922  10.988  0.7078 -1.2049  0.4462
 7987TIP3    H245377   4.993   5.070  11.001 -0.7734 -0.7620 -1.1689
 7988TIP3   OH245378   1.375   1.161  13.821 -0.7159  0.1604 -0.5523
 7988TIP3    H145379   1.295   1.214  13.822 -0.3110  0.7808 -0.1971
 7988TIP3    H245380   1.396   1.148  13.913 -0.0959  0.4858 -0.6432
 7989TIP3   OH245381   5.954   5.100   1.448  0.5707 -0.0343  0.0709
 7989TIP3    H145382   5.872   5.148   1.441  0.9887  0.8191  0.8540
 7989TIP3    H245383   5.990   5.099   1.360 -0.9468 -1.6509 -0.5860
 7990TIP3   OH245384   1.243   6.058  11.498 -0.0490 -0.1292  0.2416
 7990TIP3    H145385   1.159   6.028  11.532  0.4272  0.7248  2.3425
 7990TIP3    H245386   1.222   6.101  11.415 -1.5867 -0.4585  0.4382
 7991TIP3   OH245387   5.354   5.828   1.249  0.0875 -0.2545 -0.0496
 7991TIP3    H145388   5.286   5.814   1.314  0.0615  0.7739  0.1679
 7991TIP3    H245389   5.327   5.908   1.203  2.4311  1.7580  1.8063
 7992TIP3   OH245390   3.641   2.388  15.238 -0.7661  0.2423  0.3949
 7992TIP3    H145391   3.644   2.465  15.181 -0.5839  0.0718  0.1732
 7992TIP3    H245392   3.661   2.423  15.325  1.3073  0.1644  0.0051
 7993TIP3   OH245393   5.375   3.163  17.177  0.1052 -0.1710 -0.2408
 7993TIP3    H145394   5.434   3.091  17.155  0.7630  0.2148  0.2188
 7993TIP3    H245395   5.289   3.121  17.187  0.4998 -0.9134  0.1292
 7994TIP3   OH245396   1.166   1.050   2.439  0.5468 -0.4001 -0.0878
 7994TIP3    H145397   1.241   1.086   2.487  0.4114 -3.7226  3.0385
 7994TIP3    H245398   1.095   1.112   2.457  2.0652  2.1063 -2.0199
 7995TIP3   OH245399   2.516   2.247  16.847  0.2212 -0.1053  0.2116
 7995TIP3    H145400   2.610   2.261  16.859 -0.0774  2.0220  0.5278
 7995TIP3    H245401   2.503   2.153  16.861  2.3571 -0.5297 -0.4018
 7996TIP3   OH245402   2.045   4.890  13.176  0.3490  0.0643 -0.0126
 7996TIP3    H145403   2.087   4.835  13.110  0.2475  1.9418 -1.7327
 7996TIP3    H245404   1.973   4.837  13.209  1.4774 -1.5942 -0.0802
 7997TIP3   OH245405   2.993   4.410  16.825  0.2703  0.0881 -0.0905
 7997TIP3    H145406   2.925   4.445  16.882 -0.0960 -0.0187 -0.4577
 7997TIP3    H245407   3.023   4.486  16.775  0.0918  0.0432 -0.2648
 7998TIP3   OH245408   0.217   1.461   2.603  0.2244  0.2870 -0.1642
 7998TIP3    H145409   0.214   1.530   2.536  2.0636  0.9478  0.3730
 7998TIP3    H245410   0.236   1.381   2.554  0.1177  0.5112 -0.5781
 7999TIP3   OH245411   4.416   3.248  16.591  0.1430  0.6240 -0.2005
 7999TIP3    H145412   4.496   3.196  16.583  0.1747  0.8377 -1.6914
 7999TIP3    H245413   4.390   3.240  16.683 -0.0695 -2.3472 -0.4122
 8000TIP3   OH245414   2.999   6.624   0.077 -0.4789 -0.0272  0.4795
 8000TIP3    H145415   3.048   6.618  -0.005 -0.6057 -0.2612  0.4197
 8000TIP3    H245416   2.907   6.627   0.050 -0.4917  0.6209  0.5806
 8001TIP3   OH245417   5.959   4.757   4.188  0.1636 -0.4175 -0.6306
 8001TIP3    H145418   5.869   4.728   4.205  0.1390  0.5288  1.0684
 8001TIP3    H245419   6.008   4.725   4.264  0.5899  1.8465  0.1252
 8002TIP3   OH245420   0.221   2.503  11.816 -0.1020 -0.2362  0.0188
 8002TIP3    H145421   0.284   2.544  11.877  1.7081 -3.6163  0.6430
 8002TIP3    H245422   0.143   2.487  11.870 -0.3985  1.2219  0.0662
 8003TIP3   OH245423   5.734   5.845  14.959 -0.6081  0.0346  0.0388
 8003TIP3    H145424   5.769   5.774  15.015  0.2867  0.3712 -0.0701
 8003TIP3    H245425   5.701   5.909  15.021  0.6633  0.5487  0.2264
 8004TIP3   OH245426   3.081   3.224  14.663  0.2351  0.3852  0.5163
 8004TIP3    H145427   3.011   3.246  14.724 -0.4403  0.7360 -0.3597
 8004TIP3    H245428   3.070   3.285  14.590  0.1240 -0.9473 -0.6299
 8005TIP3   OH245429   3.671   4.032   1.046 -0.0486  0.4034  0.0193
 8005TIP3    H145430   3.638   4.112   1.086  0.8106  0.5142  0.5270
 8005TIP3    H245431   3.721   4.062   0.970  0.0051  0.3281  0.0250
 8006TIP3   OH245432   6.171   3.717   0.733 -0.0351 -0.4185 -0.0106
 8006TIP3    H145433   6.102   3.780   0.710  0.2403 -0.0384  0.1897
 8006TIP3    H245434   6.228   3.765   0.793 -0.6653 -1.3526  1.3901
 8007TIP3   OH245435   3.400   3.197   6.018 -0.4773 -0.0068  0.1657
 8007TIP3    H145436   3.417   3.190   6.112  0.0354 -0.3364  0.0532
 8007TIP3    H245437   3.318   3.150   6.005  0.2402 -1.3285  0.2258
 8008TIP3   OH245438   6.361   6.487   0.972 -0.6883 -0.2581  0.1383
 8008TIP3    H145439   6.358   6.392   0.981  1.3950 -0.3479  0.4935
 8008TIP3    H245440   6.286   6.519   1.021 -1.2607 -1.7046  0.2355
 8009TIP3   OH245441   5.349   3.666  14.082 -0.0534  0.6095  0.2855
 8009TIP3    H145442   5.285   3.605  14.046  1.7093 -0.8685 -0.5165
 8009TIP3    H245443   5.337   3.660  14.177 -0.3010 -0.6214  0.2012
 8010TIP3   OH245444   4.016   4.831  11.403 -0.2268  0.5899  0.2925
 8010TIP3    H145445   3.959   4.772  11.354 -1.8959  1.9941  0.4406
 8010TIP3    H245446   3.992   4.919  11.373  0.7702  1.3162  1.4968
 8011TIP3   OH245447   1.267   0.856   2.655  0.2742 -0.1666  0.5936
 8011TIP3    H145448   1.316   0.840   2.736  0.3231 -0.4495  0.5120
 8011TIP3    H245449   1.205   0.925   2.677  0.5445  0.0207  0.7673
 8012TIP3   OH245450   4.347   5.007   2.602  0.2449  0.3057  0.3003
 8012TIP3    H145451   4.373   5.004   2.510 -0.1847  0.0764  0.1830
 8012TIP3    H245452   4.265   5.058   2.602  0.4867  0.7013  0.6141
 8013TIP3   OH245453   6.674   2.100   0.180 -0.0246  0.6146  0.7404
 8013TIP3    H145454   6.666   2.142   0.095 -0.1462  0.6243  0.7573
 8013TIP3    H245455   6.634   2.014   0.169  0.7750  0.2555  0.5301
 8014TIP3   OH245456   6.405   3.109  15.043 -0.0642 -0.0466 -0.4814
 8014TIP3    H145457   6.313   3.125  15.025 -0.5910 -1.2101  0.9371
 8014TIP3    H245458   6.409   3.015  15.062  1.0613  0.3155  1.2860
 8015TIP3   OH245459   0.207   5.713  14.267 -0.5145 -0.7730 -0.1981
 8015TIP3    H145460   0.135   5.747  14.213 -1.9627  2.5577  3.3467
 8015TIP3    H245461   0.279   5.775  14.253  0.2911 -1.7935 -0.6997
 8016TIP3   OH245462   6.535   0.540   3.810 -0.0262  0.1602 -0.1822
 8016TIP3    H145463   6.440   0.550   3.801 -0.0127  0.1589 -0.3300
 8016TIP3    H245464   6.559   0.479   3.740 -0.1660 -1.2297  0.9456
 8017TIP3   OH245465   0.330   5.366  15.567  0.2262  0.2436 -0.5974
 8017TIP3    H145466   0.287   5.438  15.612 -1.0763  0.1320 -1.6155
 8017TIP3    H245467   0.398   5.408  15.513 -0.2584  0.6692 -0.8794
 8018TIP3   OH245468   3.511   4.149  13.075  0.4347  0.0867  0.1088
 8018TIP3    H145469   3.596   4.193  13.087  1.2092 -1.0012 -1.0608
 8018TIP3    H245470   3.450   4.200  13.128  1.0494  3.1866 -1.8786
 8019TIP3   OH245471   3.358   2.317   2.568 -0.1706  0.4567 -0.2900
 8019TIP3    H145472   3.321   2.270   2.643  0.5551 -1.7628 -1.2415
 8019TIP3    H245473   3.283   2.342   2.515 -0.5219 -0.9483 -0.4878
 8020TIP3   OH245474   5.040   2.003  15.428  0.2066  0.5945 -0.0451
 8020TIP3    H145475   5.052   2.007  15.333 -0.5885  2.4531 -0.1163
 8020TIP3    H245476   5.069   2.089  15.459 -0.5988  0.4161  1.2682
 8021TIP3   OH245477   0.940   0.783   3.171 -0.7889  0.4873  0.4039
 8021TIP3    H145478   0.955   0.877   3.160  0.2604  0.1253 -1.8241
 8021TIP3    H245479   0.968   0.745   3.088  0.1604 -1.9488  1.7436
 8022TIP3   OH245480   0.651   0.306   5.813  0.2929 -0.5190  0.2037
 8022TIP3    H145481   0.695   0.228   5.846  0.2562 -1.0673 -1.0064
 8022TIP3    H245482   0.601   0.339   5.888  1.8034 -0.5540  1.2707
 8023TIP3   OH245483   5.038   1.360   2.210  0.2609  0.1227 -0.3049
 8023TIP3    H145484   5.033   1.267   2.186  0.1419  0.4446 -1.5780
 8023TIP3    H245485   5.128   1.385   2.190  0.9433 -0.2106  2.0276
 8024TIP3   OH245486   4.607   4.829   5.478  0.2696  0.2009 -0.3974
 8024TIP3    H145487   4.693   4.862   5.452  0.9494 -0.6492  0.6878
 8024TIP3    H245488   4.594   4.751   5.424  0.4624 -0.0264 -0.1158
 8025TIP3   OH245489   0.958   4.800  14.384  0.0216 -0.3498 -0.0775
 8025TIP3    H145490   0.899   4.785  14.457 -0.2057 -0.8629 -0.3611
 8025TIP3    H245491   0.912   4.864  14.329  0.5633  0.6932  0.6390
 8026TIP3   OH245492   0.765   2.573   1.345 -0.9054  0.5420  0.0156
 8026TIP3    H145493   0.678   2.582   1.383 -1.3810  1.6413 -1.2391
 8026TIP3    H245494   0.816   2.644   1.384 -0.9530  0.7014 -0.2064
 8027TIP3   OH245495   2.352   2.159  12.961 -0.4402 -0.1262 -0.0240
 8027TIP3    H145496   2.314   2.233  13.009  2.1263  0.9124  0.5748
 8027TIP3    H245497   2.371   2.094  13.029 -0.6270 -0.4223 -0.2508
 8028TIP3   OH245498   3.889   3.722  17.151  0.0868  0.1212  0.3374
 8028TIP3    H145499   3.867   3.649  17.093 -2.0001 -0.2551  1.5043
 8028TIP3    H245500   3.839   3.796  17.117 -0.2918  0.1763  1.0020
 8029TIP3   OH245501   0.978   3.043  13.610  0.3506 -0.4351  0.1823
 8029TIP3    H145502   1.040   3.096  13.561  1.2899  0.8076  2.5676
 8029TIP3    H245503   0.911   3.105  13.639 -0.1683 -1.1328  0.5125
 8030TIP3   OH245504   2.649   1.834   6.386  0.7142 -0.1730 -0.2567
 8030TIP3    H145505   2.663   1.916   6.433  0.9707 -1.4806  2.1038
 8030TIP3    H245506   2.680   1.766   6.446 -2.8187 -2.2797 -0.5159
 8031TIP3   OH245507   4.761   6.639  11.687 -0.7049 -0.1852  0.5010
 8031TIP3    H145508   4.788   6.576  11.754  0.1156 -0.4242 -0.0385
 8031TIP3    H245509   4.816   6.618  11.612 -0.3639  1.2295  0.3383
 8032TIP3   OH245510   3.647   2.718   4.058 -0.3021 -0.2250 -0.4651
 8032TIP3    H145511   3.677   2.765   4.135 -1.2785  3.1429 -1.9545
 8032TIP3    H245512   3.728   2.698   4.009  0.1839 -0.7952  0.5429
 8033TIP3   OH245513   3.489   4.609   2.068  0.2672  0.6363  0.1814
 8033TIP3    H145514   3.419   4.583   2.008  0.6254 -1.0028  0.4480
 8033TIP3    H245515   3.566   4.622   2.012 -0.0086  1.5786  0.0001
 8034TIP3   OH245516   0.686   1.008   2.941 -0.2753 -0.6357  0.3040
 8034TIP3    H145517   0.591   1.007   2.930 -0.4374  0.5880  1.3806
 8034TIP3    H245518   0.721   0.988   2.854 -1.5018 -0.5283 -0.2273
 8035TIP3   OH245519   6.448   4.270  16.158  0.4572  0.3422  0.0514
 8035TIP3    H145520   6.388   4.211  16.113  1.0263 -1.1789  1.1885
 8035TIP3    H245521   6.431   4.356  16.120 -0.2462 -0.5742 -1.8285
 8036TIP3   OH245522   3.559   1.575   5.332  0.5902 -0.0991  0.1746
 8036TIP3    H145523   3.494   1.609   5.394 -0.3188 -0.2841 -0.6608
 8036TIP3    H245524   3.594   1.497   5.374  0.9917  0.5414  1.0662
 8037TIP3   OH245525   2.451   4.034  11.497  0.3359  0.5315  0.0497
 8037TIP3    H145526   2.396   4.108  11.525 -0.4882 -0.2846  0.6297
 8037TIP3    H245527   2.493   4.065  11.416 -2.3258  0.5706 -1.4155
 8038TIP3   OH245528   5.906   2.007   0.213 -0.3566  0.1877  0.0392
 8038TIP3    H145529   5.844   1.935   0.198  0.8251 -0.9808  0.4682
 8038TIP3    H245530   5.953   1.980   0.293  1.7856  0.2209 -1.1495
 8039TIP3   OH245531   3.885   2.708   2.161 -0.3173  0.1548 -0.3672
 8039TIP3    H145532   3.949   2.709   2.232  0.0118  0.1131 -0.6625
 8039TIP3    H245533   3.850   2.797   2.159 -0.5903  0.0610  0.0830
 8040TIP3   OH245534   4.015   4.713   5.663 -1.0464 -0.3153  0.0756
 8040TIP3    H145535   4.021   4.654   5.589 -1.5901 -0.4091  0.1032
 8040TIP3    H245536   4.069   4.672   5.731  0.1613  0.2042 -0.5395
 8041TIP3   OH245537   0.536   3.508   4.470  0.4998  0.2558 -0.0375
 8041TIP3    H145538   0.464   3.557   4.509 -0.1858 -0.0162 -0.9222
 8041TIP3    H245539   0.493   3.440   4.418  1.3585  0.7960 -1.5073
 8042TIP3   OH245540   4.843   6.416   4.526  0.1003  0.5393 -0.0979
 8042TIP3    H145541   4.770   6.432   4.586  0.6430  0.6620  0.5464
 8042TIP3    H245542   4.852   6.321   4.524 -0.2970  0.5052 -0.4582
 8043TIP3   OH245543   0.875   1.717  15.483 -0.0995 -0.4666  0.2281
 8043TIP3    H145544   0.918   1.661  15.419  0.1267 -0.4832  0.3902
 8043TIP3    H245545   0.796   1.670  15.508 -0.6186 -0.0789 -0.6447
 8044TIP3   OH245546   4.063   5.793  12.696 -0.1513 -0.3672 -0.6576
 8044TIP3    H145547   4.079   5.725  12.760 -1.6881 -1.6954 -1.6104
 8044TIP3    H245548   4.087   5.874  12.740  1.5300 -1.4836  0.5694
 8045TIP3   OH245549   1.255   0.847   3.108 -0.1693 -0.4454  0.0194
 8045TIP3    H145550   1.279   0.803   3.027  1.2543  1.7140 -0.8252
 8045TIP3    H245551   1.161   0.864   3.100  0.1397  0.6507 -1.7009
 8046TIP3   OH245552   5.606   6.246  17.249  0.0193  0.2764 -0.2423
 8046TIP3    H145553   5.689   6.208  17.281  1.0575  1.7926 -1.0347
 8046TIP3    H245554   5.563   6.277  17.329  0.3587 -0.2327  0.1521
 8047TIP3   OH245555   0.960   1.646   0.959  0.0898  0.0429 -0.6810
 8047TIP3    H145556   0.955   1.681   0.870  0.5984  0.6785 -0.4632
 8047TIP3    H245557   0.995   1.717   1.011  0.5931 -0.6033 -0.1196
 8048TIP3   OH245558   1.721   3.980  14.799  0.0858 -0.3888 -0.0777
 8048TIP3    H145559   1.713   3.890  14.829  1.4268 -0.6031 -0.2821
 8048TIP3    H245560   1.789   3.976  14.732 -0.2530  0.6835 -0.5013
 8049TIP3   OH245561   3.413   2.272  15.728  0.3678  0.4044  0.0536
 8049TIP3    H145562   3.403   2.225  15.646 -0.5867  0.8914 -0.1206
 8049TIP3    H245563   3.496   2.240  15.764  0.5604 -0.1586 -0.8622
 8050TIP3   OH245564   3.528   0.509  15.075  0.1177  0.1196 -0.0050
 8050TIP3    H145565   3.549   0.601  15.063  0.5182  0.5526  3.1827
 8050TIP3    H245566   3.612   0.463  15.071  0.5706  0.5483  2.7283
 8051TIP3   OH245567   1.421   5.533  16.419  0.0160 -0.3382  0.4366
 8051TIP3    H145568   1.342   5.494  16.458 -1.6577  2.9961  0.7022
 8051TIP3    H245569   1.401   5.539  16.326 -0.1619  0.7319  0.5385
 8052TIP3   OH245570   0.144   1.244  14.890  0.6406  0.6039 -0.1732
 8052TIP3    H145571   0.080   1.235  14.960 -0.0199  1.4609 -0.6415
 8052TIP3    H245572   0.107   1.194  14.817  2.9080 -3.2130  1.0124
 8053TIP3   OH245573   1.901   1.151  13.378  0.0533  0.1450 -0.2719
 8053TIP3    H145574   1.987   1.118  13.406  0.2916  0.1635 -0.9820
 8053TIP3    H245575   1.920   1.232  13.331 -0.2659 -0.3300 -1.2353
 8054TIP3   OH245576   2.739   5.248  17.371  0.6102  0.4676 -0.0607
 8054TIP3    H145577   2.746   5.154  17.360 -0.1301  0.3856  0.1090
 8054TIP3    H245578   2.738   5.262  17.465 -0.0975  0.5717 -0.0802
 8055TIP3   OH245579   4.001   4.294  11.349  0.1976 -0.0502  0.1105
 8055TIP3    H145580   4.059   4.345  11.292  0.7977 -1.5398 -0.6678
 8055TIP3    H245581   4.050   4.213  11.365 -0.0260  0.2385  2.6157
 8056TIP3   OH245582   2.229   0.179  14.570 -0.1219 -0.3214  0.2116
 8056TIP3    H145583   2.152   0.190  14.514  1.3267 -0.2121 -1.8623
 8056TIP3    H245584   2.259   0.268  14.588 -1.0389 -0.3113  1.9435
 8057TIP3   OH245585   0.519   6.295   4.215 -0.0364 -0.0861  0.4078
 8057TIP3    H145586   0.441   6.339   4.249  1.7048  3.1417  0.5769
 8057TIP3    H245587   0.522   6.319   4.123  0.5727 -0.4981  0.3116
 8058TIP3   OH245588   5.886   0.356  15.591  0.0295  0.0030 -0.1976
 8058TIP3    H145589   5.934   0.289  15.640  0.8020 -0.3360 -1.3642
 8058TIP3    H245590   5.833   0.306  15.528  0.4266  0.4616 -0.9143
 8059TIP3   OH245591   5.549   1.260  16.182 -0.1760 -0.3610  0.1072
 8059TIP3    H145592   5.637   1.258  16.219  0.5332  2.0441 -1.1912
 8059TIP3    H245593   5.543   1.346  16.140 -3.4207 -0.1569  0.7552
 8060TIP3   OH245594   0.011   1.115   5.587 -0.0223  0.5115 -0.1022
 8060TIP3    H145595  -0.003   1.075   5.502 -2.6908  1.3381 -0.1450
 8060TIP3    H245596   0.049   1.201   5.568  0.7319  0.1362 -0.3317
 8061TIP3   OH245597   5.121   3.347  14.364 -0.0415 -0.1964 -0.0393
 8061TIP3    H145598   5.073   3.391  14.294 -0.3653  0.7967  0.7830
 8061TIP3    H245599   5.152   3.266  14.324 -2.3253 -0.8448 -0.6369
 8062TIP3   OH245600   6.425   6.342  16.806  1.0965  0.1532 -0.2143
 8062TIP3    H145601   6.377   6.334  16.888  0.6633  0.0048 -0.4790
 8062TIP3    H245602   6.459   6.432  16.807  1.5997 -0.0361  0.3949
 8063TIP3   OH245603   5.656   2.108   4.426 -0.0041 -0.2202 -0.0955
 8063TIP3    H145604   5.668   2.022   4.386 -1.7097  0.2536 -1.8105
 8063TIP3    H245605   5.629   2.164   4.353  2.1526  2.0695  0.7340
 8064TIP3   OH245606   2.412   5.256   3.113  0.0997 -0.0883  0.0342
 8064TIP3    H145607   2.394   5.284   3.023 -0.5211 -0.5950 -0.0061
 8064TIP3    H245608   2.472   5.322   3.147  2.7107 -1.3673 -1.7024
 8065TIP3   OH245609   5.069   2.138   5.060 -0.3166 -0.7516 -0.6135
 8065TIP3    H145610   5.113   2.190   5.126 -0.4061  0.1656 -1.2560
 8065TIP3    H245611   5.139   2.105   5.004 -0.3680  0.0250 -1.1503
 8066TIP3   OH245612   6.001   5.103   1.195  0.2887  0.2131  0.8344
 8066TIP3    H145613   5.958   5.023   1.164  1.6909 -0.4154  0.4247
 8066TIP3    H245614   6.032   5.146   1.115  1.1947  0.1899  1.1639
 8067TIP3   OH245615   2.899   1.123  15.935 -0.0819  0.7689  0.1478
 8067TIP3    H145616   2.937   1.119  15.847  0.2791 -2.0639  0.3313
 8067TIP3    H245617   2.925   1.208  15.968  0.0568  1.7866 -2.3551
 8068TIP3   OH245618   6.132   4.291   4.444 -0.1834 -0.6245 -0.3915
 8068TIP3    H145619   6.107   4.332   4.526 -1.0945  0.3974 -1.1472
 8068TIP3    H245620   6.217   4.252   4.462  0.2556  0.7332  0.6643
 8069TIP3   OH245621   4.119   4.594  17.389 -0.3943 -0.0484 -0.6062
 8069TIP3    H145622   4.204   4.616  17.350 -0.0844 -1.7922 -1.0283
 8069TIP3    H245623   4.119   4.638  17.473  1.0283 -0.1451 -0.5263
 8070TIP3   OH245624   6.103   0.785  17.019 -0.4451  0.0906 -0.2191
 8070TIP3    H145625   6.061   0.774  16.934  0.8333 -0.1993 -0.8424
 8070TIP3    H245626   6.042   0.839  17.069 -1.9590 -1.0399 -0.7511
 8071TIP3   OH245627   3.331   6.617   1.716 -0.0487 -0.0706  0.2297
 8071TIP3    H145628   3.260   6.672   1.750  0.2097  0.4530 -0.0596
 8071TIP3    H245629   3.293   6.530   1.709  0.1031 -0.3890  2.6096
 8072TIP3   OH245630   3.064   4.283  12.837 -0.4810 -0.0841  0.6913
 8072TIP3    H145631   2.996   4.343  12.805  0.0899 -0.2607 -0.9363
 8072TIP3    H245632   3.032   4.196  12.813 -0.7363 -0.3622  1.9720
 8073TIP3   OH245633   1.237   3.671  11.749 -0.4590  0.2131 -0.5318
 8073TIP3    H145634   1.272   3.758  11.734  0.3702 -0.4324 -2.7313
 8073TIP3    H245635   1.280   3.642  11.830 -1.1610  2.0005  0.5336
 8074TIP3   OH245636   0.341   5.936  15.162  0.5609 -0.1477 -0.7692
 8074TIP3    H145637   0.263   5.921  15.215  1.4190 -1.6406  0.1740
 8074TIP3    H245638   0.398   5.991  15.217  1.1780 -1.1454 -0.3769
 8075TIP3   OH245639   0.390   0.926   3.871 -0.1125 -0.2271  0.3851
 8075TIP3    H145640   0.453   0.873   3.919  0.6319 -1.0824 -1.4223
 8075TIP3    H245641   0.316   0.867   3.854  0.2319 -0.3892 -0.6574
 8076TIP3   OH245642   6.237   0.958   5.988  0.0012  0.5655  0.2314
 8076TIP3    H145643   6.322   0.916   5.975 -0.0111  0.3750  0.7529
 8076TIP3    H245644   6.199   0.963   5.900  1.6006  2.9422 -0.4257
 8077TIP3   OH245645   6.133   4.178   1.820  0.0892  0.0225  0.2501
 8077TIP3    H145646   6.172   4.144   1.740 -2.3756  0.4444 -1.2315
 8077TIP3    H245647   6.142   4.106   1.883  2.7877 -0.0132 -0.0707
 8078TIP3   OH245648   3.029   3.336  13.572  0.1119 -0.5580  0.3942
 8078TIP3    H145649   3.012   3.318  13.664  1.1791 -0.9901  0.5217
 8078TIP3    H245650   3.069   3.256  13.539 -2.2791 -1.2871 -1.0442
 8079TIP3   OH245651   5.180   5.960  11.782  0.4278 -0.3493 -0.2425
 8079TIP3    H145652   5.128   5.963  11.701  0.1406  1.4055 -0.0328
 8079TIP3    H245653   5.260   5.914  11.757  0.3539  0.1788 -1.5546
 8080TIP3   OH245654   0.296   0.511   1.621 -0.3263  0.0271 -0.5856
 8080TIP3    H145655   0.235   0.476   1.686 -1.0266 -0.6798 -1.5957
 8080TIP3    H245656   0.354   0.568   1.671 -0.1333 -1.3722  0.8629
 8081TIP3   OH245657   6.433   6.448  14.984  0.2285 -0.1176  0.4399
 8081TIP3    H145658   6.496   6.396  14.935 -0.4142 -0.4536 -0.0400
 8081TIP3    H245659   6.486   6.494  15.050  0.9159 -0.6932  0.3014
 8082TIP3   OH245660   0.396   0.546   4.587  0.2100  0.4939  0.1242
 8082TIP3    H145661   0.380   0.452   4.576  2.9375  0.0438 -1.0339
 8082TIP3    H245662   0.462   0.551   4.657  1.9449  1.2577 -1.4761
 8083TIP3   OH245663   2.258   3.850  12.147  0.3375 -0.0474  0.3315
 8083TIP3    H145664   2.349   3.862  12.174  0.4057  0.1485  0.0219
 8083TIP3    H245665   2.206   3.886  12.219  0.4813 -1.0872  0.9694
 8084TIP3   OH245666   5.765   2.048   6.500  0.0643 -0.4689  0.2557
 8084TIP3    H145667   5.800   2.085   6.419  0.5993 -0.4196  0.5068
 8084TIP3    H245668   5.766   1.953   6.486 -0.8368 -0.4291 -0.1948
 8085TIP3   OH245669   3.915   4.585  15.135  0.4127 -0.1515  0.2362
 8085TIP3    H145670   3.944   4.588  15.226 -4.6445 -1.2747  2.2029
 8085TIP3    H245671   3.925   4.493  15.110  0.0580 -0.2128  0.3215
 8086TIP3   OH245672   4.550   6.022   4.601  0.1590 -0.0909 -0.0437
 8086TIP3    H145673   4.512   6.079   4.667 -0.4715 -0.3210 -0.2078
 8086TIP3    H245674   4.624   5.980   4.646 -1.5811 -1.9425  1.2343
 8087TIP3   OH245675   1.868   5.619   4.188  0.0949 -0.3416  0.0998
 8087TIP3    H145676   1.890   5.701   4.232 -0.8649  0.1552 -0.3237
 8087TIP3    H245677   1.903   5.550   4.245 -1.7153  0.2420  1.9853
 8088TIP3   OH245678   4.393   4.759  15.985 -0.4117 -0.0665  0.6444
 8088TIP3    H145679   4.331   4.708  16.037  0.1396 -0.9342  0.4687
 8088TIP3    H245680   4.461   4.696  15.960 -0.3560  0.4840 -0.6191
 8089TIP3   OH245681   6.747   1.547   2.744 -0.1923  0.0707 -0.1193
 8089TIP3    H145682   6.784   1.600   2.815 -0.9856 -0.3206  0.5971
 8089TIP3    H245683   6.824   1.518   2.694  0.3194  0.9992  0.1035
 8090TIP3   OH245684   4.577   0.893   5.703 -0.2244  0.2096 -1.2325
 8090TIP3    H145685   4.591   0.958   5.634  2.0245  1.3605  0.2139
 8090TIP3    H245686   4.642   0.913   5.770 -1.4428 -1.6863  0.6684
 8091TIP3   OH245687   3.037   6.623  15.484  0.3268  0.3040  0.2805
 8091TIP3    H145688   3.025   6.713  15.514 -1.7577 -0.4144  1.9047
 8091TIP3    H245689   2.984   6.570  15.544  1.2421 -1.9913 -0.7845
 8092TIP3   OH245690   1.399   5.163   4.226 -0.2336 -0.2102  0.4723
 8092TIP3    H145691   1.346   5.106   4.171 -0.1287 -0.1735  0.3339
 8092TIP3    H245692   1.340   5.233   4.252  0.1219  0.5974 -0.8323
 8093TIP3   OH245693   0.709   0.397  13.676  0.5836 -0.2672  0.0500
 8093TIP3    H145694   0.750   0.459  13.616 -0.4789  0.9512  0.5404
 8093TIP3    H245695   0.621   0.431  13.689  0.2748 -1.3833  1.0581
 8094TIP3   OH245696   0.815   2.733  13.556 -0.3552  0.1127 -0.2921
 8094TIP3    H145697   0.857   2.701  13.476  1.3639 -1.3620  1.1114
 8094TIP3    H245698   0.823   2.828  13.550  0.5542 -0.0114 -1.4771
 8095TIP3   OH245699   2.392   6.364   4.831  0.1666 -0.4684 -0.2500
 8095TIP3    H145700   2.369   6.285   4.783  1.3165 -0.0380 -1.5732
 8095TIP3    H245701   2.370   6.344   4.922  0.9334 -2.5285 -0.4649
 8096TIP3   OH245702   4.512   3.124   2.554  0.6322 -0.4713 -0.1662
 8096TIP3    H145703   4.501   3.148   2.646 -0.1621  0.2501 -0.4377
 8096TIP3    H245704   4.427   3.142   2.514  1.1352 -0.2168 -1.1623
 8097TIP3   OH245705   5.601   0.524  16.032  0.4980  0.4305 -0.1479
 8097TIP3    H145706   5.603   0.460  15.960  0.8204  0.5948 -0.2899
 8097TIP3    H245707   5.514   0.563  16.027  0.4350  0.2742 -0.3039
 8098TIP3   OH245708   1.150   4.040   4.892 -0.4389 -0.8093  0.2257
 8098TIP3    H145709   1.159   3.979   4.818  1.9100 -1.5161  1.0031
 8098TIP3    H245710   1.103   3.991   4.958  0.6672 -1.5289  0.5155
 8099TIP3   OH245711   2.027   5.646   1.072 -0.2223 -0.2869  0.1852
 8099TIP3    H145712   1.998   5.617   1.159 -2.8830 -0.9534 -0.8380
 8099TIP3    H245713   2.085   5.721   1.090 -1.2922  0.0754  2.5084
 8100TIP3   OH245714   5.636   4.844   4.608  0.4829  0.4300 -0.2635
 8100TIP3    H145715   5.729   4.822   4.600  0.3440  0.4380 -2.5834
 8100TIP3    H245716   5.627   4.928   4.562 -0.7286  0.2022 -0.4807
 8101TIP3   OH245717   5.574   1.574  11.518 -0.0676 -0.6521 -0.4588
 8101TIP3    H145718   5.654   1.522  11.505 -0.0296 -0.5849 -0.4932
 8101TIP3    H245719   5.599   1.640  11.582 -0.2539 -0.9771 -0.0481
 8102TIP3   OH245720   3.933   3.502  15.104  0.0515 -0.0599 -0.2967
 8102TIP3    H145721   3.848   3.546  15.108  1.0193  1.8839  0.4602
 8102TIP3    H245722   3.978   3.545  15.031  1.5013  1.2247  1.2628
 8103TIP3   OH245723   4.151   4.790   4.831 -1.0811 -0.3849  0.7365
 8103TIP3    H145724   4.171   4.760   4.742  0.9725 -0.3241  1.1327
 8103TIP3    H245725   4.212   4.862   4.846 -1.6775 -0.1291  2.0603
 8104TIP3   OH245726   2.466   6.115   3.329  0.4394 -0.1817 -0.4806
 8104TIP3    H145727   2.499   6.061   3.257  0.7253  1.6552 -1.8188
 8104TIP3    H245728   2.387   6.156   3.294  0.5740  0.7283  0.2336
 8105TIP3   OH245729   1.203   3.630  12.642 -0.8685  0.0309 -0.1775
 8105TIP3    H145730   1.239   3.570  12.576 -1.8383 -0.3790 -0.3491
 8105TIP3    H245731   1.127   3.670  12.599 -0.6997  0.7899  0.2186
 8106TIP3   OH245732   0.271   4.050  13.438  0.2397  0.1210  0.1265
 8106TIP3    H145733   0.271   3.954  13.443 -0.2242  0.1062 -0.0281
 8106TIP3    H245734   0.360   4.073  13.414  0.5139 -0.2351  0.7682
 8107TIP3   OH245735   0.238   5.989  15.741  0.3901  0.4981  0.3883
 8107TIP3    H145736   0.159   6.038  15.718 -0.4229 -1.0388 -0.2388
 8107TIP3    H245737   0.261   6.020  15.828 -1.2641  0.5595  0.8376
 8108TIP3   OH245738   0.314   3.159  15.696  0.1969  0.3085 -0.4576
 8108TIP3    H145739   0.231   3.121  15.667  0.4892 -1.2208  0.5652
 8108TIP3    H245740   0.309   3.155  15.792  1.4437  0.1801 -0.3844
 8109TIP3   OH245741   2.065   5.704   1.455 -0.0456  0.4177  0.1072
 8109TIP3    H145742   2.151   5.745   1.448 -0.2165  0.4764 -2.1083
 8109TIP3    H245743   2.073   5.623   1.405 -1.7247  1.2283 -1.5514
 8110TIP3   OH245744   1.144   4.296   4.674 -0.0010  0.6073 -0.0546
 8110TIP3    H145745   1.114   4.267   4.587  0.7719 -0.4585  0.0056
 8110TIP3    H245746   1.170   4.215   4.718  2.6600  1.4050 -0.0046
 8111TIP3   OH245747   4.516   1.056   6.261 -0.2255  0.3686  0.5063
 8111TIP3    H145748   4.569   1.046   6.340 -1.9167  1.0210  1.7862
 8111TIP3    H245749   4.432   1.016   6.283 -0.2763 -0.7639 -1.5114
 8112TIP3   OH245750   3.187   1.229  13.313  0.3586 -0.1021 -0.4013
 8112TIP3    H145751   3.204   1.246  13.406  1.5397 -1.2836 -0.3725
 8112TIP3    H245752   3.273   1.215  13.275  0.0670  2.3099 -2.1415
 8113TIP3   OH245753   5.402   1.229  13.574  0.3114 -0.5767 -0.1360
 8113TIP3    H145754   5.487   1.263  13.599  0.2294  0.2548 -0.9404
 8113TIP3    H245755   5.413   1.134  13.573  1.0409 -0.5048  0.3775
 8114TIP3   OH245756   2.614   4.647   2.782  0.3775 -0.1033  0.5088
 8114TIP3    H145757   2.558   4.574   2.758  1.1684 -0.3164 -0.7590
 8114TIP3    H245758   2.576   4.722   2.737  1.4041 -0.3540 -0.8274
 8115TIP3   OH245759   5.914   0.996  15.363 -0.7152  0.1067  0.2943
 8115TIP3    H145760   5.977   1.037  15.423  0.2844  1.4429 -1.5710
 8115TIP3    H245761   5.835   0.985  15.416 -0.5083  3.0253  1.4155
 8116TIP3   OH245762   2.671   5.338   0.238  0.3930 -0.5427 -0.4203
 8116TIP3    H145763   2.580   5.354   0.212  0.0550  0.2742  1.1432
 8116TIP3    H245764   2.716   5.421   0.219  0.3594 -0.2795  0.5859
 8117TIP3   OH245765   0.784   6.411   3.193  0.0169 -0.6240  0.2667
 8117TIP3    H145766   0.715   6.398   3.258  1.0697 -0.0371  1.5449
 8117TIP3    H245767   0.769   6.500   3.160  0.1904 -0.4743  0.5873
 8118TIP3   OH245768   5.889   0.942  17.145  0.4847  0.5209  0.1713
 8118TIP3    H145769   5.852   1.007  17.086 -0.7674  0.2921  0.6595
 8118TIP3    H245770   5.920   0.991  17.221 -0.4936  0.5619  0.5553
 8119TIP3   OH245771   4.404   3.037  14.244 -0.3007  0.1032 -0.0727
 8119TIP3    H145772   4.350   3.066  14.317 -1.0980 -0.3797 -0.4603
 8119TIP3    H245773   4.467   2.976  14.282 -1.8160 -1.4919 -0.0465
 8120TIP3   OH245774   5.825   5.904   3.494 -0.1103  0.0332 -0.0102
 8120TIP3    H145775   5.851   5.987   3.534  0.9298 -1.3438  2.4244
 8120TIP3    H245776   5.822   5.922   3.400  0.5435  2.6780  0.3945
 8121TIP3   OH245777   2.723   3.656  15.121  0.4008 -0.2202  0.1177
 8121TIP3    H145778   2.776   3.657  15.042  0.5030  1.7496  0.1630
 8121TIP3    H245779   2.633   3.659  15.090  0.4550  1.1633  0.0571
 8122TIP3   OH245780   1.692   3.304  15.017  0.0770  0.2195 -0.2479
 8122TIP3    H145781   1.748   3.257  15.079 -2.3046 -0.9352  1.1746
 8122TIP3    H245782   1.718   3.396  15.025  0.6612 -0.0770  1.5543
 8123TIP3   OH245783   3.265   1.810   2.367 -0.4188 -0.1126  0.1356
 8123TIP3    H145784   3.238   1.829   2.278 -0.9107 -0.1580  0.2756
 8123TIP3    H245785   3.348   1.763   2.357 -0.4407 -0.0644 -0.2928
 8124TIP3   OH245786   2.801   5.180   4.340 -0.2787 -0.0512  0.1498
 8124TIP3    H145787   2.838   5.099   4.374  0.9632  0.7527  0.7625
 8124TIP3    H245788   2.844   5.193   4.255  0.0220  0.3056  0.3539
 8125TIP3   OH245789   4.415   6.355  11.627  0.4056  0.2287  0.0234
 8125TIP3    H145790   4.395   6.262  11.620 -2.1332  0.7909 -1.6674
 8125TIP3    H245791   4.480   6.371  11.559 -0.9033  0.0261 -1.3504
 8126TIP3   OH245792   4.193   2.165   1.793 -0.6545  0.8561 -0.1403
 8126TIP3    H145793   4.238   2.145   1.875 -0.4097  1.2426 -0.1752
 8126TIP3    H245794   4.264   2.186   1.732 -0.7257 -1.0223 -0.9152
 8127TIP3   OH245795   6.571   0.912   5.222  0.6752  0.5898 -0.1259
 8127TIP3    H145796   6.610   0.881   5.140 -0.0097 -0.0643 -0.2105
 8127TIP3    H245797   6.505   0.846   5.244  0.6040  0.9464  0.7653
 8128TIP3   OH245798   0.938   6.192   5.591  0.1521  0.5635 -0.0552
 8128TIP3    H145799   0.997   6.263   5.614 -0.9334  1.6938 -0.6470
 8128TIP3    H245800   0.966   6.164   5.504  1.0376 -0.2449  0.4776
 8129TIP3   OH245801   6.004   6.437   6.152  0.7854 -0.0285  0.0825
 8129TIP3    H145802   6.090   6.404   6.128  1.1955  0.3438  1.0014
 8129TIP3    H245803   5.967   6.471   6.070  1.0421 -1.2088 -0.5417
 8130TIP3   OH245804   5.543   0.460   0.554  0.2143 -0.1772 -0.0983
 8130TIP3    H145805   5.634   0.436   0.570 -0.0264  0.0453  1.9333
 8130TIP3    H245806   5.547   0.529   0.487  1.7121  1.1213  1.2510
 8131TIP3   OH245807   3.430   0.367   5.305  0.4948  0.2140 -0.6549
 8131TIP3    H145808   3.428   0.431   5.234 -0.6967  2.0293  0.9132
 8131TIP3    H245809   3.408   0.417   5.384  0.2513 -1.9951  0.7816
 8132TIP3   OH245810   5.825   3.245   3.831  0.4457 -0.1465  0.1480
 8132TIP3    H145811   5.920   3.246   3.845  0.3957  1.3447  0.5420
 8132TIP3    H245812   5.815   3.264   3.738  0.5199  1.7622  0.4881
 8133TIP3   OH245813   5.099   3.094  16.083 -0.9125  0.4414  0.7286
 8133TIP3    H145814   5.153   3.148  16.142 -0.8639  0.5035  0.6278
 8133TIP3    H245815   5.146   3.096  15.999  0.3310 -1.6378  1.3050
 8134TIP3   OH245816   2.855   5.022   6.277  0.3599 -0.0672 -1.1076
 8134TIP3    H145817   2.819   4.990   6.194  0.3020 -1.5613 -0.5384
 8134TIP3    H245818   2.843   4.949   6.338 -1.4586  1.6969  0.7908
 8135TIP3   OH245819   3.123   6.569  14.773 -0.1071 -0.0018  0.5502
 8135TIP3    H145820   3.060   6.612  14.715 -0.7033 -1.4970  0.0504
 8135TIP3    H245821   3.119   6.619  14.854  0.0255  1.5335 -0.3426
 8136TIP3   OH245822   1.234   0.861  17.302  0.4015 -0.2503 -0.1312
 8136TIP3    H145823   1.162   0.897  17.354  1.0269  0.3189  0.3511
 8136TIP3    H245824   1.268   0.790  17.355  0.8732  0.1646  0.1290
 8137TIP3   OH245825   5.951   5.734  10.910  0.0839  0.1419 -0.3063
 8137TIP3    H145826   5.887   5.782  10.962 -1.9754 -0.2632 -2.3226
 8137TIP3    H245827   5.935   5.641  10.931  0.1914  0.0428 -0.6602
 8138TIP3   OH245828   1.344   4.641  17.044  0.1203 -0.3698  0.2358
 8138TIP3    H145829   1.399   4.690  17.105 -1.3950  1.5265  0.1785
 8138TIP3    H245830   1.310   4.569  17.096 -1.6971  1.5925  1.9525
 8139TIP3   OH245831   1.386   2.150  14.733 -0.0379  0.4009 -0.2876
 8139TIP3    H145832   1.339   2.208  14.794 -0.3033  0.0594 -0.1646
 8139TIP3    H245833   1.341   2.066  14.741  1.5673 -0.3990  1.0362
 8140TIP3   OH245834   5.619   1.266  12.047 -0.7256  0.2436  0.0381
 8140TIP3    H145835   5.531   1.242  12.020 -0.9685  0.8259  0.2886
 8140TIP3    H245836   5.654   1.188  12.089 -0.5924 -0.4570 -1.3026
 8141TIP3   OH245837   6.313   1.400   0.120  0.0278  0.0323  0.7648
 8141TIP3    H145838   6.270   1.485   0.121  0.2728  0.2301 -1.5618
 8141TIP3    H245839   6.250   1.341   0.080  0.1895 -0.7159  1.5749
 8142TIP3   OH245840   1.166   4.870  12.308 -0.0126 -0.4649  0.1868
 8142TIP3    H145841   1.194   4.877  12.217  0.8474 -0.4513  0.4442
 8142TIP3    H245842   1.233   4.816  12.350 -0.2940 -0.3043  0.8622
 8143TIP3   OH245843   1.357   1.137   5.854  1.2836 -0.6783  0.0380
 8143TIP3    H145844   1.268   1.173   5.849  1.1158 -0.7893  1.7082
 8143TIP3    H245845   1.410   1.198   5.802  0.0851 -1.2487 -1.9554
 8144TIP3   OH245846   1.761   3.746  11.511  0.3641 -0.3806 -0.4234
 8144TIP3    H145847   1.821   3.729  11.440  0.5409  1.4702 -0.7719
 8144TIP3    H245848   1.694   3.678  11.504  0.9998 -0.8910 -1.6415
 8145TIP3   OH245849   2.251   1.053   2.716  0.0622 -0.0945  0.2437
 8145TIP3    H145850   2.298   0.973   2.692 -0.4186 -0.6249  1.0341
 8145TIP3    H245851   2.162   1.040   2.682 -0.1786 -0.1549  0.8833
 8146TIP3   OH245852   6.718   3.090  14.795  0.2898  0.0744 -0.3533
 8146TIP3    H145853   6.636   3.070  14.750 -1.4357 -1.0190  2.9945
 8146TIP3    H245854   6.693   3.113  14.884  3.6434 -0.7175  0.9738
 8147TIP3   OH245855   2.114   4.959   2.639  0.2557 -0.2121 -0.2763
 8147TIP3    H145856   2.168   5.005   2.574  1.6813 -0.0900  0.9284
 8147TIP3    H245857   2.047   5.022   2.664  3.2409  2.1547  2.7294
 8148TIP3   OH245858   4.791   5.399   1.880 -0.0062 -0.0360  0.3572
 8148TIP3    H145859   4.782   5.364   1.969 -1.5552 -3.1672 -0.8788
 8148TIP3    H245860   4.841   5.333   1.833  1.2081  1.7893 -1.0803
 8149TIP3   OH245861   4.798   3.407   3.268  0.0591  0.0983 -0.2592
 8149TIP3    H145862   4.893   3.419   3.275  0.1238 -0.9362  0.8671
 8149TIP3    H245863   4.762   3.460   3.339 -0.1317 -0.3955  0.0131
 8150TIP3   OH245864   0.621   1.339   6.048  0.0363  0.0303  0.7831
 8150TIP3    H145865   0.654   1.301   6.130  1.1225  0.7985  0.7178
 8150TIP3    H245866   0.572   1.416   6.075 -0.9786 -0.6037  0.8101
 8151TIP3   OH245867   4.242   5.769  14.758  0.1731  0.4120 -0.8718
 8151TIP3    H145868   4.313   5.825  14.728  0.6083  0.4079  0.1283
 8151TIP3    H245869   4.285   5.699  14.807 -0.4986  0.3057 -0.4169
 8152TIP3   OH245870   1.978   0.081   2.551 -0.9850 -0.1622  0.0924
 8152TIP3    H145871   1.951  -0.011   2.550  0.5817 -0.7162  1.8880
 8152TIP3    H245872   2.041   0.088   2.478  0.6401 -1.1788  1.3153
 8153TIP3   OH245873   1.381   0.753  17.086  0.7709  0.1238  0.0136
 8153TIP3    H145874   1.324   0.788  17.154  0.9005 -0.3479  0.3740
 8153TIP3    H245875   1.415   0.830  17.041 -0.7445  0.3960 -0.7109
 8154TIP3   OH245876   2.279   2.868  15.238 -1.0364 -0.3919 -0.1156
 8154TIP3    H145877   2.357   2.846  15.187  0.6058  0.8322  1.7245
 8154TIP3    H245878   2.245   2.783  15.266 -0.1804 -0.9468 -0.6924
 8155TIP3   OH245879   3.100   3.971   6.406 -0.1086 -0.1768  0.1665
 8155TIP3    H145880   3.031   3.972   6.340 -0.0101  0.5242  0.0682
 8155TIP3    H245881   3.167   3.913   6.370 -1.5668 -2.7396  1.2540
 8156TIP3   OH245882   3.115   5.229  14.649 -0.2166 -0.3226 -0.2578
 8156TIP3    H145883   3.105   5.159  14.713  0.0551 -0.7935 -0.7251
 8156TIP3    H245884   3.025   5.260  14.634 -0.3664 -0.7252 -0.2168
 8157TIP3   OH245885   0.746   5.935  11.430  0.0382 -0.5902  0.2500
 8157TIP3    H145886   0.787   5.915  11.346 -1.2912 -0.4531 -0.4574
 8157TIP3    H245887   0.695   6.014  11.413 -0.6852 -0.8819  1.0390
 8158TIP3   OH245888   3.822   5.111  12.119  0.4500 -0.7504  0.6221
 8158TIP3    H145889   3.903   5.092  12.072 -0.1563 -1.6445 -0.0778
 8158TIP3    H245890   3.847   5.178  12.183  1.6307 -0.6720  0.0993
 8159TIP3   OH245891   1.553   2.939   1.365  0.6061  0.0681  0.6001
 8159TIP3    H145892   1.622   2.956   1.429  1.0852 -1.0486  0.4001
 8159TIP3    H245893   1.596   2.953   1.280  0.3020  0.3838  0.4985
 8160TIP3   OH245894   4.877   2.985  12.150 -0.0785  0.1918 -0.3638
 8160TIP3    H145895   4.967   2.955  12.163  0.1405  0.4627 -1.1968
 8160TIP3    H245896   4.839   2.985  12.238  0.2327 -1.4758 -0.2009
 8161TIP3   OH245897   4.802   2.649   0.750 -0.2525  0.3615 -0.0735
 8161TIP3    H145898   4.753   2.731   0.745  0.5048  0.7468 -1.7204
 8161TIP3    H245899   4.861   2.661   0.825 -2.2486  0.0773  1.6322
 8162TIP3   OH245900   2.808   3.211  13.260  1.3349 -0.0532  0.4024
 8162TIP3    H145901   2.755   3.246  13.332  3.2063  1.5042  1.1012
 8162TIP3    H245902   2.873   3.279  13.243  1.3043 -0.5968 -2.4251
 8163TIP3   OH245903   5.544   3.693   2.910 -0.5492  0.1844 -0.0442
 8163TIP3    H145904   5.555   3.788   2.922  2.0531  0.0045 -0.5704
 8163TIP3    H245905   5.563   3.656   2.996 -0.5393  0.0631 -0.0989
 8164TIP3   OH245906   4.305   6.548   4.161 -0.4246  0.2215  0.3928
 8164TIP3    H145907   4.375   6.528   4.099  0.0810  0.3105  0.9189
 8164TIP3    H245908   4.311   6.643   4.174 -0.6196  0.2239  0.4685
 8165TIP3   OH245909   5.069   2.849  14.730  0.1424 -0.0992  0.1756
 8165TIP3    H145910   5.010   2.882  14.663 -3.0108 -1.7225  1.9257
 8165TIP3    H245911   5.017   2.849  14.811  2.2897 -2.2732  1.7200
 8166TIP3   OH245912   6.528   2.847   1.880  0.2466 -0.1419  0.0479
 8166TIP3    H145913   6.460   2.827   1.944 -0.4649 -0.3673 -0.7619
 8166TIP3    H245914   6.481   2.862   1.798  1.0547  1.1765 -0.2097
 8167TIP3   OH245915   2.797   5.658  11.260 -0.2826 -0.1392 -0.2745
 8167TIP3    H145916   2.724   5.596  11.254 -0.1241 -0.2141 -2.7783
 8167TIP3    H245917   2.814   5.683  11.169  2.0293  0.8156  0.3466
 8168TIP3   OH245918   0.229   1.075   1.599 -0.0635 -0.0205  0.7327
 8168TIP3    H145919   0.151   1.129   1.591 -0.0616 -0.2490 -1.4321
 8168TIP3    H245920   0.294   1.132   1.639 -1.4264  0.0116  3.0777
 8169TIP3   OH245921   2.570   5.213  13.927  0.0630  0.1620  0.0269
 8169TIP3    H145922   2.567   5.301  13.891 -1.2943 -0.2815 -1.0501
 8169TIP3    H245923   2.543   5.157  13.855 -0.0144 -1.0418  0.9594
 8170TIP3   OH245924   2.072   3.638   3.353  0.0177 -0.5678 -0.0921
 8170TIP3    H145925   2.107   3.582   3.284 -0.9055  0.2570 -1.2680
 8170TIP3    H245926   1.999   3.684   3.312  0.4282  1.1233  0.9748
 8171TIP3   OH245927   1.187   0.602  15.891 -0.2229 -0.3676  0.2615
 8171TIP3    H145928   1.228   0.632  15.972  0.5488  1.6688 -0.8133
 8171TIP3    H245929   1.094   0.622  15.902 -0.1857 -0.4911  0.7980
 8172TIP3   OH245930   2.434   0.618   0.429 -0.6621  0.3073  0.2378
 8172TIP3    H145931   2.380   0.602   0.506 -1.7451  0.1385 -0.5236
 8172TIP3    H245932   2.411   0.707   0.402  0.3596  0.6876  0.6043
 8173TIP3   OH245933   2.064   4.392  13.771 -0.0268 -0.6431  0.4376
 8173TIP3    H145934   2.081   4.403  13.864 -1.7085  1.4670  0.5729
 8173TIP3    H245935   1.969   4.397  13.763 -0.0848 -2.9069 -1.2006
 8174TIP3   OH245936   5.152   6.499  12.713 -0.1733  0.1482 -0.2953
 8174TIP3    H145937   5.145   6.535  12.624 -1.1859 -1.5393 -0.9455
 8174TIP3    H245938   5.245   6.476  12.722 -0.0359  0.4507 -0.8615
 8175TIP3   OH245939   2.423   5.121  15.211  0.2253 -0.3481  0.5139
 8175TIP3    H145940   2.366   5.079  15.146 -1.5349  2.0817  0.3233
 8175TIP3    H245941   2.367   5.135  15.287  0.8879  0.9802  0.7998
 8176TIP3   OH245942   3.585   6.399   5.922  0.0105  0.0027 -0.3196
 8176TIP3    H145943   3.537   6.461   5.976 -1.3832 -0.9906 -0.3548
 8176TIP3    H245944   3.573   6.431   5.832 -0.3154 -0.0540 -0.2980
 8177TIP3   OH245945   4.439   4.459   0.228 -0.4107  0.2403  0.1277
 8177TIP3    H145946   4.421   4.552   0.246 -0.4185  0.3155 -0.2631
 8177TIP3    H245947   4.369   4.433   0.169 -0.4864 -0.0543  0.3463
 8178TIP3   OH245948   2.496   4.622   5.069 -0.0327  0.1667 -0.1919
 8178TIP3    H145949   2.533   4.590   4.987 -0.9334  0.1376 -0.6053
 8178TIP3    H245950   2.570   4.662   5.115  0.6359 -0.4709 -0.6845
 8179TIP3   OH245951   5.574   3.786  14.390  0.3311 -0.5549 -0.0222
 8179TIP3    H145952   5.647   3.778  14.329  0.6964 -0.1647  0.3572
 8179TIP3    H245953   5.518   3.853  14.353  0.7198 -0.0834  0.2317
 8180TIP3   OH245954   1.977   4.930   4.494 -0.0437 -0.3278  0.2926
 8180TIP3    H145955   1.916   4.897   4.428  0.3102 -1.0445  0.3138
 8180TIP3    H245956   2.062   4.930   4.451 -0.1094  1.0629  0.1341
 8181TIP3   OH245957   4.744   2.944  17.076 -0.6548 -0.3888  0.0747
 8181TIP3    H145958   4.777   2.900  16.998  1.2761  1.4625 -0.2611
 8181TIP3    H245959   4.687   3.013  17.042 -0.2916  0.0324  0.3013
 8182TIP3   OH245960   1.085   0.336  13.357 -0.1860 -0.4289  0.0422
 8182TIP3    H145961   0.993   0.312  13.361 -0.0199 -1.2970 -0.7236
 8182TIP3    H245962   1.119   0.317  13.444 -1.0168  1.2618  0.7748
 8183TIP3   OH245963   0.501   4.402  16.646  0.0356  0.0283 -0.2963
 8183TIP3    H145964   0.555   4.378  16.571 -2.2807  0.1661 -2.1117
 8183TIP3    H245965   0.463   4.319  16.676 -1.0984  0.2791 -0.9895
 8184TIP3   OH245966   5.812   2.167  13.968 -0.6089  0.3278 -0.9382
 8184TIP3    H145967   5.757   2.105  13.920 -1.3705  0.9715 -0.9138
 8184TIP3    H245968   5.874   2.200  13.903 -0.3545 -0.2776 -1.0057
 8185TIP3   OH245969   5.385   5.618   0.720  0.5253  0.0484  0.1599
 8185TIP3    H145970   5.454   5.576   0.670 -0.3739 -0.0722 -1.0251
 8185TIP3    H245971   5.412   5.608   0.811  1.2122 -1.5220 -0.1778
 8186TIP3   OH245972   3.183   5.515  15.367 -0.4390  0.2189 -0.3545
 8186TIP3    H145973   3.108   5.567  15.340 -1.0590  0.0317  0.9348
 8186TIP3    H245974   3.259   5.563  15.333 -0.7544  3.5229  2.9904
 8187TIP3   OH245975   6.739   2.464   3.262 -0.2012  0.0470 -0.4033
 8187TIP3    H145976   6.827   2.450   3.227  0.2322 -1.0767  1.0457
 8187TIP3    H245977   6.706   2.540   3.214  2.0602  1.3448 -0.0542
 8188TIP3   OH245978   2.731   0.399   1.739  0.3702 -0.3943  1.1726
 8188TIP3    H145979   2.745   0.332   1.672  1.1415  0.1808  0.7451
 8188TIP3    H245980   2.772   0.478   1.704 -0.6450  0.3522  1.6045
 8189TIP3   OH245981   5.687   3.696  15.511  0.1888  1.1394 -0.4732
 8189TIP3    H145982   5.601   3.720  15.546 -2.4923 -4.4211 -2.1375
 8189TIP3    H245983   5.734   3.658  15.585 -1.5619 -1.6057 -0.6224
 8190TIP3   OH245984   0.438   3.219   6.284  0.2174 -0.2818 -0.5444
 8190TIP3    H145985   0.505   3.246   6.347  0.0286  1.1984 -0.9423
 8190TIP3    H245986   0.422   3.127   6.305  0.2821  0.1054  1.4639
 8191TIP3   OH245987   5.881   1.542  12.927 -0.6799 -0.1371 -0.1306
 8191TIP3    H145988   5.886   1.629  12.965 -1.3466 -0.0748 -0.1681
 8191TIP3    H245989   5.792   1.536  12.893 -0.8951 -1.1138  0.5568
 8192TIP3   OH245990   0.571   3.571   3.199 -0.1779  0.0008  0.3330
 8192TIP3    H145991   0.519   3.589   3.121 -1.2272  1.1752  1.2497
 8192TIP3    H245992   0.507   3.543   3.264  0.3958  0.9660  1.3426
 8193TIP3   OH245993   6.234   0.795  11.925 -0.6449  0.0189 -0.1257
 8193TIP3    H145994   6.194   0.868  11.878  1.2230  1.8000  0.8530
 8193TIP3    H245995   6.160   0.746  11.960 -2.0452  2.6461  0.9108
 8194TIP3   OH245996   6.238   3.585  11.179 -0.1797  0.2180 -0.2036
 8194TIP3    H145997   6.147   3.614  11.173 -0.5332 -0.8450 -0.3021
 8194TIP3    H245998   6.246   3.520  11.109 -0.1232 -1.6242  1.4325
 8195TIP3   OH245999   1.392   1.775  12.135  0.0698  0.3154  0.1402
 8195TIP3    H146000   1.434   1.775  12.221  0.2695 -1.4547  0.0703
 8195TIP3    H246001   1.465   1.772  12.073 -0.1052  0.0420 -0.0536
 8196TIP3   OH246002   4.295   6.513   2.030 -0.2170 -0.5343  0.0478
 8196TIP3    H146003   4.233   6.534   2.099  1.1764  1.4545  0.7871
 8196TIP3    H246004   4.376   6.490   2.076  0.5589  0.2351 -0.8745
 8197TIP3   OH246005   0.857   1.419  12.270 -0.4938 -0.1782 -0.0963
 8197TIP3    H146006   0.940   1.376  12.245  0.8675  1.3543  1.5359
 8197TIP3    H246007   0.816   1.442  12.186  1.2513 -0.0369 -0.9696
 8198TIP3   OH246008   4.823   3.550   2.155  0.1508 -0.5863 -0.2649
 8198TIP3    H146009   4.778   3.617   2.206 -1.0426  0.0015 -2.0107
 8198TIP3    H246010   4.871   3.499   2.220 -0.9197  0.4101  1.3847
 8199TIP3   OH246011   1.869   4.480   2.382 -0.2383 -0.1765 -0.1713
 8199TIP3    H146012   1.930   4.528   2.327 -0.9126  1.8346  0.7512
 8199TIP3    H246013   1.782   4.511   2.354 -0.7545 -1.3824  0.0004
 8200TIP3   OH246014   1.356   3.464   3.004 -0.2873 -0.0251 -0.0068
 8200TIP3    H146015   1.273   3.437   3.044 -0.4648  0.3302 -0.1411
 8200TIP3    H246016   1.409   3.384   3.003 -0.4402 -0.1367  0.5496
 8201TIP3   OH246017   1.133   4.758  15.588  0.3024 -0.2123 -0.1687
 8201TIP3    H146018   1.128   4.766  15.493 -0.3463  0.8219 -0.0608
 8201TIP3    H246019   1.083   4.832  15.621  0.3880 -0.6502  0.9851
 8202TIP3   OH246020   4.016   5.681   4.489  0.6197  1.0059 -0.1799
 8202TIP3    H146021   3.963   5.668   4.567 -0.1009  1.7511 -0.5326
 8202TIP3    H246022   4.098   5.719   4.521  1.4530 -1.1976  0.4927
 8203TIP3   OH246023   2.679   3.094   5.654  0.0514  0.0105  0.0815
 8203TIP3    H146024   2.691   3.181   5.616 -0.7043 -0.4581 -1.3161
 8203TIP3    H246025   2.769   3.062   5.667  0.4200 -0.2800 -2.5814
 8204TIP3   OH246026   6.564   4.652  11.667  0.0948 -0.3589 -0.3328
 8204TIP3    H146027   6.573   4.594  11.743 -0.3113  1.9832  1.6075
 8204TIP3    H246028   6.647   4.699  11.663 -0.5948  0.9082 -0.1103
 8205TIP3   OH246029   1.857   6.730   0.526 -0.7996  0.0296 -0.8974
 8205TIP3    H146030   1.866   6.814   0.572 -0.3636 -0.5636  0.1460
 8205TIP3    H246031   1.944   6.711   0.493 -1.1630  0.5609 -2.2014
 8206TIP3   OH246032   0.862   5.694   4.068  0.2231  0.3556 -0.3725
 8206TIP3    H146033   0.799   5.754   4.029 -0.6422 -1.1953 -1.4962
 8206TIP3    H246034   0.874   5.725   4.157 -1.9935  0.8197 -0.1865
 8207TIP3   OH246035   2.418   0.505   3.079  0.0883 -0.4282  0.1704
 8207TIP3    H146036   2.416   0.598   3.056 -1.5138 -0.2500  0.8960
 8207TIP3    H246037   2.416   0.460   2.994  0.4328  0.1971 -0.1761
 8208TIP3   OH246038   1.969   0.011  15.098  0.8639 -0.4938  0.8333
 8208TIP3    H146039   2.051  -0.001  15.049  0.1621 -0.9134 -0.2672
 8208TIP3    H246040   1.953  -0.074  15.139 -0.1752 -1.1292 -0.8045
 8209TIP3   OH246041   5.307   1.596   3.842  0.5029  0.3053 -1.1118
 8209TIP3    H146042   5.263   1.520   3.804  0.3590  0.8804 -2.1285
 8209TIP3    H246043   5.236   1.657   3.863  0.6485  0.3274 -0.6728
 8210TIP3   OH246044   0.324   3.692  12.641  0.2020 -0.4639  0.3452
 8210TIP3    H146045   0.317   3.757  12.711  0.0515 -0.7208  0.5707
 8210TIP3    H246046   0.300   3.609  12.682  0.4242 -0.6709  0.0677
 8211TIP3   OH246047   4.015   6.248   1.205 -0.2583  0.5045  0.5437
 8211TIP3    H146048   4.040   6.275   1.117 -0.1825 -1.7122 -0.1811
 8211TIP3    H246049   4.053   6.314   1.263  2.4534  0.3305 -0.8895
 8212TIP3   OH246050   2.887   3.485   0.494 -0.5509  0.1893 -0.1758
 8212TIP3    H146051   2.982   3.470   0.496 -0.4932  0.5289 -0.2286
 8212TIP3    H246052   2.849   3.402   0.520 -0.2078  0.3847  1.0074
 8213TIP3   OH246053   5.856   0.002   0.801  0.5495  0.1058 -0.2108
 8213TIP3    H146054   5.857  -0.089   0.772 -1.2704  0.7958 -2.9458
 8213TIP3    H246055   5.947   0.029   0.800  1.1946 -1.8461  1.3798
 8214TIP3   OH246056   5.537   4.695  13.109 -0.3574 -0.4818 -0.1980
 8214TIP3    H146057   5.619   4.740  13.088 -0.7763 -0.1572 -1.2340
 8214TIP3    H246058   5.483   4.707  13.030  0.1283 -4.3226 -1.3193
 8215TIP3   OH246059   3.943   4.515  13.810 -0.1125 -0.0778 -0.3655
 8215TIP3    H146060   3.894   4.596  13.793  0.8519  0.6671  0.2753
 8215TIP3    H246061   3.955   4.476  13.723  0.5078  1.1311 -0.8461
 8216TIP3   OH246062   0.204   0.818   0.288  0.4867 -0.0744 -0.0922
 8216TIP3    H146063   0.231   0.840   0.199  0.9380 -0.5641 -0.0756
 8216TIP3    H246064   0.284   0.789   0.331  0.1741 -0.3295  0.3223
 8217TIP3   OH246065   5.896   0.687   1.822  0.0798 -0.3755  0.5220
 8217TIP3    H146066   5.960   0.616   1.829 -0.9326 -1.2373  1.3181
 8217TIP3    H246067   5.936   0.759   1.871  0.4438 -0.8992  1.0093
 8218TIP3   OH246068   2.517   3.722  16.829 -0.4954 -0.0461 -0.3515
 8218TIP3    H146069   2.593   3.664  16.818 -0.5044 -0.0676 -0.2989
 8218TIP3    H246070   2.553   3.810  16.819 -0.4219 -0.0460 -0.1059
 8219TIP3   OH246071   2.447   3.418  16.157 -0.1615  0.0907 -0.4989
 8219TIP3    H146072   2.464   3.432  16.250  0.2459  0.7255 -0.6609
 8219TIP3    H246073   2.352   3.411  16.150 -0.1817 -0.1309 -0.0113
 8220TIP3   OH246074   5.978   3.643  12.881 -0.3115 -0.5190 -0.5556
 8220TIP3    H146075   5.946   3.558  12.852 -1.3228 -0.2544 -0.2267
 8220TIP3    H246076   5.943   3.706  12.818 -0.7208 -0.1900 -0.0052
 8221TIP3   OH246077   4.553   2.283   5.252 -0.5347  0.0209  0.3537
 8221TIP3    H146078   4.566   2.229   5.174  0.5287 -0.9366  1.1561
 8221TIP3    H246079   4.493   2.352   5.224 -0.8524 -0.7937 -1.0721
 8222TIP3   OH246080   2.594   1.904  15.077 -0.5567  0.4576 -0.4312
 8222TIP3    H146081   2.499   1.906  15.086 -0.6089 -0.1644 -0.8513
 8222TIP3    H246082   2.610   1.875  14.987  0.0416 -1.1051  0.1543
 8223TIP3   OH246083   6.200   2.740   1.197 -0.2514 -0.0569  0.2721
 8223TIP3    H146084   6.247   2.665   1.234 -0.5840 -0.9746 -1.1049
 8223TIP3    H246085   6.266   2.787   1.146 -0.7612 -1.3774 -1.7087
 8224TIP3   OH246086   4.871   3.332   4.937  0.3324 -0.8635 -0.2011
 8224TIP3    H146087   4.855   3.427   4.935  0.1680 -0.8428  1.1662
 8224TIP3    H246088   4.822   3.301   5.013  1.3528 -1.8559  0.0767
 8225TIP3   OH246089   0.655   5.960  12.501  0.5645 -0.1356  0.3370
 8225TIP3    H146090   0.657   6.049  12.536 -1.2010  0.0990 -0.0457
 8225TIP3    H246091   0.733   5.954  12.446 -0.1207  1.7599 -0.9312
 8226TIP3   OH246092   4.503   1.235  13.991 -0.3438 -0.0076 -0.3164
 8226TIP3    H146093   4.498   1.250  13.896 -1.3089 -1.8071 -0.5937
 8226TIP3    H246094   4.514   1.140  14.000 -0.8116  0.0689  1.3927
 8227TIP3   OH246095   5.018   2.348  16.612 -0.4970 -0.0315 -0.1949
 8227TIP3    H146096   5.098   2.396  16.634 -1.6750  2.1476 -0.3930
 8227TIP3    H246097   5.000   2.294  16.689  0.2875  0.6871  0.5150
 8228TIP3   OH246098   1.408   5.552   1.816  0.0571 -0.2534  0.2768
 8228TIP3    H146099   1.338   5.495   1.784 -0.8931  0.5166  0.9392
 8228TIP3    H246100   1.464   5.566   1.739 -0.9679 -0.2072 -0.4867
 8229TIP3   OH246101   4.231   0.177   2.257 -0.4870 -0.1365 -0.2354
 8229TIP3    H146102   4.311   0.129   2.281  1.1126  0.3072 -3.9646
 8229TIP3    H246103   4.259   0.267   2.246 -2.6268  1.0498  2.7706
 8230TIP3   OH246104   2.474   4.753  11.465  0.3676 -0.6032 -0.2371
 8230TIP3    H146105   2.417   4.790  11.532  1.2056 -1.1405  0.8001
 8230TIP3    H246106   2.467   4.658  11.478  0.5123 -0.7157 -0.9397
 8231TIP3   OH246107   0.161   1.414   1.274 -0.2804  0.1017  0.2317
 8231TIP3    H146108   0.105   1.488   1.251  0.5269  0.5171 -0.4808
 8231TIP3    H246109   0.112   1.365   1.340 -0.3284  1.9295  1.6107
 8232TIP3   OH246110   3.216   2.277  15.013 -0.3537 -0.1503 -0.0467
 8232TIP3    H146111   3.197   2.186  14.993  1.5799 -0.2551 -1.7734
 8232TIP3    H246112   3.282   2.272  15.083  1.0448 -0.2187 -1.3007
 8233TIP3   OH246113   0.470   3.048   2.104 -0.0848 -0.2689 -0.0001
 8233TIP3    H146114   0.395   3.105   2.123  0.2749  0.0972  0.3652
 8233TIP3    H246115   0.543   3.090   2.150  0.1938 -1.0249  0.2633
 8234TIP3   OH246116   3.204   0.523  14.468 -0.2350  0.0223  0.1234
 8234TIP3    H146117   3.285   0.478  14.442 -1.5218 -2.0601 -0.5228
 8234TIP3    H246118   3.206   0.605  14.419  0.7739 -0.6662 -1.0716
 8235TIP3   OH246119   0.209   3.091  14.440  0.1128 -0.2856  0.3148
 8235TIP3    H146120   0.254   3.061  14.362 -1.1735  0.9607 -0.9723
 8235TIP3    H246121   0.145   3.022  14.458  1.0950 -1.0650  0.9136
 8236TIP3   OH246122   3.193   6.347   0.509 -0.0105  0.8228  0.0915
 8236TIP3    H146123   3.155   6.414   0.452  1.1162  2.7504  1.4934
 8236TIP3    H246124   3.256   6.394   0.563  1.2516 -1.4951  0.7841
 8237TIP3   OH246125   3.920   3.108  16.706  0.4385 -0.0068 -0.2357
 8237TIP3    H146126   3.990   3.087  16.767  1.2329  0.9189 -0.7908
 8237TIP3    H246127   3.965   3.129  16.624 -0.5486 -0.3546 -0.8946
 8238TIP3   OH246128   0.703   4.896  15.848 -0.4508 -0.0373 -0.1676
 8238TIP3    H146129   0.687   4.921  15.757  1.1043 -0.3620 -0.5563
 8238TIP3    H246130   0.621   4.856  15.876 -1.1768  0.6681 -1.2136
 8239TIP3   OH246131   4.463   4.791   0.213  0.1912  0.3591  0.0717
 8239TIP3    H146132   4.442   4.878   0.179  0.4434 -0.1281 -1.3976
 8239TIP3    H246133   4.546   4.768   0.172 -0.5832 -1.1624 -0.7411
 8240TIP3   OH246134   0.230   3.969  15.746  0.1599  0.0782  0.1963
 8240TIP3    H146135   0.151   3.935  15.788 -0.5428  0.3194 -0.8765
 8240TIP3    H246136   0.222   4.064  15.754  0.6817  0.0821  0.6772
 8241TIP3   OH246137   0.690   1.135   2.339 -0.2435  0.6069 -0.0233
 8241TIP3    H146138   0.596   1.145   2.321 -0.4301  1.3388  1.2675
 8241TIP3    H246139   0.733   1.170   2.261 -1.0341  1.3490 -0.1418
 8242TIP3   OH246140   0.915   2.510   0.579 -0.1483 -0.1570 -0.5452
 8242TIP3    H146141   0.937   2.448   0.510  0.7662  0.4878 -0.8538
 8242TIP3    H246142   0.929   2.462   0.660 -1.6954 -1.0787 -0.7785
 8243TIP3   OH246143   2.139   0.885  12.729  0.2250 -0.3928 -0.2819
 8243TIP3    H146144   2.158   0.796  12.759 -2.0465 -0.8416 -0.0586
 8243TIP3    H246145   2.178   0.941  12.797 -0.1712 -1.2729  0.7046
 8244TIP3   OH246146   2.660   6.274   1.921  0.3953 -0.4651  0.2148
 8244TIP3    H146147   2.602   6.325   1.864  1.4549  1.5936  0.8999
 8244TIP3    H246148   2.618   6.188   1.925 -0.6595 -0.1711 -2.2168
 8245TIP3   OH246149   4.433   4.841  17.033  0.0947 -0.2908  0.5195
 8245TIP3    H146150   4.439   4.913  17.097 -0.0639  1.2750 -1.1502
 8245TIP3    H246151   4.493   4.774  17.067  1.2007  1.1371  1.5153
 8246TIP3   OH246152   5.491   6.625  16.980 -0.1153  0.3385  0.1825
 8246TIP3    H146153   5.522   6.536  16.963 -0.7181  0.0565  0.5110
 8246TIP3    H246154   5.482   6.629  17.075 -0.0215  0.7785  0.1735
 8247TIP3   OH246155   6.002   4.171  13.163 -0.2494 -0.1531 -0.8661
 8247TIP3    H146156   5.989   4.212  13.248 -2.4622  0.1687 -1.3125
 8247TIP3    H246157   6.070   4.225  13.121  1.2938 -0.6563  0.8390
 8248TIP3   OH246158   3.607   0.884   5.271  0.5038  0.2631 -0.0189
 8248TIP3    H146159   3.596   0.978   5.289 -1.7721 -0.1707  1.2163
 8248TIP3    H246160   3.642   0.848   5.352 -1.4240 -0.3450  0.6064
 8249TIP3   OH246161   1.924   2.150  10.805 -0.6575 -0.4499  0.3878
 8249TIP3    H146162   1.942   2.226  10.751  0.7875 -2.0447 -1.5714
 8249TIP3    H246163   2.011   2.121  10.834 -1.1571 -1.4402  0.9539
 8250TIP3   OH246164   4.126   6.278  16.023 -0.2316  0.4687  0.6949
 8250TIP3    H146165   4.084   6.340  16.081  0.8389  0.9938  0.9401
 8250TIP3    H246166   4.208   6.321  15.998  0.9997 -1.2304  1.6364
 8251TIP3   OH246167   6.458   3.389   6.413  0.4051 -0.2771  0.2784
 8251TIP3    H146168   6.528   3.423   6.358  0.1718  0.2209  0.2775
 8251TIP3    H246169   6.496   3.314   6.458  0.3781 -1.1459 -1.1058
 8252TIP3   OH246170   5.947   0.745  16.793 -0.2163  0.2293 -0.0292
 8252TIP3    H146171   5.981   0.762  16.704 -1.1448 -0.4888 -0.5339
 8252TIP3    H246172   5.858   0.778  16.791 -1.0166 -1.8022 -0.0820
 8253TIP3   OH246173   5.093   0.146   3.653  0.3114 -0.5640  0.0187
 8253TIP3    H146174   5.093   0.163   3.559 -0.5744 -2.5771 -0.3997
 8253TIP3    H246175   5.171   0.190   3.686 -0.4238  1.8921 -1.2967
 8254TIP3   OH246176   5.516   1.360   0.063  0.5253 -0.2201 -0.3201
 8254TIP3    H146177   5.583   1.324   0.005  0.7076  0.2415 -0.3936
 8254TIP3    H246178   5.449   1.395   0.003 -0.0545 -1.1722 -0.2516
 8255TIP3   OH246179   1.222   0.528  16.998  0.1607 -0.5366  0.1407
 8255TIP3    H146180   1.270   0.610  16.992 -0.4668 -0.2013 -0.3961
 8255TIP3    H246181   1.144   0.549  17.050  0.6930 -1.1352  1.2352
 8256TIP3   OH246182   3.937   2.415   4.991 -0.0868  0.4834  0.2755
 8256TIP3    H146183   4.013   2.357   4.994 -0.6959 -0.4512 -1.1289
 8256TIP3    H246184   3.964   2.493   5.039  1.3566 -0.2761  0.7534
 8257TIP3   OH246185   5.413   1.364  16.636  0.2241  0.0143 -0.2262
 8257TIP3    H146186   5.451   1.452  16.631 -1.1316  0.7445  1.3505
 8257TIP3    H246187   5.407   1.346  16.730  1.0470 -2.0593 -0.5258
 8258TIP3   OH246188   6.429   4.515   5.535 -0.5909  0.7608 -0.0184
 8258TIP3    H146189   6.480   4.544   5.459 -0.3014  1.9452  0.5981
 8258TIP3    H246190   6.453   4.424   5.547  0.2935  0.9022 -0.6070
 8259TIP3   OH246191   4.613   6.466  10.861  0.4736 -0.0540  0.4171
 8259TIP3    H146192   4.617   6.552  10.818  1.0369  0.8824  2.2623
 8259TIP3    H246193   4.522   6.438  10.850 -0.9892  2.8182  3.4373
 8260TIP3   OH246194   0.589   1.389   3.163 -0.7500  0.1265  0.2383
 8260TIP3    H146195   0.570   1.482   3.153 -1.4409  0.0020  0.3207
 8260TIP3    H246196   0.543   1.347   3.090 -1.2451 -0.2429  0.7525
 8261TIP3   OH246197   3.711   5.328  16.867 -0.2730 -0.7828  0.3391
 8261TIP3    H146198   3.789   5.285  16.832  0.7640  0.6506  0.8302
 8261TIP3    H246199   3.721   5.321  16.962 -0.4748 -0.1009  0.4104
 8262TIP3   OH246200   0.416   2.354  11.294  0.4521 -0.1395  0.5724
 8262TIP3    H146201   0.483   2.341  11.226 -0.0810 -0.1530  0.0407
 8262TIP3    H246202   0.455   2.418  11.354  0.2852  1.1707 -0.6508
 8263TIP3   OH246203   5.848   3.131  10.854 -0.2439  0.0735 -0.1038
 8263TIP3    H146204   5.834   3.083  10.773 -1.4355  2.1212 -1.1783
 8263TIP3    H246205   5.797   3.083  10.920  1.2482 -1.9738 -0.3507
 8264TIP3   OH246206   5.277   5.215   3.941 -0.1533 -0.5140 -0.0842
 8264TIP3    H146207   5.221   5.244   4.012 -2.3669  0.7466 -2.2213
 8264TIP3    H246208   5.234   5.245   3.861  2.4670 -1.3887 -1.9920
 8265TIP3   OH246209   5.258   5.194   5.461 -0.4288 -0.2205  0.0418
 8265TIP3    H146210   5.245   5.166   5.371 -0.4473  0.8717 -0.3093
 8265TIP3    H246211   5.170   5.196   5.498 -0.5511  0.4632 -0.2727
 8266TIP3   OH246212   2.210   5.537   3.236 -0.1715  0.2621  0.0538
 8266TIP3    H146213   2.223   5.618   3.286 -1.3358  0.7715 -0.4423
 8266TIP3    H246214   2.216   5.468   3.302 -1.5984  0.9135  0.9256
 8267TIP3   OH246215   6.579   2.934   5.266 -0.0036 -0.4506 -0.0123
 8267TIP3    H146216   6.623   2.957   5.184 -0.6842 -1.2771 -0.6264
 8267TIP3    H246217   6.518   3.006   5.282 -1.1807 -1.1394 -1.2204
 8268TIP3   OH246218   1.986   5.313   0.011 -0.5155 -0.1393 -0.3118
 8268TIP3    H146219   1.934   5.247   0.057 -1.3206  0.8425  0.2333
 8268TIP3    H246220   2.017   5.269  -0.068 -1.0215 -1.1661  0.0484
 8269TIP3   OH246221   1.927   3.229   0.617  0.5685  0.4606  0.2412
 8269TIP3    H146222   1.851   3.277   0.650  1.3700  2.1945 -0.3028
 8269TIP3    H246223   2.001   3.263   0.668  1.1192 -0.4871  0.0930
 8270TIP3   OH246224   1.662   3.790   2.637  0.5965 -0.6247 -0.5938
 8270TIP3    H146225   1.611   3.794   2.717  1.0145  2.3097 -0.3655
 8270TIP3    H246226   1.717   3.712   2.647 -0.1381 -0.9279  1.4568
 8271TIP3   OH246227   0.371   1.512   4.547  0.0562 -0.5030 -0.6288
 8271TIP3    H146228   0.384   1.550   4.634 -1.5670 -0.3173 -0.4338
 8271TIP3    H246229   0.380   1.418   4.560 -0.7937 -0.5249 -0.1107
 8272TIP3   OH246230   0.630   2.478  11.461  0.7375  0.1344 -0.6286
 8272TIP3    H146231   0.548   2.492  11.507 -0.4548 -0.1587 -2.5333
 8272TIP3    H246232   0.684   2.427  11.522 -1.0144 -0.8613  0.1776
 8273TIP3   OH246233   4.491   5.296   1.780  0.5276  0.3368  0.0277
 8273TIP3    H146234   4.477   5.323   1.689  0.5181  0.6341  0.1160
 8273TIP3    H246235   4.558   5.356   1.813  0.3932  0.3538  0.2739
 8274TIP3   OH246236   6.304   5.204  16.697  0.0023 -0.5064  0.0777
 8274TIP3    H146237   6.304   5.261  16.620 -2.0774  1.1237  1.1744
 8274TIP3    H246238   6.390   5.163  16.696  0.4903  0.3792 -2.4313
 8275TIP3   OH246239   5.554   5.601  16.192  0.1185  0.1630  0.4351
 8275TIP3    H146240   5.637   5.568  16.159 -1.0331 -0.9990 -1.4739
 8275TIP3    H246241   5.564   5.696  16.193  0.5933  0.2282 -2.4778
 8276TIP3   OH246242   6.473   0.871  16.459 -0.0274 -0.7746 -0.6390
 8276TIP3    H146243   6.501   0.862  16.369  1.1627  1.4120 -0.5466
 8276TIP3    H246244   6.554   0.885  16.509 -0.8016 -0.0972  0.4865
 8277TIP3   OH246245   0.591   2.904  14.413 -0.1081  0.0898  0.2239
 8277TIP3    H146246   0.654   2.915  14.342  0.8158 -0.9130  0.8469
 8277TIP3    H246247   0.539   2.827  14.388 -1.2060  0.9889 -0.3513
 8278TIP3   OH246248   0.852   2.936  16.783  0.2618 -0.3547 -0.9191
 8278TIP3    H146249   0.810   2.853  16.808  0.1396 -0.3599 -1.1407
 8278TIP3    H246250   0.906   2.959  16.858 -2.5150  1.2871  0.7420
 8279TIP3   OH246251   0.472   1.876  11.558 -0.4740  0.0803 -0.2700
 8279TIP3    H146252   0.519   1.956  11.581 -1.0591  0.4468 -0.3263
 8279TIP3    H246253   0.541   1.809  11.549  0.0336  0.6102 -0.3860
 8280TIP3   OH246254   3.016   4.241  13.823 -0.5855 -0.1441  0.1688
 8280TIP3    H146255   3.099   4.288  13.823 -0.0616 -1.0338 -0.6381
 8280TIP3    H246256   2.968   4.278  13.748 -0.3715 -0.5407 -0.1688
 8281TIP3   OH246257   3.005   4.866  12.314 -0.3914 -0.1685 -0.2651
 8281TIP3    H146258   3.094   4.855  12.347 -0.0086 -0.3907 -1.3350
 8281TIP3    H246259   3.007   4.948  12.265 -0.3866 -0.8624 -1.4696
 8282TIP3   OH246260   4.870   2.890  16.740 -0.0467  0.1990  0.3018
 8282TIP3    H146261   4.884   2.796  16.728 -0.7117  0.0956  0.2562
 8282TIP3    H246262   4.797   2.911  16.680  1.4563  1.1794 -1.2825
 8283TIP3   OH246263   2.439   5.867  11.864 -0.4972  0.3138 -0.7160
 8283TIP3    H146264   2.453   5.961  11.858 -0.1717  0.4785  1.7403
 8283TIP3    H246265   2.518   5.833  11.906 -0.3990 -1.1606 -1.9640
 8284TIP3   OH246266   4.349   4.710  10.982  0.1536 -0.2718  0.3866
 8284TIP3    H146267   4.396   4.640  11.029 -0.2148 -0.0624  1.0903
 8284TIP3    H246268   4.300   4.755  11.051 -0.4487  0.0148 -0.2229
 8285TIP3   OH246269   1.753   5.177   6.325  0.2283  0.3007 -0.2294
 8285TIP3    H146270   1.828   5.154   6.380 -0.1201 -2.0570 -0.6331
 8285TIP3    H246271   1.692   5.221   6.385  0.8346 -0.0982  0.7079
 8286TIP3   OH246272   4.510   1.340  16.934 -0.1839 -0.4581  0.2012
 8286TIP3    H146273   4.583   1.281  16.950 -0.0997 -0.4210 -0.0353
 8286TIP3    H246274   4.548   1.412  16.883  0.2461  1.0309  2.5019
 8287TIP3   OH246275   3.065   0.424  11.275 -0.8099  0.5024  0.2637
 8287TIP3    H146276   3.111   0.414  11.359 -0.5794 -0.0463  0.0768
 8287TIP3    H246277   3.135   0.438  11.211 -0.7555 -1.5513 -0.2166
 8288TIP3   OH246278   3.539   6.591  14.109 -0.4426 -0.0637 -0.3260
 8288TIP3    H146279   3.632   6.612  14.112 -0.6619  0.9635 -0.5789
 8288TIP3    H246280   3.497   6.656  14.165 -1.2728  1.0205 -2.1351
 8289TIP3   OH246281   1.307   5.520  17.300 -0.1727  0.0934 -0.4320
 8289TIP3    H146282   1.212   5.531  17.308 -0.2655 -0.7727 -0.1957
 8289TIP3    H246283   1.331   5.470  17.378  0.4738  0.2662 -0.5196
 8290TIP3   OH246284   3.265   6.200  14.472 -0.2943 -0.7380 -0.4300
 8290TIP3    H146285   3.316   6.146  14.533  0.4846  0.2342 -0.2120
 8290TIP3    H246286   3.261   6.286  14.514 -0.0048 -0.1397 -1.6160
 8291TIP3   OH246287   5.614   5.083   6.077 -0.1971 -0.3146  0.5709
 8291TIP3    H146288   5.682   5.057   6.139  0.2349  0.0391  0.2510
 8291TIP3    H246289   5.535   5.038   6.108  0.2421 -0.9658  0.7694
 8292TIP3   OH246290   3.984   0.956   5.447 -0.4420 -0.3273 -0.6675
 8292TIP3    H146291   3.976   0.981   5.539 -0.2356  0.8440 -0.9485
 8292TIP3    H246292   3.991   0.861   5.448  0.6382 -0.2571  0.6061
 8293TIP3   OH246293   5.355   3.072  13.404  0.3931 -0.3082 -0.7820
 8293TIP3    H146294   5.419   3.140  13.425 -0.1520 -0.3525  1.3226
 8293TIP3    H246295   5.270   3.112  13.424 -0.0081 -1.2039 -0.6202
 8294TIP3   OH246296   1.605   3.387  17.366 -0.2010 -0.0490  0.0192
 8294TIP3    H146297   1.691   3.414  17.396 -0.5906  1.3932 -0.0722
 8294TIP3    H246298   1.600   3.294  17.386  1.6962 -0.3487 -0.7796
 8295TIP3   OH246299   4.438   4.169  11.123 -0.4482  0.1873 -0.6690
 8295TIP3    H146300   4.521   4.163  11.076  0.9433  1.5695  1.4582
 8295TIP3    H246301   4.400   4.252  11.094 -0.1284  0.4992 -0.2045
 8296TIP3   OH246302   4.311   2.937  16.856 -0.3500  0.1154 -0.4822
 8296TIP3    H146303   4.319   2.989  16.937  2.1658 -0.1072 -0.5044
 8296TIP3    H246304   4.225   2.895  16.863 -1.4088  2.2900  0.7198
 8297TIP3   OH246305   2.326   4.260  17.097 -0.0831  0.0315  0.1872
 8297TIP3    H146306   2.416   4.274  17.068  0.2299 -1.5271  0.3490
 8297TIP3    H246307   2.273   4.307  17.033  0.8504  1.8651  0.6743
 8298TIP3   OH246308   1.935   0.504  10.821  0.0131 -0.2441 -0.0540
 8298TIP3    H146309   1.986   0.576  10.858  1.1838 -0.9832 -0.1644
 8298TIP3    H246310   1.847   0.516  10.856 -0.1854  1.9852 -1.1014
 8299TIP3   OH246311   5.923   3.407  16.715 -0.1159  1.2815  0.0303
 8299TIP3    H146312   5.907   3.479  16.654 -0.5898  0.8095 -0.4179
 8299TIP3    H246313   5.851   3.345  16.697 -0.5077  1.3321  1.3547
 8300TIP3   OH246314   3.090   5.317   2.682  0.3109 -0.0598  0.3722
 8300TIP3    H146315   3.060   5.253   2.746 -2.3183  2.0695  1.4890
 8300TIP3    H246316   3.017   5.326   2.621  0.3010  2.1965  0.6122
 8301TIP3   OH246317   4.619   1.242   6.036 -0.5084  0.6199  0.6732
 8301TIP3    H146318   4.554   1.186   6.079 -1.4959  2.5340  1.8106
 8301TIP3    H246319   4.607   1.328   6.076  1.8499  1.3646 -0.0478
 8302TIP3   OH246320   3.142   0.094  17.072  0.1874 -0.0295 -0.2649
 8302TIP3    H146321   3.223   0.046  17.056  1.9690  1.8988  2.1240
 8302TIP3    H246322   3.073   0.038  17.036  2.6329 -0.8374 -4.3589
 8303TIP3   OH246323   2.548   1.460  13.075  0.3625  0.5527  0.4959
 8303TIP3    H146324   2.562   1.404  12.998 -2.0921  0.7325 -0.1779
 8303TIP3    H246325   2.616   1.526  13.070  0.8026  0.0173 -1.0230
 8304TIP3   OH246326   0.956   5.976   5.379 -0.1158 -0.7587 -0.4787
 8304TIP3    H146327   0.956   5.990   5.284  0.3810 -4.7976 -1.2331
 8304TIP3    H246328   1.048   5.964   5.401 -0.2400  0.0565  0.5437
 8305TIP3   OH246329   2.932   1.115  13.210 -0.0919 -0.3245  0.4095
 8305TIP3    H146330   2.976   1.196  13.185  0.4447 -0.7242  0.0205
 8305TIP3    H246331   2.975   1.089  13.291 -0.0293 -0.3938  0.3547
 8306TIP3   OH246332   0.427   6.450  16.812 -0.0436 -0.0046 -0.2119
 8306TIP3    H146333   0.442   6.400  16.732  0.5531  0.6085 -0.4893
 8306TIP3    H246334   0.513   6.456  16.854 -0.1676  0.5244 -0.0285
 8307TIP3   OH246335   1.007   0.118   1.444 -0.1610 -0.1657 -0.2994
 8307TIP3    H146336   0.957   0.037   1.434 -2.6962  1.3575 -0.6800
 8307TIP3    H246337   1.026   0.145   1.354  2.6690 -1.3656 -0.1902
 8308TIP3   OH246338   4.117   5.155  15.132 -0.4260  0.6034 -0.1247
 8308TIP3    H146339   4.050   5.222  15.143  0.6375  1.8203 -0.7597
 8308TIP3    H246340   4.150   5.169  15.043  1.1389  0.4840  0.4183
 8309TIP3   OH246341   6.719   4.813  13.181 -0.1434  0.2866 -0.1745
 8309TIP3    H146342   6.704   4.870  13.256 -1.0433  0.1016 -0.2019
 8309TIP3    H246343   6.668   4.734  13.199  0.1129 -0.0106 -0.7010
 8310TIP3   OH246344   6.005   6.453   5.669  0.4477  0.3774 -0.7812
 8310TIP3    H146345   5.992   6.504   5.590  0.0786 -0.3972 -1.2285
 8310TIP3    H246346   6.015   6.363   5.639 -0.1725  0.0029  0.0825
 8311TIP3   OH246347   4.213   0.454  14.009  0.0655 -0.1543  0.0906
 8311TIP3    H146348   4.145   0.403  13.966 -0.0198 -0.7027  0.8742
 8311TIP3    H246349   4.255   0.502  13.937 -2.0216  1.2901 -0.2723
 8312TIP3   OH246350   2.706   1.218   5.714  0.1101 -0.1383 -0.5868
 8312TIP3    H146351   2.667   1.286   5.660 -1.7250 -1.0890 -0.5313
 8312TIP3    H246352   2.679   1.136   5.673 -2.1374 -0.9376  2.1622
 8313TIP3   OH246353   6.705   4.890  12.723  0.4551  0.1381 -0.0400
 8313TIP3    H146354   6.797   4.890  12.751 -0.0818 -0.7333  1.8888
 8313TIP3    H246355   6.676   4.980  12.738  1.0007  0.4328 -0.7093
 8314TIP3   OH246356   3.248   0.286   0.866 -0.0394  0.4566  1.0040
 8314TIP3    H146357   3.323   0.240   0.905  0.1813  0.7433  0.9228
 8314TIP3    H246358   3.282   0.374   0.847 -0.9376  1.2475  2.8204
 8315TIP3   OH246359   6.702   1.654  13.070 -0.4373 -0.1281 -0.0820
 8315TIP3    H146360   6.633   1.707  13.111 -0.3147  0.2299 -0.3371
 8315TIP3    H246361   6.709   1.688  12.981 -0.3782 -0.5962 -0.2611
 8316TIP3   OH246362   6.557   5.179  15.165  0.5096 -0.1261 -0.9772
 8316TIP3    H146363   6.532   5.266  15.133 -0.1820  0.3467  0.7665
 8316TIP3    H246364   6.482   5.148  15.215  1.0724 -1.3737 -0.8562
 8317TIP3   OH246365   2.963   4.382   2.787 -0.3617  0.1927 -0.1037
 8317TIP3    H146366   3.053   4.352   2.785  0.0873  1.4814 -2.6432
 8317TIP3    H246367   2.932   4.359   2.875  1.6642 -2.3664  0.0542
 8318TIP3   OH246368   2.556   3.590   1.532  0.3231  0.5674  0.1305
 8318TIP3    H146369   2.570   3.616   1.441  1.3874  0.8362  0.3522
 8318TIP3    H246370   2.644   3.583   1.569 -0.0898  1.7216  1.4767
 8319TIP3   OH246371   0.319   5.842   1.356 -0.1931  0.2382 -0.7631
 8319TIP3    H146372   0.339   5.753   1.384 -1.2790  0.6109  1.4304
 8319TIP3    H246373   0.353   5.897   1.427 -2.3615  1.3206 -0.5059
 8320TIP3   OH246374   4.590   0.334   0.356 -0.6262 -0.1314 -0.3427
 8320TIP3    H146375   4.678   0.297   0.364 -0.9130 -0.9870 -1.0932
 8320TIP3    H246376   4.604   0.419   0.315 -0.0174  0.4133  0.9194
 8321TIP3   OH246377   0.081   0.440   1.800 -0.2435  0.9885 -0.0082
 8321TIP3    H146378   0.025   0.406   1.731  0.4100 -1.0873  0.4313
 8321TIP3    H246379   0.028   0.434   1.880  0.4070 -0.6314  0.3444
 8322TIP3   OH246380   5.394   1.168   0.881  0.2992 -0.1004  0.1098
 8322TIP3    H146381   5.483   1.178   0.845  0.4176 -0.0225  0.4164
 8322TIP3    H246382   5.336   1.198   0.811  0.6032  1.9012  0.6272
 8323TIP3   OH246383   4.972   1.859   4.918 -0.1676  0.5466 -0.4762
 8323TIP3    H146384   4.998   1.846   4.827 -0.0487 -0.4309 -0.3126
 8323TIP3    H246385   5.004   1.947   4.940 -1.4939  1.4116 -1.8020
 8324TIP3   OH246386   4.864   1.629   5.851 -0.2502  0.1713  0.2959
 8324TIP3    H146387   4.858   1.722   5.873 -1.5832 -0.3324  2.4476
 8324TIP3    H246388   4.773   1.603   5.837  0.2131 -0.5731 -1.5336
 8325TIP3   OH246389   3.887   6.156   5.136  0.5239 -0.2031  0.0302
 8325TIP3    H146390   3.819   6.189   5.195  0.0176 -0.7387 -0.2426
 8325TIP3    H246391   3.969   6.186   5.175  0.1712 -0.1596  0.7564
 8326TIP3   OH246392   4.713   5.095  15.202  0.0734 -0.4716  0.4316
 8326TIP3    H146393   4.708   5.068  15.294 -2.6129 -2.4272 -0.1533
 8326TIP3    H246394   4.790   5.050  15.168  1.6852  1.0523  1.8783
 8327TIP3   OH246395   1.442   6.402  12.320 -0.2470  0.2946  0.1935
 8327TIP3    H146396   1.517   6.437  12.368  0.7051 -0.1677 -0.9095
 8327TIP3    H246397   1.378   6.474  12.320  0.5321  0.9964  0.4205
 8328TIP3   OH246398   0.817   1.185  12.387 -0.3703  0.5910 -0.1983
 8328TIP3    H146399   0.831   1.215  12.477  2.7383 -0.9515 -0.0522
 8328TIP3    H246400   0.841   1.260  12.332  0.3540  0.6635  0.2157
 8329TIP3   OH246401   0.674   3.912   0.719  0.2341  0.1891 -0.2398
 8329TIP3    H146402   0.616   3.845   0.684  2.4405 -2.5004  0.8572
 8329TIP3    H246403   0.629   3.942   0.799  0.6430 -2.5792  1.1678
 8330TIP3   OH246404   1.108   5.374  15.070  0.3704  0.1728 -1.0560
 8330TIP3    H146405   1.109   5.435  14.996  1.6012  0.6402 -0.6945
 8330TIP3    H246406   1.198   5.375  15.103  0.1544 -1.0255 -0.3581
 8331TIP3   OH246407   2.129   3.709  14.017  0.5726 -0.4297  0.0267
 8331TIP3    H146408   2.094   3.665  14.094  0.8847 -0.6511  0.0441
 8331TIP3    H246409   2.221   3.726  14.038  0.4879  0.1227 -0.0292
 8332TIP3   OH246410   6.541   0.087  13.427  0.0567 -0.0708  0.0873
 8332TIP3    H146411   6.505   0.050  13.508 -1.1824  0.0335 -0.3890
 8332TIP3    H246412   6.635   0.076  13.435  0.1033  1.4087  2.2760
 8333TIP3   OH246413   1.831   4.894   3.660  0.2526 -0.0667 -0.3780
 8333TIP3    H146414   1.823   4.798   3.659  0.4219 -0.0898  0.2046
 8333TIP3    H246415   1.868   4.914   3.746 -0.0021  0.5407 -0.4045
 8334TIP3   OH246416   2.554   6.035   5.932 -0.4040 -0.1688 -0.3838
 8334TIP3    H146417   2.535   5.946   5.904 -1.5182 -0.4577  1.1843
 8334TIP3    H246418   2.613   6.069   5.864 -1.0445 -1.6145 -1.7434
 8335TIP3   OH246419   1.711   2.892   2.481  0.5545  0.5651 -0.9517
 8335TIP3    H146420   1.647   2.943   2.432  0.4060  0.7138 -0.6071
 8335TIP3    H246421   1.774   2.957   2.513  0.2450  0.5601 -0.3296
 8336TIP3   OH246422   0.885   1.018   5.464 -0.2951 -0.2792 -0.1834
 8336TIP3    H146423   0.974   0.985   5.477 -0.5626 -0.9702 -0.0763
 8336TIP3    H246424   0.831   0.969   5.526 -1.0725 -1.3535 -1.6413
 8337TIP3   OH246425   0.736   2.934   2.585  0.4633 -0.1147  0.0098
 8337TIP3    H146426   0.722   2.879   2.507 -0.2362  0.7820 -0.5151
 8337TIP3    H246427   0.783   3.011   2.551  0.4332  0.1336  0.5303
 8338TIP3   OH246428   5.163   5.491   6.270 -0.4001 -0.2962  0.1415
 8338TIP3    H146429   5.239   5.433   6.263 -0.2122 -0.0510  0.1429
 8338TIP3    H246430   5.200   5.578   6.280 -0.6609  0.1122 -1.9967
 8339TIP3   OH246431   2.264   6.547  16.898  0.4353 -0.3141  0.5985
 8339TIP3    H146432   2.346   6.580  16.933  0.8873  0.0945 -0.7789
 8339TIP3    H246433   2.271   6.559  16.803 -1.2902 -0.0915  0.4595
 8340TIP3   OH246434   3.748   2.406   3.847 -0.5251 -0.3122  0.0974
 8340TIP3    H146435   3.740   2.344   3.775 -0.5127  0.0544 -0.2212
 8340TIP3    H246436   3.803   2.476   3.813  0.2123 -0.5583  0.7530
 8341TIP3   OH246437   2.446   5.708   2.788  0.0419  0.1053  0.4543
 8341TIP3    H146438   2.412   5.642   2.727 -1.4628  1.4312 -0.2135
 8341TIP3    H246439   2.424   5.792   2.747  1.5762  1.0456  1.4578
 8342TIP3   OH246440   3.079   2.483   0.052 -0.0938 -0.3690  0.0619
 8342TIP3    H146441   3.076   2.538  -0.026  0.2856  0.8280  0.8676
 8342TIP3    H246442   3.087   2.544   0.125  0.0516 -1.4789  1.0154
 8343TIP3   OH246443   4.638   2.667  13.492 -0.1039  0.0678 -0.1412
 8343TIP3    H146444   4.614   2.733  13.557 -0.8011  0.7905 -1.1012
 8343TIP3    H246445   4.732   2.653  13.505  0.3035  2.0582 -0.6033
 8344TIP3   OH246446   3.003   3.755  12.752  0.3032 -0.2589 -0.5097
 8344TIP3    H146447   3.045   3.676  12.786  0.5393  0.1700  0.2321
 8344TIP3    H246448   3.007   3.817  12.826 -0.8507  0.0787 -0.7175
 8345TIP3   OH246449   1.539   3.476  12.936 -0.1149 -0.1075  0.0353
 8345TIP3    H146450   1.609   3.520  12.887 -0.4847  2.6231  1.7477
 8345TIP3    H246451   1.466   3.471  12.875  0.5158  0.0068 -0.7479
 8346TIP3   OH246452   5.832   6.171  11.230  0.2729  0.5759  0.3861
 8346TIP3    H146453   5.885   6.190  11.153  0.6169  2.2371  0.9767
 8346TIP3    H246454   5.754   6.225  11.219  0.4063  0.9706  1.2705
 8347TIP3   OH246455   0.198   0.814  16.258 -0.0228  0.0698 -0.9601
 8347TIP3    H146456   0.157   0.747  16.312  1.2857  0.5215  0.6870
 8347TIP3    H246457   0.207   0.890  16.316  0.6632  0.8813 -2.0658
 8348TIP3   OH246458   5.365   5.937   5.357 -0.3724 -0.3252 -0.5757
 8348TIP3    H146459   5.386   5.997   5.285 -2.1246 -1.3008 -1.9821
 8348TIP3    H246460   5.446   5.930   5.407  0.2165  2.3105 -0.9823
 8349TIP3   OH246461   0.861   6.577   5.171  0.1847  0.8200  0.4038
 8349TIP3    H146462   0.953   6.563   5.193 -0.1242 -1.4250  0.5056
 8349TIP3    H246463   0.822   6.611   5.252  0.6540  0.4626  0.7841
 8350TIP3   OH246464   6.296   2.706   1.772  0.6433 -1.1113 -0.2424
 8350TIP3    H146465   6.290   2.752   1.688 -1.8674  1.4461  1.1831
 8350TIP3    H246466   6.380   2.659   1.767  2.6804  2.3230 -2.5095
 8351TIP3   OH246467   4.082   1.862   0.224 -0.1348  0.5060  0.3429
 8351TIP3    H146468   4.099   1.903   0.308 -0.8518  2.4623 -0.4186
 8351TIP3    H246469   4.015   1.916   0.183 -0.3231 -0.8000 -1.1995
 8352TIP3   OH246470   5.160   0.476  14.068 -0.1977 -0.2466 -0.3404
 8352TIP3    H146471   5.249   0.512  14.064 -0.4537  0.2595 -1.7996
 8352TIP3    H246472   5.163   0.400  14.010 -0.5447 -0.6714  0.1847
 8353TIP3   OH246473   3.533   1.963   4.731 -0.2158 -0.0223 -0.4079
 8353TIP3    H146474   3.473   2.029   4.766 -1.4152 -1.1992 -0.1599
 8353TIP3    H246475   3.571   1.921   4.808  0.1627  0.0363 -0.5595
 8354TIP3   OH246476   3.512   2.556  14.188  0.0412 -0.0359 -0.1604
 8354TIP3    H146477   3.602   2.528  14.169  0.1748 -0.6100  1.2094
 8354TIP3    H246478   3.505   2.642  14.146  1.3278  0.1516 -0.0502
 8355TIP3   OH246479   0.803   5.255  13.044  0.3525 -0.0624  0.2330
 8355TIP3    H146480   0.716   5.250  13.083 -0.2425  0.1628 -0.9904
 8355TIP3    H246481   0.787   5.287  12.955  1.6690 -0.2203 -0.0833
 8356TIP3   OH246482   5.443   3.038  16.011  0.0906  0.0466  0.0109
 8356TIP3    H146483   5.406   3.112  15.962  1.6380  1.4225  0.8183
 8356TIP3    H246484   5.459   2.971  15.944 -0.0481  0.9766 -0.9877
 8357TIP3   OH246485   0.695   6.391  17.316  0.5432 -0.5879 -0.2550
 8357TIP3    H146486   0.665   6.301  17.307 -0.7008 -0.1352 -0.9476
 8357TIP3    H246487   0.614   6.443  17.316  1.2748  0.5876 -0.7626
 8358TIP3   OH246488   2.316   6.645   5.367 -0.1125  1.1244 -0.3378
 8358TIP3    H146489   2.246   6.581   5.352  1.5332 -0.6906 -0.6666
 8358TIP3    H246490   2.396   6.592   5.371  1.7241  3.3562 -3.3029
 8359TIP3   OH246491   2.115   6.023  13.667 -0.0876  0.2340  0.2151
 8359TIP3    H146492   2.100   5.930  13.682 -0.1187  0.0378 -0.9933
 8359TIP3    H246493   2.036   6.066  13.699  0.0393 -0.1125  1.0336
 8360TIP3   OH246494   5.431   3.627  15.911  0.6758  0.1476  0.5460
 8360TIP3    H146495   5.422   3.541  15.871 -0.1346 -0.0134  1.0486
 8360TIP3    H246496   5.342   3.661  15.916  1.0980  1.5600 -0.7984
 8361TIP3   OH246497   2.927   4.999  12.556  0.1412 -0.2135  0.2658
 8361TIP3    H146498   2.950   4.945  12.632 -1.8301 -0.5918  0.6663
 8361TIP3    H246499   2.945   4.943  12.480 -1.2886 -1.2506  0.6481
 8362TIP3   OH246500   5.744   4.348   2.900  0.3650  0.1443 -0.2918
 8362TIP3    H146501   5.792   4.384   2.825  0.6306  0.3733 -0.0177
 8362TIP3    H246502   5.738   4.422   2.961 -1.3417  0.4497 -0.7942
 8363TIP3   OH246503   6.414   1.870   1.706 -0.1561 -0.0254 -0.2671
 8363TIP3    H146504   6.456   1.893   1.623  0.3349  1.5058  0.3631
 8363TIP3    H246505   6.483   1.831   1.759  0.0801  0.9717  0.1763
 8364TIP3   OH246506   2.557   5.983   0.738 -0.0656 -0.0008 -0.2068
 8364TIP3    H146507   2.514   5.977   0.653 -0.2653  1.1027 -0.2012
 8364TIP3    H246508   2.606   6.065   0.734  1.5870 -0.9285  0.0010
 8365TIP3   OH246509   3.580   1.341  17.043  0.0435 -0.3068 -0.5721
 8365TIP3    H146510   3.498   1.391  17.040 -0.6885 -1.4399 -0.0022
 8365TIP3    H246511   3.647   1.405  17.017 -0.8864  0.8956 -0.1409
 8366TIP3   OH246512   6.273   1.346   0.721  0.7146  0.1437 -0.2058
 8366TIP3    H146513   6.253   1.438   0.738  0.6956  0.1978 -0.5085
 8366TIP3    H246514   6.328   1.347   0.643  1.8259 -0.0215  0.5611
 8367TIP3   OH246515   4.606   5.838  16.184  0.4202  0.3134 -0.1036
 8367TIP3    H146516   4.563   5.898  16.244 -0.7856  1.3587 -1.9013
 8367TIP3    H246517   4.654   5.894  16.123  0.2668 -0.5890 -1.0941
 8368TIP3   OH246518   2.873   4.754  13.544  0.1547 -0.0960  0.0893
 8368TIP3    H146519   2.939   4.790  13.485 -1.9574  2.6358 -0.8152
 8368TIP3    H246520   2.801   4.727  13.486 -1.5846  1.7789  1.2413
 8369TIP3   OH246521   0.207   6.730   1.388 -0.0157  0.3814  0.2178
 8369TIP3    H146522   0.164   6.810   1.359 -0.1016  0.5299  0.7497
 8369TIP3    H246523   0.267   6.759   1.457 -2.0608 -0.3402  2.4300
 8370TIP3   OH246524   5.773   1.820  13.982  0.7838  0.3579  0.8376
 8370TIP3    H146525   5.738   1.849  14.066  0.3720 -0.7735  1.0726
 8370TIP3    H246526   5.776   1.724  13.989 -0.4756  0.1493 -0.8938
 8371TIP3   OH246527   3.002   5.358  13.160 -0.4223 -0.0201 -0.2932
 8371TIP3    H146528   2.914   5.333  13.188 -0.2640  0.9320  1.1619
 8371TIP3    H246529   3.023   5.435  13.213  0.4805  1.0432 -2.0924
 8372TIP3   OH246530   3.592   0.976   1.618  0.3580  0.2825  0.0680
 8372TIP3    H146531   3.652   0.925   1.564 -1.0589 -0.7631 -0.5862
 8372TIP3    H246532   3.546   1.033   1.555  0.7408  1.1755  0.5758
 8373TIP3   OH246533   5.901   1.047   3.367 -0.1976 -0.2837 -0.4570
 8373TIP3    H146534   5.895   1.065   3.273  1.0275 -0.1156 -0.5105
 8373TIP3    H246535   5.813   1.066   3.400  0.0853  2.5863 -1.0810
 8374TIP3   OH246536   0.483   0.090  16.786 -0.2706 -0.4511 -0.1050
 8374TIP3    H146537   0.443   0.177  16.790  2.1743  0.7278  0.8986
 8374TIP3    H246538   0.444   0.042  16.859 -1.0792  0.0335 -0.2022
 8375TIP3   OH246539   4.600   1.611  15.639 -0.4003  0.0638 -0.3871
 8375TIP3    H146540   4.564   1.628  15.552 -1.0821 -0.4090 -0.2079
 8375TIP3    H246541   4.646   1.528  15.629  0.7461  0.7000 -0.6323
 8376TIP3   OH246542   0.224   2.867   4.306  0.2239  0.0632 -1.2988
 8376TIP3    H146543   0.188   2.888   4.392  1.3502 -0.7686 -0.5937
 8376TIP3    H246544   0.148   2.857   4.249 -0.5229  0.8973 -0.4646
 8377TIP3   OH246545   5.530   0.044  14.891 -0.1237 -0.4903  0.1504
 8377TIP3    H146546   5.616   0.044  14.849 -0.9285 -0.9457 -1.5987
 8377TIP3    H246547   5.518  -0.047  14.918  0.2436 -0.2705  1.0855
 8378TIP3   OH246548   1.354   4.376  12.570 -0.2846 -0.2958 -0.6583
 8378TIP3    H146549   1.333   4.464  12.538  2.0377  1.3944  2.0622
 8378TIP3    H246550   1.449   4.372  12.568 -0.2639 -2.0110  1.1177
 8379TIP3   OH246551   0.505   0.691   2.982  0.1364  0.7411  0.2507
 8379TIP3    H146552   0.555   0.703   3.063 -0.5387 -1.1762  1.0081
 8379TIP3    H246553   0.571   0.666   2.917  0.2556 -1.8772  1.2639
 8380TIP3   OH246554   6.361   4.211   5.515 -0.3592 -0.3695 -0.3089
 8380TIP3    H146555   6.432   4.154   5.485 -0.5592 -0.3193 -0.8970
 8380TIP3    H246556   6.286   4.186   5.460 -0.0422  1.5305 -1.6618
 8381TIP3   OH246557   4.381   2.475   5.130  0.9037  0.0876 -0.1938
 8381TIP3    H146558   4.308   2.532   5.153  0.7658 -0.2430  0.1958
 8381TIP3    H246559   4.421   2.517   5.054 -1.2926 -1.1203 -2.1396
 8382TIP3   OH246560   3.211   5.833   3.617 -0.0643 -0.2403  0.1941
 8382TIP3    H146561   3.264   5.772   3.668  0.2699  0.5265  0.7813
 8382TIP3    H246562   3.257   5.917   3.624 -2.2953  0.9337  2.3036
 8383TIP3   OH246563   2.489   3.093   1.420  0.2092  0.4846 -0.0967
 8383TIP3    H146564   2.405   3.067   1.456 -0.3712  1.9821 -0.2978
 8383TIP3    H246565   2.543   3.111   1.497  0.7567 -1.5580  0.0576
 8384TIP3   OH246566   2.080   1.886   5.830  0.0702  0.3744  0.4302
 8384TIP3    H146567   2.085   1.792   5.847  0.5432  0.0843 -1.1732
 8384TIP3    H246568   1.995   1.912   5.866  0.1858 -0.5407  1.4206
 8385TIP3   OH246569   5.254   1.034  16.382 -0.4476 -0.2226 -0.3296
 8385TIP3    H146570   5.159   1.021  16.383 -0.3891 -0.8132  1.8175
 8385TIP3    H246571   5.291   0.946  16.390  0.3536 -0.1240 -2.3305
 8386TIP3   OH246572   1.372   2.309   0.411  0.5665  0.1408 -0.0786
 8386TIP3    H146573   1.408   2.397   0.402  0.4725  0.2890  0.8780
 8386TIP3    H246574   1.364   2.296   0.506  2.7210 -1.7764 -0.0794
 8387TIP3   OH246575   3.177   4.200  13.574  0.5748 -0.1224  0.2677
 8387TIP3    H146576   3.193   4.238  13.660 -0.1208  0.1362  0.2885
 8387TIP3    H246577   3.123   4.123  13.592 -0.1409  0.3118  0.0130
 8388TIP3   OH246578   1.160   6.459  15.692 -0.3900 -0.8548 -0.2722
 8388TIP3    H146579   1.066   6.446  15.679 -0.3241 -1.8214  0.1363
 8388TIP3    H246580   1.199   6.373  15.679  0.0714 -1.2049  2.6718
 8389TIP3   OH246581   0.372   3.000  16.750 -0.3736 -0.6725  0.1497
 8389TIP3    H146582   0.399   3.034  16.835 -2.0807  0.4210  0.2987
 8389TIP3    H246583   0.444   3.024  16.691  0.4511 -0.7085  1.1176
 8390TIP3   OH246584   6.725   3.219  16.007  0.0399  0.6086 -0.1179
 8390TIP3    H146585   6.818   3.243  16.006  0.5389 -1.1587 -0.8869
 8390TIP3    H246586   6.693   3.247  16.092  1.3269  1.1375  0.2055
 8391TIP3   OH246587   5.586   2.948  13.153 -0.5572 -0.1962  0.2839
 8391TIP3    H146588   5.583   2.874  13.214  0.6302 -1.8983 -1.5911
 8391TIP3    H246589   5.495   2.959  13.125 -0.8730 -0.3991  1.2046
 8392TIP3   OH246590   4.435   0.615  16.098  0.2094  0.1323 -0.0908
 8392TIP3    H146591   4.463   0.685  16.039  0.6910  1.0743  1.1930
 8392TIP3    H246592   4.516   0.588  16.143 -0.0426 -0.9682 -0.2702
 8393TIP3   OH246593   2.662   3.813  12.529  0.2854 -0.3403 -0.5285
 8393TIP3    H146594   2.755   3.830  12.517  0.4457  0.0245  1.0711
 8393TIP3    H246595   2.657   3.719  12.546  0.2604 -0.4972 -1.3385
 8394TIP3   OH246596   1.809   1.952   5.763 -0.3126  0.1952 -0.0204
 8394TIP3    H146597   1.740   2.017   5.774 -0.6042  0.4782 -2.8640
 8394TIP3    H246598   1.806   1.929   5.670  0.6087 -3.0057  0.6352
 8395TIP3   OH246599   1.853   4.908  16.774 -0.3308  0.4672  0.4008
 8395TIP3    H146600   1.769   4.951  16.792 -0.7325  0.0471 -0.4459
 8395TIP3    H246601   1.897   4.906  16.860 -0.2311  2.6613  0.4551
 8396TIP3   OH246602   5.844   6.665  11.588 -0.0006 -1.0000 -0.0353
 8396TIP3    H146603   5.778   6.610  11.545  0.8230 -1.2320 -1.0437
 8396TIP3    H246604   5.919   6.664  11.528  0.3675  0.4975  0.3563
 8397TIP3   OH246605   1.067   3.975   3.931  0.2985 -0.2217  0.1128
 8397TIP3    H146606   1.053   4.002   3.840  0.9337  0.6539  0.2549
 8397TIP3    H246607   1.149   4.017   3.956  0.2285 -0.5997  1.0403
 8398TIP3   OH246608   1.684   1.493  14.299  0.5408  0.8426  0.1713
 8398TIP3    H146609   1.652   1.458  14.383 -1.8349  0.9596 -0.6177
 8398TIP3    H246610   1.723   1.417  14.255 -1.0477  0.0136  0.1072
 8399TIP3   OH246611   2.863   3.229  14.849  0.0002 -0.2886 -0.3112
 8399TIP3    H146612   2.810   3.277  14.912  0.2072 -0.8325  0.2848
 8399TIP3    H246613   2.800   3.177  14.799 -0.2594  0.7879 -1.1581
 8400TIP3   OH246614   3.549   0.266  16.279  0.0283 -0.0822  0.1793
 8400TIP3    H146615   3.580   0.177  16.290 -0.2573 -0.2281 -0.1383
 8400TIP3    H246616   3.518   0.292  16.365 -0.8346 -0.6652  0.0590
 8401TIP3   OH246617   2.648   0.439   3.846 -0.7477  0.3977 -0.2587
 8401TIP3    H146618   2.713   0.468   3.783  0.1587  0.1186  0.5160
 8401TIP3    H246619   2.622   0.519   3.892  2.0663  0.1025  2.1724
 8402TIP3   OH246620   5.742   6.684   1.041  0.1917  0.1580 -0.4583
 8402TIP3    H146621   5.755   6.701   0.948 -0.1162  0.1713 -0.4991
 8402TIP3    H246622   5.647   6.683   1.053  0.2049  2.5034  0.2808
 8403TIP3   OH246623   5.808   3.399  14.254  0.0440  0.5238  0.1745
 8403TIP3    H146624   5.740   3.430  14.315 -0.4394 -0.0452 -0.0593
 8403TIP3    H246625   5.821   3.307  14.278  0.4044  0.5063 -0.0856
 8404TIP3   OH246626   0.214   5.902   2.525 -0.2509  0.4102 -0.0951
 8404TIP3    H146627   0.235   5.994   2.539 -0.4467  0.1110  2.6320
 8404TIP3    H246628   0.271   5.855   2.586 -1.2280 -1.1768 -0.3448
 8405TIP3   OH246629   5.650   5.257  14.785  0.2950  0.2957  0.1365
 8405TIP3    H146630   5.742   5.239  14.801 -0.1138 -1.4640  0.7064
 8405TIP3    H246631   5.641   5.253  14.689  0.9904  1.6335 -0.0156
 8406TIP3   OH246632   5.938   4.980  16.069 -0.1406  0.0911  0.4989
 8406TIP3    H146633   5.856   4.989  16.020  0.9079  1.8570 -1.0749
 8406TIP3    H246634   5.957   5.068  16.101  0.5810 -0.5174  1.8471
 8407TIP3   OH246635   4.792   0.284   3.220 -0.2223 -0.3167  0.1332
 8407TIP3    H146636   4.816   0.284   3.313  2.2705 -1.3909 -0.4293
 8407TIP3    H246637   4.806   0.375   3.193 -0.3053 -0.1423  0.6506
 8408TIP3   OH246638   5.705   1.156  11.341  0.3922 -1.0641 -0.1466
 8408TIP3    H146639   5.615   1.141  11.369  0.4780 -2.3706 -0.5377
 8408TIP3    H246640   5.706   1.135  11.248  1.2500 -1.7904  0.0116
 8409TIP3   OH246641   2.444   6.749  12.521 -0.0511 -0.3950 -0.5463
 8409TIP3    H146642   2.373   6.723  12.579  1.6641 -1.1367  1.3443
 8409TIP3    H246643   2.436   6.844  12.513 -0.5057 -0.3088  0.6928
 8410TIP3   OH246644   5.724   5.291   2.328 -0.6739  0.3199  0.1242
 8410TIP3    H146645   5.753   5.240   2.252 -0.5217  0.7288 -0.0951
 8410TIP3    H246646   5.797   5.285   2.390 -0.5304  0.5275 -0.0260
 8411TIP3   OH246647   6.248   6.083  11.312  0.0066  0.3941  0.2962
 8411TIP3    H146648   6.248   6.027  11.389  3.6949 -2.8698 -1.7068
 8411TIP3    H246649   6.224   6.024  11.240  0.3767  2.3133 -1.4835
 8412TIP3   OH246650   6.699   0.434   2.954  0.3636 -0.5136 -0.0870
 8412TIP3    H146651   6.762   0.487   2.905 -0.3112  0.7029  0.3285
 8412TIP3    H246652   6.707   0.346   2.916  0.2483  0.2521 -1.9947
 8413TIP3   OH246653   2.456   0.839  11.363 -0.3187 -0.1104 -0.4086
 8413TIP3    H146654   2.472   0.747  11.341 -2.2264 -0.7538  0.5541
 8413TIP3    H246655   2.447   0.883  11.279 -0.2447 -0.9922 -0.8952
 8414TIP3   OH246656   4.823   0.123  15.242 -0.2805 -0.3755  0.7762
 8414TIP3    H146657   4.780   0.038  15.251  0.7456 -0.9769  0.2041
 8414TIP3    H246658   4.912   0.109  15.275 -0.7356  1.1012  2.8817
 8415TIP3   OH246659   4.290   6.379  14.843 -0.3823  0.4809  0.1886
 8415TIP3    H146660   4.321   6.297  14.803  0.0472  1.2835 -1.2260
 8415TIP3    H246661   4.212   6.354  14.893  0.9327 -1.1357  1.5556
 8416TIP3   OH246662   0.788   0.603  16.544 -0.1109  0.0570  0.1673
 8416TIP3    H146663   0.720   0.627  16.481 -0.6508 -0.4658  0.5405
 8416TIP3    H246664   0.817   0.516  16.516  0.0892  0.0901  0.2727
 8417TIP3   OH246665   4.154   6.706   6.004 -0.9163  0.2343 -0.1570
 8417TIP3    H146666   4.242   6.740   6.018 -0.6934 -0.1440 -0.6365
 8417TIP3    H246667   4.134   6.657   6.083 -0.9854  0.9334  0.2655
 8418TIP3   OH246668   4.868   2.743  13.260  0.3053  0.6977  0.3280
 8418TIP3    H146669   4.886   2.673  13.322 -1.5704  0.3009  0.4853
 8418TIP3    H246670   4.954   2.778  13.237  1.1852 -0.7667  1.2619
 8419TIP3   OH246671   1.998   3.438  16.855 -0.2646  0.4360 -0.2702
 8419TIP3    H146672   1.997   3.395  16.940 -1.0666 -0.4513 -0.7100
 8419TIP3    H246673   1.984   3.367  16.792  0.9937  0.9682 -1.2036
 8420TIP3   OH246674   4.233   2.651  16.726  0.0715 -0.3513 -0.2164
 8420TIP3    H146675   4.230   2.577  16.665  0.8555 -0.0431 -0.6416
 8420TIP3    H246676   4.320   2.689  16.713  0.0903 -0.0295  0.8048
 8421TIP3   OH246677   0.813   2.103  12.434 -0.0262  0.0648 -0.0120
 8421TIP3    H146678   0.888   2.127  12.489 -0.8841 -1.0159  1.7078
 8421TIP3    H246679   0.851   2.090  12.347  1.7727 -0.3829  0.7883
 8422TIP3   OH246680   0.250   4.777   0.792 -0.0302  0.1579  0.4897
 8422TIP3    H146681   0.255   4.684   0.768  0.3935  0.2170  0.3494
 8422TIP3    H246682   0.274   4.824   0.712  0.4590  0.3741  0.7603
 8423TIP3   OH246683   2.169   1.162   3.544  0.1505 -0.4302 -0.5101
 8423TIP3    H146684   2.250   1.183   3.496 -0.8538 -0.5995 -2.3820
 8423TIP3    H246685   2.166   1.066   3.543 -0.6984 -0.4042 -1.5913
 8424TIP3   OH246686   2.270   5.317   0.509  0.2371 -0.3903  0.3646
 8424TIP3    H146687   2.293   5.246   0.450  0.5054  0.3221 -0.4140
 8424TIP3    H246688   2.245   5.274   0.590  0.2022 -1.3736 -0.1548
 8425TIP3   OH246689   0.426   0.070   5.912  0.0397 -0.4673 -0.0488
 8425TIP3    H146690   0.454   0.103   5.998 -0.1850 -1.4917  0.4435
 8425TIP3    H246691   0.503   0.024   5.878  0.2594  0.2960 -0.5893
 8426TIP3   OH246692   2.808   1.555  17.054 -0.5017 -0.0355  0.4440
 8426TIP3    H146693   2.862   1.618  17.102 -0.1996 -0.5179  0.7527
 8426TIP3    H246694   2.785   1.489  17.119  1.0173 -1.4144 -0.3241
 8427TIP3   OH246695   3.325   1.249  16.132  0.0674 -0.4172 -0.1221
 8427TIP3    H146696   3.410   1.284  16.159 -0.6700  0.9941  0.5058
 8427TIP3    H246697   3.263   1.320  16.151 -1.4799 -1.9507  0.9335
 8428TIP3   OH246698   2.796   1.848   5.429 -0.4096  0.0575  0.0331
 8428TIP3    H146699   2.794   1.902   5.350 -0.2790  1.4334  0.9236
 8428TIP3    H246700   2.823   1.761   5.399  2.9674  1.3051 -1.0415
 8429TIP3   OH246701   4.948   6.274   2.079 -0.5305  0.3638  0.3454
 8429TIP3    H146702   5.033   6.277   2.122  0.2790 -2.1714 -0.8606
 8429TIP3    H246703   4.899   6.208   2.130 -0.5866 -0.5315 -0.8282
 8430TIP3   OH246704   1.951   5.877   6.191 -0.0064  0.1354  0.1483
 8430TIP3    H146705   1.870   5.858   6.145  1.0970 -1.8001 -1.0944
 8430TIP3    H246706   1.939   5.838   6.278 -0.4930  0.0732  0.0543
 8431TIP3   OH246707   5.476   3.242  16.805  0.0005 -0.3335 -0.0494
 8431TIP3    H146708   5.396   3.267  16.851  0.0235  0.5060 -0.4536
 8431TIP3    H246709   5.449   3.172  16.745 -0.3619 -0.2683  0.0369
 8432TIP3   OH246710   5.318   2.228  16.192  0.0345 -0.3112 -0.0791
 8432TIP3    H146711   5.236   2.183  16.171  0.0204 -0.4734  0.3276
 8432TIP3    H246712   5.293   2.320  16.199 -0.3367 -0.4957  1.1915
 8433TIP3   OH246713   4.501   0.262  11.817  0.0520 -0.1519  0.6458
 8433TIP3    H146714   4.588   0.265  11.859  0.8852  0.5457 -1.0337
 8433TIP3    H246715   4.447   0.213  11.878  1.9924 -1.8278  1.1336
 8434TIP3   OH246716   5.275   2.047  10.854 -0.2435 -0.2694 -0.5614
 8434TIP3    H146717   5.344   2.024  10.792  0.3973 -0.9312  0.3691
 8434TIP3    H246718   5.222   2.112  10.808  0.7908 -0.0103 -1.4272
 8435TIP3   OH246719   2.049   2.999   4.735  0.6972  0.2167 -0.0009
 8435TIP3    H146720   2.080   3.018   4.823 -1.5221 -1.2015  1.1684
 8435TIP3    H246721   2.089   2.914   4.713 -0.6420 -0.6331  0.6969
 8436TIP3   OH246722   6.679   3.014   2.131 -0.2485  0.0340  0.0562
 8436TIP3    H146723   6.641   2.974   2.053  0.2338 -0.2773 -0.0173
 8436TIP3    H246724   6.717   3.096   2.100  1.4673 -0.8756 -0.3848
 8437TIP3   OH246725   5.297   1.653  14.226 -0.5088 -0.2552 -0.4403
 8437TIP3    H146726   5.300   1.732  14.172  0.4760  1.0466  1.4304
 8437TIP3    H246727   5.206   1.645  14.252 -0.5115  0.6997 -0.0923
 8438TIP3   OH246728   3.981   4.028  13.904 -0.3928  0.4881 -0.6274
 8438TIP3    H146729   3.955   4.098  13.844 -1.4210  0.3464 -0.3709
 8438TIP3    H246730   4.020   3.961  13.848  1.2562  1.5449 -0.7935
 8439TIP3   OH246731   5.081   2.547  13.289  0.7461  0.1969  0.4824
 8439TIP3    H146732   5.117   2.606  13.355  0.6833  0.2407  0.4782
 8439TIP3    H246733   5.152   2.487  13.269  0.5830 -0.1864  1.0280
 8440TIP3   OH246734   4.512   3.806   2.990 -0.4116 -0.1458  0.6117
 8440TIP3    H146735   4.518   3.713   3.014 -1.2671 -0.2411  0.4576
 8440TIP3    H246736   4.440   3.811   2.929  0.8788  0.3177 -0.9412
 8441TIP3   OH246737   1.338   3.761   2.250  0.2060 -0.0826 -0.0998
 8441TIP3    H146738   1.279   3.812   2.193  0.0732 -0.4904 -0.3308
 8441TIP3    H246739   1.351   3.679   2.203 -0.8404 -0.9077  0.9879
 8442TIP3   OH246740   1.187   5.168  16.413  0.2044  0.2623 -0.1566
 8442TIP3    H146741   1.099   5.135  16.429 -0.1933  0.8332 -1.1437
 8442TIP3    H246742   1.243   5.113  16.469 -0.7624 -0.0817  0.5028
 8443TIP3   OH246743   3.229   2.465   5.751  0.2752  0.6555 -0.1009
 8443TIP3    H146744   3.179   2.390   5.718 -1.4818  0.8785  1.8495
 8443TIP3    H246745   3.177   2.541   5.725  0.7618  1.0454  0.0518
 8444TIP3   OH246746   2.352   3.024   1.873 -0.5362 -0.1122  0.1735
 8444TIP3    H146747   2.314   3.012   1.960 -2.6073  2.7647 -0.1776
 8444TIP3    H246748   2.354   3.119   1.861  2.7811 -0.2623 -1.7009
 8445TIP3   OH246749   2.121   1.242  14.723 -0.4251 -0.6208 -0.0900
 8445TIP3    H146750   2.115   1.226  14.817 -2.5122  0.4643  0.0137
 8445TIP3    H246751   2.041   1.203  14.687 -1.6778  2.3287 -0.8257
 8446TIP3   OH246752   1.174   4.069  12.817 -0.2230 -0.5004 -0.5554
 8446TIP3    H146753   1.132   4.054  12.733  1.4209  1.6215 -1.8608
 8446TIP3    H246754   1.103   4.095  12.876 -1.0724  0.5278 -1.9885
 8447TIP3   OH246755   5.849   0.122   4.916 -0.3596 -0.4077  0.4772
 8447TIP3    H146756   5.793   0.082   4.982  0.7011 -2.4462  0.2255
 8447TIP3    H246757   5.788   0.160   4.853 -1.4509 -1.6480  0.7438
 8448TIP3   OH246758   6.224   1.384  13.429  0.1457 -0.0053 -0.4612
 8448TIP3    H146759   6.272   1.377  13.346  0.9917  0.0454  0.0042
 8448TIP3    H246760   6.235   1.476  13.455 -2.1121  0.5942 -1.4337
 8449TIP3   OH246761   1.803   0.554   3.789  0.6480  0.4079  0.1370
 8449TIP3    H146762   1.766   0.576   3.703  1.7380  0.7934 -0.2588
 8449TIP3    H246763   1.827   0.461   3.781 -1.0976 -0.1227  0.7363
 8450TIP3   OH246764   1.616   1.181  15.591  0.0319  1.2389  0.4230
 8450TIP3    H146765   1.640   1.254  15.648 -2.5934  3.0025 -0.5286
 8450TIP3    H246766   1.520   1.175  15.599  0.1677 -2.8515  1.2366
 8451TIP3   OH246767   3.057   2.986  14.223  0.0003  0.5583 -0.3131
 8451TIP3    H146768   2.974   2.942  14.207 -0.4848  0.2953  2.4778
 8451TIP3    H246769   3.037   3.079  14.213 -0.0032  0.4038 -1.9903
 8452TIP3   OH246770   5.033   3.231  15.152 -0.2162  0.3572 -0.0473
 8452TIP3    H146771   5.108   3.277  15.114 -0.0057  0.9651  1.0537
 8452TIP3    H246772   4.988   3.297  15.204 -1.0348 -0.2122 -0.0160
 8453TIP3   OH246773   3.614   6.229  11.744  0.0809  0.0215  0.4187
 8453TIP3    H146774   3.632   6.312  11.699  0.4545 -0.8392 -1.0846
 8453TIP3    H246775   3.519   6.218  11.736  0.1832 -0.2863 -0.4894
 8454TIP3   OH246776   6.255   6.588  14.339 -0.5971  0.1084  0.0456
 8454TIP3    H146777   6.248   6.550  14.427  0.1119  0.4996  0.2772
 8454TIP3    H246778   6.164   6.597  14.310 -0.8094 -0.8883  0.3588
 8455TIP3   OH246779   0.502   2.697  12.068 -0.5681 -0.1923  0.3578
 8455TIP3    H146780   0.458   2.752  12.003 -0.0043  0.6913  0.6987
 8455TIP3    H246781   0.457   2.613  12.063 -0.7546 -0.0381 -0.9328
 8456TIP3   OH246782   5.302   4.795   0.016 -0.2480 -0.2275  0.3327
 8456TIP3    H146783   5.354   4.866   0.055  1.2046 -0.7070 -0.6344
 8456TIP3    H246784   5.329   4.717   0.064  0.4543 -0.5857 -0.6195
 8457TIP3   OH246785   4.614   1.716  17.016 -0.6609  0.1751 -0.1193
 8457TIP3    H146786   4.693   1.754  17.053 -1.6828  1.1619  1.1138
 8457TIP3    H246787   4.646   1.646  16.958  1.1521  1.4750 -0.7643
 8458TIP3   OH246788   4.104   2.256  13.554 -0.2885  0.6599  0.1403
 8458TIP3    H146789   4.143   2.202  13.623 -3.4726 -1.3785  0.5470
 8458TIP3    H246790   4.138   2.219  13.472  0.5531  0.6089  0.5026
 8459TIP3   OH246791   6.258   2.538   2.140 -0.1710 -0.1390 -0.6185
 8459TIP3    H146792   6.267   2.509   2.231  0.6454  0.5108 -0.4787
 8459TIP3    H246793   6.296   2.467   2.089  1.5610  0.5070 -0.2938
 8460TIP3   OH246794   3.924   1.056  12.196  0.1529  0.0026 -0.4684
 8460TIP3    H146795   3.891   1.146  12.195  1.1835  0.4014  0.1095
 8460TIP3    H246796   3.852   1.004  12.233 -0.4020  0.6020 -0.6986
 8461TIP3   OH246797   1.239   6.730   1.632 -0.6226  0.3082 -0.2017
 8461TIP3    H146798   1.274   6.651   1.591  0.9845  0.7262  0.2796
 8461TIP3    H246799   1.155   6.745   1.589 -0.5345 -1.1509 -0.9240
 8462TIP3   OH246800   1.694   4.960  12.421 -0.1599 -0.2569  0.0564
 8462TIP3    H146801   1.757   4.898  12.458  0.6179 -0.0185 -0.8186
 8462TIP3    H246802   1.713   5.043  12.466  1.1073  0.1496 -1.1464
 8463TIP3   OH246803   3.139   3.255   3.043  0.5010 -0.2611  0.0394
 8463TIP3    H146804   3.177   3.305   3.115  0.1717  1.2596 -0.8190
 8463TIP3    H246805   3.187   3.284   2.965  0.3482 -1.3390 -0.4747
 8464TIP3   OH246806   6.396   3.609   5.700 -0.1717  0.1647 -0.9095
 8464TIP3    H146807   6.414   3.596   5.794 -1.3198  1.9384 -0.4051
 8464TIP3    H246808   6.331   3.542   5.679 -0.2464  0.0458 -0.3257
 8465TIP3   OH246809   0.531   5.742   5.285  0.3182 -0.5019  0.3597
 8465TIP3    H146810   0.597   5.752   5.353  1.2609  0.9597 -0.7013
 8465TIP3    H246811   0.545   5.817   5.227 -2.0935 -0.3080 -0.0649
 8466TIP3   OH246812   1.447   6.155   0.011 -0.6035 -0.0898 -0.0653
 8466TIP3    H146813   1.385   6.225   0.031 -0.0278  0.0022  1.5602
 8466TIP3    H246814   1.520   6.199  -0.033 -0.8907  0.0965 -0.3513
 8467TIP3   OH246815   4.894   0.877   1.165 -0.1111 -0.6882  0.5664
 8467TIP3    H146816   4.938   0.937   1.225 -0.0828  0.3130 -0.4013
 8467TIP3    H246817   4.831   0.933   1.119 -1.0230 -1.6920  0.5605
 8468TIP3   OH246818   4.213   6.056   0.500 -0.2366  0.0388  0.1467
 8468TIP3    H146819   4.128   6.071   0.458 -0.6867  2.7575  1.7975
 8468TIP3    H246820   4.269   6.126   0.466  1.5017 -1.8601 -1.1032
 8469TIP3   OH246821   1.268   1.688  15.930 -0.5184  0.7740  0.0509
 8469TIP3    H146822   1.201   1.754  15.918 -0.6906  0.8445  1.3507
 8469TIP3    H246823   1.261   1.633  15.851 -1.7996  1.0266 -0.0336
 8470TIP3   OH246824   3.574   6.012   2.316 -0.1460  0.1251 -0.2376
 8470TIP3    H146825   3.498   6.071   2.316 -0.0848  0.2091  0.2230
 8470TIP3    H246826   3.546   5.938   2.263 -0.3757  0.3759 -0.4731
 8471TIP3   OH246827   4.875   2.366   5.044  0.0050 -0.1575 -0.0628
 8471TIP3    H146828   4.887   2.414   5.125 -1.8101 -0.9551  0.7301
 8471TIP3    H246829   4.938   2.294   5.049  0.8945  0.6029 -0.0566
 8472TIP3   OH246830   1.248   2.695   1.416  0.1325 -0.4806 -0.4318
 8472TIP3    H146831   1.250   2.652   1.331  2.0622 -3.1161  0.8268
 8472TIP3    H246832   1.316   2.762   1.410  0.0940 -0.4845 -1.0136
 8473TIP3   OH246833   5.811   3.899   5.252  0.0312  0.1553  0.6423
 8473TIP3    H146834   5.867   3.890   5.175  1.1611  2.5221  1.1178
 8473TIP3    H246835   5.866   3.941   5.318 -1.3439 -0.4990  2.2779
 8474TIP3   OH246836   5.547   0.055  12.283 -0.2088  0.0792  0.4290
 8474TIP3    H146837   5.476   0.098  12.236  1.3990  2.1760 -0.2630
 8474TIP3    H246838   5.558   0.106  12.363  0.9325  0.2065  0.2098
 8475TIP3   OH246839   6.060   5.708  12.911  0.6833 -0.2345  0.0402
 8475TIP3    H146840   5.991   5.643  12.919  1.7581 -1.4109 -0.0341
 8475TIP3    H246841   6.058   5.756  12.994 -0.2774 -0.1845 -0.0024
 8476TIP3   OH246842   3.058   0.336  13.028  0.6343  0.5316  0.3612
 8476TIP3    H146843   3.015   0.416  13.001  1.2169  1.3166  1.6685
 8476TIP3    H246844   3.095   0.300  12.947 -1.7872  0.1875 -0.6833
 8477TIP3   OH246845   4.073   6.011   4.440 -0.3639  0.1967  0.3857
 8477TIP3    H146846   4.120   6.040   4.361 -1.7811  0.6937 -0.3008
 8477TIP3    H246847   4.142   6.003   4.506  0.4979  2.4396 -0.1536
 8478TIP3   OH246848   5.175   3.341  13.454  0.4223  0.0941  0.3191
 8478TIP3    H146849   5.108   3.323  13.388  0.4173  0.8446  0.1107
 8478TIP3    H246850   5.139   3.415  13.504  0.0282 -0.9748  1.7146
 8479TIP3   OH246851   1.939   1.901  14.379 -0.3431  0.7860 -0.0645
 8479TIP3    H146852   1.935   1.823  14.324  0.6963 -0.2579  1.2487
 8479TIP3    H246853   1.898   1.874  14.461 -1.3773  2.1355 -0.1017
 8480TIP3   OH246854   4.317   0.676   5.106 -0.2962 -0.7043 -0.2293
 8480TIP3    H146855   4.331   0.596   5.056 -0.8249 -1.4766  0.8189
 8480TIP3    H246856   4.222   0.681   5.118 -0.2149 -0.2953  0.3040
 8481TIP3   OH246857   5.322   4.899  15.434  0.5938  0.1880 -0.0907
 8481TIP3    H146858   5.364   4.940  15.358  2.2775 -1.2148  0.0202
 8481TIP3    H246859   5.326   4.805  15.416  2.2457 -0.2786  2.2753
 8482TIP3   OH246860   4.230   1.375  11.986 -0.1105 -0.3063 -0.0482
 8482TIP3    H146861   4.242   1.310  12.054 -4.1513  0.9593  2.2404
 8482TIP3    H246862   4.191   1.326  11.913 -0.9518 -0.8548  0.7498
 8483TIP3   OH246863   6.447   1.629   0.418  0.0417 -0.3206 -0.3080
 8483TIP3    H146864   6.443   1.533   0.411  1.0205 -0.7079  2.8674
 8483TIP3    H246865   6.539   1.650   0.403  0.0344 -0.0232  0.0371
 8484TIP3   OH246866   6.475   3.370  17.392 -0.4644 -0.4217  0.5649
 8484TIP3    H146867   6.553   3.421  17.369 -1.8246  1.0580 -1.0126
 8484TIP3    H246868   6.423   3.429  17.447 -2.3095  0.2371 -1.7104
 8485TIP3   OH246869   2.999   4.350   3.251  0.2908  0.1492  0.5117
 8485TIP3    H146870   2.971   4.420   3.191  0.6356  0.5263  0.7827
 8485TIP3    H246871   3.074   4.310   3.208 -0.7009 -0.9288 -0.2621
 8486TIP3   OH246872   2.700   6.161   5.698  0.6159 -0.2384 -0.0032
 8486TIP3    H146873   2.795   6.174   5.703  0.3635  1.4622  1.1172
 8486TIP3    H246874   2.664   6.249   5.695 -0.9442 -0.8662 -0.5573
 8487TIP3   OH246875   0.518   1.839  15.998 -0.1017  0.2703 -0.3798
 8487TIP3    H146876   0.454   1.780  15.959  0.0828 -0.9818  1.1468
 8487TIP3    H246877   0.597   1.787  16.007  0.6598  1.3284 -0.7600
 8488TIP3   OH246878   6.019   2.104   5.904 -0.2834 -0.7002  0.2750
 8488TIP3    H146879   6.031   2.019   5.947 -3.3463 -0.3636  2.0837
 8488TIP3    H246880   6.068   2.166   5.958 -0.2480 -0.9338  0.5116
 8489TIP3   OH246881   4.699   2.739  16.432 -0.1653 -0.3220  0.0527
 8489TIP3    H146882   4.794   2.732  16.425 -0.2100 -0.7746 -0.1287
 8489TIP3    H246883   4.685   2.813  16.491  0.3208 -1.2195  1.3464
 8490TIP3   OH246884   2.031   6.162  11.065 -0.2046 -0.0327  0.4970
 8490TIP3    H146885   2.026   6.223  10.992  0.4932 -0.0691  0.4177
 8490TIP3    H246886   2.088   6.204  11.129 -0.9228  0.0643  1.0954
 8491TIP3   OH246887   0.322   4.143  11.346 -0.1955 -0.0858  0.2598
 8491TIP3    H146888   0.309   4.060  11.392 -1.1078 -0.6662 -0.9727
 8491TIP3    H246889   0.323   4.119  11.253  1.7041  1.0322 -0.0521
 8492TIP3   OH246890   1.341   5.820  16.386 -0.4975 -0.4426 -0.6103
 8492TIP3    H146891   1.382   5.770  16.457 -0.9964 -1.2023 -0.8354
 8492TIP3    H246892   1.388   5.903  16.384  0.4521 -0.9631 -0.3150
 8493TIP3   OH246893   5.421   4.987   3.964 -0.2266  0.5809  1.2308
 8493TIP3    H146894   5.349   5.047   3.981 -1.0890 -0.4825  1.3782
 8493TIP3    H246895   5.392   4.903   3.998 -0.3299 -0.6791 -1.6837
 8494TIP3   OH246896   0.943   5.361  15.823 -0.2696  0.7264 -0.3179
 8494TIP3    H146897   0.979   5.412  15.896  0.5975 -2.6089  1.7888
 8494TIP3    H246898   0.960   5.415  15.745  2.0444  2.8643  1.5041
 8495TIP3   OH246899   1.511   0.242   3.099  0.1759  0.0741 -0.3270
 8495TIP3    H146900   1.459   0.194   3.163  0.1502 -0.4690 -0.7449
 8495TIP3    H246901   1.602   0.223   3.123  0.2306  1.6373  0.8705
 8496TIP3   OH246902   2.128   1.118  14.286  0.2931 -0.1563  0.7656
 8496TIP3    H146903   2.182   1.057  14.337  0.4455 -1.7569 -1.1855
 8496TIP3    H246904   2.050   1.067  14.264 -0.2110  0.8237  0.2568
 8497TIP3   OH246905   5.739   4.743   0.999  0.4936  0.1846  0.2973
 8497TIP3    H146906   5.651   4.724   1.029  0.4429  1.3426  0.9518
 8497TIP3    H246907   5.733   4.831   0.961  1.2724  0.0938 -0.0695
 8498TIP3   OH246908   5.068   2.482  11.045  0.1655  0.3824 -0.2058
 8498TIP3    H146909   5.041   2.570  11.020 -0.7427 -0.0217 -0.7220
 8498TIP3    H246910   5.006   2.424  11.000 -0.3877 -0.4584  1.5186
 8499TIP3   OH246911   5.891   1.758   5.870 -0.0365 -0.3775 -0.1084
 8499TIP3    H146912   5.890   1.675   5.823  2.9936 -0.1253 -0.8216
 8499TIP3    H246913   5.883   1.734   5.962 -1.2040 -1.2735 -0.4266
 8500TIP3   OH246914   1.946   4.198  16.316 -0.4399  0.1277 -0.4089
 8500TIP3    H146915   1.925   4.225  16.406 -1.5600 -0.0371 -0.6169
 8500TIP3    H246916   2.023   4.251  16.294  0.8986 -1.0265  1.2344
 8501TIP3   OH246917   4.772   0.935  13.560 -0.5985  0.0736 -0.0395
 8501TIP3    H146918   4.705   0.870  13.580 -0.9942  0.2152 -0.8515
 8501TIP3    H246919   4.724   1.009  13.523 -0.1657  0.8803  0.9732
 8502TIP3   OH246920   5.877   5.184  15.092 -0.0746  0.4145 -0.7107
 8502TIP3    H146921   5.898   5.195  14.999  0.9510  1.2685 -0.3815
 8502TIP3    H246922   5.958   5.201  15.138 -0.0461 -1.9222  0.2680
 8503TIP3   OH246923   3.315   0.513  12.937  0.1292 -0.2520  0.1517
 8503TIP3    H146924   3.380   0.487  13.003 -0.3593 -1.8198  0.0613
 8503TIP3    H246925   3.299   0.433  12.887 -2.5646 -0.1673  0.7633
 8504TIP3   OH246926   2.780   3.516   0.244 -0.2654 -0.1228 -0.2417
 8504TIP3    H146927   2.824   3.511   0.328 -2.2783  0.4146  0.9081
 8504TIP3    H246928   2.851   3.523   0.180  1.3036  1.6519  1.5583
 8505TIP3   OH246929   0.359   6.106  11.265  0.1079  0.1989  0.0669
 8505TIP3    H146930   0.331   6.195  11.284  0.8532  0.2252  1.1095
 8505TIP3    H246931   0.327   6.089  11.176  1.6730  2.1936 -0.9405
 8506TIP3   OH246932   4.464   0.063   5.000  0.3709 -0.7629 -0.2455
 8506TIP3    H146933   4.440  -0.023   5.035 -0.2510 -0.2812  0.5327
 8506TIP3    H246934   4.559   0.067   5.010  0.2027 -0.5981  1.5184
 8507TIP3   OH246935   5.207   5.621   1.726 -0.3686  0.6216  0.4372
 8507TIP3    H146936   5.166   5.705   1.743 -0.6462  0.7810 -0.9011
 8507TIP3    H246937   5.201   5.574   1.809 -0.0132  1.9850  1.2598
 8508TIP3   OH246938   3.700   4.938  11.645 -0.2321  0.4873  0.0897
 8508TIP3    H146939   3.788   4.970  11.664 -0.2900 -0.1677  1.5271
 8508TIP3    H246940   3.644   5.015  11.657 -0.0031  0.6186  0.3200
 8509TIP3   OH246941   0.763   5.378   2.562 -0.1843 -0.3508  0.6400
 8509TIP3    H146942   0.805   5.444   2.617 -0.2771  0.1474  0.1235
 8509TIP3    H246943   0.817   5.300   2.571  0.2896 -0.0079  0.7538
 8510TIP3   OH246944   1.295   4.259  15.731 -0.1419  0.5267  0.1187
 8510TIP3    H146945   1.370   4.257  15.672 -0.2892 -0.5753 -0.0508
 8510TIP3    H246946   1.308   4.184  15.789 -0.9842  0.4703  0.2451
 8511TIP3   OH246947   1.708   0.155  13.342 -0.0116  0.0044  0.4528
 8511TIP3    H146948   1.761   0.233  13.328  0.6939 -0.4029  0.7702
 8511TIP3    H246949   1.763   0.083  13.311 -0.6364 -0.3675  0.1960
 8512TIP3   OH246950   3.968   2.673  11.967  0.3508  0.7213 -0.4660
 8512TIP3    H146951   3.917   2.741  11.923 -1.1119  0.7821  1.1805
 8512TIP3    H246952   3.901   2.616  12.006  1.4348 -2.6656 -3.0963
 8513TIP3   OH246953   4.975   4.297   3.977 -0.3954  0.0792  0.2382
 8513TIP3    H146954   4.949   4.389   3.986  0.0975  0.3956 -1.2788
 8513TIP3    H246955   4.981   4.265   4.067  1.5766  2.1411  0.9536
 8514TIP3   OH246956   1.288   3.390  14.144 -0.2515  0.4561 -0.4960
 8514TIP3    H146957   1.198   3.416  14.122 -0.1195  0.5635 -0.9086
 8514TIP3    H246958   1.340   3.470  14.132 -0.1347  0.4464 -0.0555
 8515TIP3   OH246959   3.926   4.374   0.745 -0.3908  0.0583  0.3348
 8515TIP3    H146960   3.874   4.409   0.672  1.0013 -0.4007 -0.9163
 8515TIP3    H246961   4.017   4.382   0.716  0.1513 -0.8626  1.7000
 8516TIP3   OH246962   1.831   0.242   3.464 -0.0212  0.0696  0.7577
 8516TIP3    H146963   1.774   0.226   3.539 -0.0988 -2.0421  0.3099
 8516TIP3    H246964   1.920   0.242   3.500 -0.1302  0.5219  1.0368
 8517TIP3   OH246965   0.434   0.448   3.178  0.2130  0.3578  0.3240
 8517TIP3    H146966   0.488   0.402   3.114  0.3367  0.6891  0.1864
 8517TIP3    H246967   0.350   0.459   3.134 -0.0432 -0.3467  0.6178
 8518TIP3   OH246968   0.453   3.333  13.095  0.1479 -0.2398 -0.5408
 8518TIP3    H146969   0.509   3.257  13.086  1.6776  0.8107 -0.3106
 8518TIP3    H246970   0.499   3.390  13.157 -0.6952  1.0836 -1.0775
 8519TIP3   OH246971   5.193   5.490   4.601  0.4148 -0.2694 -0.0166
 8519TIP3    H146972   5.132   5.527   4.538 -0.1221  1.0378  1.2092
 8519TIP3    H246973   5.260   5.557   4.613  2.3072 -1.7619 -1.4972
 8520TIP3   OH246974   5.932   2.443   2.764 -0.0842  0.5142  0.2812
 8520TIP3    H146975   5.985   2.418   2.688  1.6570  0.4997  1.4233
 8520TIP3    H246976   5.997   2.461   2.833 -1.4782  2.8330  1.1121
 8521TIP3   OH246977   6.244   0.468   2.751 -0.4911  0.3348  0.0209
 8521TIP3    H146978   6.297   0.429   2.821  0.9494  0.8089 -0.7641
 8521TIP3    H246979   6.245   0.403   2.681 -0.0966  0.7656 -0.3787
 8522TIP3   OH246980   5.241   6.241   4.866  0.2946 -0.0348 -0.4397
 8522TIP3    H146981   5.309   6.304   4.890 -0.3868  0.8759 -0.8232
 8522TIP3    H246982   5.253   6.228   4.772  0.9373 -1.1138 -0.2218
 8523TIP3   OH246983   5.516   0.032  17.379  0.5888  0.7858  0.1316
 8523TIP3    H146984   5.577  -0.026  17.334  0.2086  1.3122 -1.1408
 8523TIP3    H246985   5.463   0.069  17.308 -0.2076  1.4730  1.0615
 8524TIP3   OH246986   5.644   2.294   2.379 -0.1330  0.0875 -0.7070
 8524TIP3    H146987   5.640   2.199   2.384  0.2486  0.0626 -0.8487
 8524TIP3    H246988   5.728   2.317   2.420 -2.0050  0.6768  3.3342
 8525TIP3   OH246989   5.455   5.487  11.433 -0.2464 -0.4915  0.2268
 8525TIP3    H146990   5.370   5.472  11.475 -0.9989  0.8758 -0.7440
 8525TIP3    H246991   5.442   5.565  11.380  2.1762  0.9872  1.6190
 8526TIP3   OH246992   2.645   6.291   2.698 -0.0198  0.0502  0.5462
 8526TIP3    H146993   2.688   6.371   2.729 -0.5329  0.5061  0.1124
 8526TIP3    H246994   2.572   6.323   2.645  0.0070 -0.7128  0.0390
 8527TIP3   OH246995   1.709   0.869   2.362  0.0880 -0.0400  0.1943
 8527TIP3    H146996   1.718   0.819   2.444  0.1347  1.5825  1.2336
 8527TIP3    H246997   1.617   0.859   2.338 -0.0392 -0.1689  0.7122
 8528TIP3   OH246998   1.917   0.678  13.690 -0.2140  0.1785  0.1109
 8528TIP3    H146999   1.919   0.585  13.666  0.1135 -0.1037  1.1607
 8528TIP3    H247000   1.844   0.684  13.753 -0.5574  0.7353 -0.3364
 8529TIP3   OH247001   0.222   1.872   0.262 -0.0979 -0.5676 -0.3412
 8529TIP3    H147002   0.310   1.835   0.250 -0.6504 -1.7699 -0.8943
 8529TIP3    H247003   0.209   1.873   0.357  1.1763  1.3095 -0.1307
 8530TIP3   OH247004   4.060   0.289   2.019 -0.3112  0.0704  0.0473
 8530TIP3    H147005   4.148   0.326   2.024 -0.1889 -0.1059 -0.6495
 8530TIP3    H247006   4.074   0.194   2.020 -0.3830  0.0196 -1.3347
 8531TIP3   OH247007   3.567   5.941   5.273  0.4334 -0.8458 -0.1108
 8531TIP3    H147008   3.612   5.944   5.189  0.6215  1.4727 -0.0036
 8531TIP3    H247009   3.567   5.849   5.297  1.2636 -1.4481 -2.1601
 8532TIP3   OH247010   0.798   1.022  13.514  0.0193 -0.2294 -0.1973
 8532TIP3    H147011   0.706   0.996  13.511 -0.3381  0.9048  0.5325
 8532TIP3    H247012   0.841   0.950  13.561  0.0813 -2.2400 -3.0836
 8533TIP3   OH247013   3.178   1.662  13.206 -0.0875 -0.0866  0.0097
 8533TIP3    H147014   3.141   1.594  13.263  0.4080 -1.4570 -1.2701
 8533TIP3    H247015   3.270   1.668  13.232  0.0517 -0.4493 -0.4087
 8534TIP3   OH247016   4.771   5.013  13.205 -0.1212 -0.1288 -0.1278
 8534TIP3    H147017   4.831   4.947  13.172  1.0233  1.3317 -1.1430
 8534TIP3    H247018   4.779   5.086  13.143 -2.7713  0.2351 -0.1500
 8535TIP3   OH247019   2.581   4.538   3.591 -0.0974 -0.3381  0.1672
 8535TIP3    H147020   2.551   4.524   3.501  1.5135  0.3919 -0.5200
 8535TIP3    H247021   2.597   4.450   3.626 -0.5813 -0.6153 -0.3019
 8536TIP3   OH247022   0.367   2.439  12.031  0.2175 -0.3725  0.2112
 8536TIP3    H147023   0.375   2.361  11.976  0.6044 -1.0472  1.1836
 8536TIP3    H247024   0.335   2.406  12.115 -1.1353  0.7424  0.1642
 8537TIP3   OH247025   3.393   6.115  15.614  0.5699  0.5282  0.0217
 8537TIP3    H147026   3.350   6.182  15.666  0.8320 -1.3721  2.9105
 8537TIP3    H247027   3.327   6.047  15.603  1.6132 -0.7125  1.1433
 8538TIP3   OH247028   1.222   4.933  14.655 -0.1157 -0.0339 -0.0191
 8538TIP3    H147029   1.220   5.000  14.586 -0.5986 -0.3092 -0.2750
 8538TIP3    H247030   1.313   4.904  14.656  0.3992  1.4788  0.9334
 8539TIP3   OH247031   3.598   0.894  12.770 -0.1579 -0.0953  0.0192
 8539TIP3    H147032   3.589   0.893  12.675  0.2353  1.7290 -0.0744
 8539TIP3    H247033   3.522   0.944  12.801 -0.3472 -0.7708  0.6933
 8540TIP3   OH247034   1.654   4.190   0.528 -0.2721 -0.2589  0.4270
 8540TIP3    H147035   1.747   4.173   0.511 -0.1309  1.0872 -0.3089
 8540TIP3    H247036   1.619   4.106   0.558  0.8168 -1.2501 -0.9270
 8541TIP3   OH247037   6.643   1.673  12.567  0.0166 -0.5636 -0.3106
 8541TIP3    H147038   6.626   1.717  12.484 -0.0550  0.1019  0.0475
 8541TIP3    H247039   6.634   1.580  12.547  2.0339 -0.5502 -1.5148
 8542TIP3   OH247040   3.048   1.002   5.477 -0.3785  0.0978 -0.0295
 8542TIP3    H147041   2.987   0.974   5.545 -1.5745 -0.0160 -1.1254
 8542TIP3    H247042   3.000   0.991   5.395  0.9835  0.3733 -0.8931
 8543TIP3   OH247043   1.441   4.411  16.145 -0.3164 -0.1491 -0.2074
 8543TIP3    H147044   1.447   4.426  16.050 -0.5285 -0.0294 -0.2006
 8543TIP3    H247045   1.367   4.464  16.174 -1.6724 -1.8726 -0.3326
 8544TIP3   OH247046   5.298   3.454   5.688  0.0654  0.7611  0.2541
 8544TIP3    H147047   5.204   3.434   5.689  0.3398 -0.7768 -1.0881
 8544TIP3    H247048   5.319   3.467   5.595  1.9197 -3.0797 -0.0443
 8545TIP3   OH247049   3.680   3.335  13.938  0.0857 -0.5538  0.6265
 8545TIP3    H147050   3.628   3.410  13.909 -0.4874 -0.5737  1.5384
 8545TIP3    H247051   3.748   3.325  13.872 -1.3378 -0.8053 -0.8624
 8546TIP3   OH247052   3.430   5.037   0.580  0.4428  0.2227 -0.4180
 8546TIP3    H147053   3.379   5.070   0.506 -1.4561 -1.7404 -0.0855
 8546TIP3    H247054   3.422   4.942   0.574  2.1676 -0.0584  1.0204
 8547TIP3   OH247055   1.998   2.250   0.747 -0.3461  0.0115 -0.4887
 8547TIP3    H147056   2.005   2.166   0.700  0.8360 -0.8816  1.1850
 8547TIP3    H247057   1.917   2.242   0.797  0.4289 -0.7229  0.6959
 8548TIP3   OH247058   2.419   5.567  14.214 -0.1328  0.0313  0.0970
 8548TIP3    H147059   2.357   5.521  14.270  0.9697 -0.4956  0.9280
 8548TIP3    H247060   2.404   5.660  14.232 -0.0499 -0.1218  0.9906
 8549TIP3   OH247061   6.262   5.866   4.510  0.2112  0.3708  0.3053
 8549TIP3    H147062   6.281   5.803   4.441  0.2825  0.4866  0.2176
 8549TIP3    H247063   6.167   5.861   4.522 -0.0008  1.3057 -0.7507
 8550TIP3   OH247064   5.801   6.025  16.351 -0.4939  0.3713 -0.2669
 8550TIP3    H147065   5.837   6.094  16.296  0.2173  0.2666  0.0503
 8550TIP3    H247066   5.770   5.958  16.290 -1.1542  0.9458 -0.5712
 8551TIP3   OH247067   4.546   5.086   5.717  0.1194  0.7268  0.3248
 8551TIP3    H147068   4.581   5.172   5.735 -0.2919  1.1810 -0.9372
 8551TIP3    H247069   4.552   5.076   5.622  0.0024 -0.5585  0.4288
 8552TIP3   OH247070   2.103   0.130   4.713 -0.2125  0.2439 -0.2188
 8552TIP3    H147071   2.153   0.210   4.728 -0.3687  0.1711  0.7038
 8552TIP3    H247072   2.044   0.124   4.788 -1.0199 -0.1189 -0.8660
 8553TIP3   OH247073   5.976   3.073   1.847  0.1389 -0.3405 -0.3650
 8553TIP3    H147074   6.052   3.015   1.847 -0.8026 -1.6127 -0.9990
 8553TIP3    H247075   5.905   3.019   1.881 -1.2513 -0.2702 -2.9453
 8554TIP3   OH247076   6.259   2.627  13.187  0.9391  0.4511 -0.3058
 8554TIP3    H147077   6.265   2.573  13.108 -0.1811  0.3748 -0.3536
 8554TIP3    H247078   6.198   2.580  13.244  2.9284 -0.3261  1.3073
 8555TIP3   OH247079   0.181   1.013  12.492  0.1989 -0.0220  0.0138
 8555TIP3    H147080   0.140   1.099  12.496  0.9130  0.3240 -0.0954
 8555TIP3    H247081   0.158   0.980  12.405  1.6234  0.9247 -0.7609
 8556TIP3   OH247082   5.463   0.129   2.823 -0.3247 -0.3193  0.3661
 8556TIP3    H147083   5.490   0.211   2.864  1.6294 -1.2812  1.1410
 8556TIP3    H247084   5.422   0.079   2.894 -0.3253 -0.5343  0.2141
 8557TIP3   OH247085   5.244   1.722  15.245  0.5159 -0.0509 -0.0660
 8557TIP3    H147086   5.217   1.683  15.162 -0.8117  1.6189 -0.4648
 8557TIP3    H247087   5.190   1.801  15.253  1.4310  0.4256  1.8386
 8558TIP3   OH247088   4.273   2.120  14.069 -0.2135 -0.3746 -0.4409
 8558TIP3    H147089   4.183   2.112  14.102 -0.5689  1.7457 -0.7352
 8558TIP3    H247090   4.321   2.162  14.140 -0.1912  1.2067 -1.3512
 8559TIP3   OH247091   2.725   2.331  11.414 -0.1354  0.4772  0.3679
 8559TIP3    H147092   2.798   2.379  11.376  1.0701 -1.1695  0.5089
 8559TIP3    H247093   2.722   2.249  11.366 -1.4309  0.2048  0.8696
 8560TIP3   OH247094   4.037   2.117   2.777 -0.6005  0.2554 -0.1482
 8560TIP3    H147095   4.091   2.098   2.700 -0.9208  2.6417 -1.0486
 8560TIP3    H247096   4.100   2.137   2.846 -0.3045  0.2555 -0.4117
 8561TIP3   OH247097   6.016   2.006   0.773  0.2803 -1.2432 -0.3515
 8561TIP3    H147098   5.971   2.046   0.847 -0.5791 -0.1865 -1.4091
 8561TIP3    H247099   6.102   2.049   0.771 -0.1859 -0.3190 -0.7485
 8562TIP3   OH247100   2.921   1.824  16.537 -0.4352  0.3748  0.3453
 8562TIP3    H147101   2.916   1.728  16.530 -0.8265  0.4543 -0.6318
 8562TIP3    H247102   2.988   1.840  16.603 -1.0643 -0.5901  1.2418
 8563TIP3   OH247103   1.532   5.587  13.531  0.4794  0.2095  0.0413
 8563TIP3    H147104   1.539   5.662  13.473  0.5434 -0.1244 -0.3840
 8563TIP3    H247105   1.449   5.601  13.578 -0.8072 -0.6760 -1.8123
 8564TIP3   OH247106   2.210   1.789  14.408  0.3007  0.1443 -0.2814
 8564TIP3    H147107   2.263   1.823  14.480  0.2335  1.2070 -0.7259
 8564TIP3    H247108   2.128   1.837  14.413 -0.1037 -0.5127 -0.4470
 8565TIP3   OH247109   3.339   2.375   2.942 -0.1179  0.3876  0.5956
 8565TIP3    H147110   3.288   2.297   2.919  0.2540  0.3535 -0.1586
 8565TIP3    H247111   3.382   2.400   2.860  1.9277 -0.2203  1.4004
 8566TIP3   OH247112   4.540   1.120   3.776 -0.0496 -0.0236  0.4341
 8566TIP3    H147113   4.569   1.055   3.712 -0.4675  0.7842 -0.5983
 8566TIP3    H247114   4.547   1.204   3.731  0.3923  0.6682  1.7099
 8567TIP3   OH247115   0.847   2.630  16.316 -1.0156  0.0942 -0.4870
 8567TIP3    H147116   0.868   2.683  16.393 -1.2352 -0.8411  0.2436
 8567TIP3    H247117   0.909   2.658  16.249 -1.9492  2.1735 -0.5487
 8568TIP3   OH247118   1.941   5.108  13.586 -0.1178  0.1134  0.1352
 8568TIP3    H147119   2.027   5.138  13.615  2.0366 -1.3587 -3.8857
 8568TIP3    H247120   1.895   5.188  13.560  1.6016  0.7298 -1.1897
 8569TIP3   OH247121   0.108   5.051   0.041 -0.4094  0.0038 -0.0282
 8569TIP3    H147122   0.059   5.131   0.060  1.5428  0.6969  2.6090
 8569TIP3    H247123   0.193   5.064   0.081  0.7078 -2.6363 -1.2477
 8570TIP3   OH247124   5.413   2.192   4.546 -0.7599 -0.7020 -0.0860
 8570TIP3    H147125   5.374   2.148   4.621  0.2307 -1.3628  0.0582
 8570TIP3    H247126   5.474   2.128   4.509  0.7595  0.5483  0.1516
 8571TIP3   OH247127   5.355   4.523   2.680 -0.5250 -0.1496 -0.1851
 8571TIP3    H147128   5.388   4.435   2.698 -3.1047 -1.3751 -0.9327
 8571TIP3    H247129   5.350   4.565   2.765 -2.0569 -1.8682  0.6512
 8572TIP3   OH247130   4.237   1.042   5.810  0.2245  0.1911  0.3397
 8572TIP3    H147131   4.302   1.047   5.740  0.9763  1.4567  1.0789
 8572TIP3    H247132   4.153   1.037   5.764  0.7781 -0.5877 -0.6307
 8573TIP3   OH247133   3.256   4.150   1.839 -0.1815 -0.1566 -0.2889
 8573TIP3    H147134   3.328   4.163   1.900 -0.7312 -0.1530  0.3671
 8573TIP3    H247135   3.247   4.055   1.834  0.7876 -0.2146 -1.4807
 8574TIP3   OH247136   0.746   4.594   3.874 -0.2626 -0.1231  0.1590
 8574TIP3    H147137   0.816   4.530   3.861 -0.1662  0.2120 -1.0953
 8574TIP3    H247138   0.692   4.586   3.795 -2.0862 -0.8953  1.4220
 8575TIP3   OH247139   6.529   0.845  13.397 -0.2562  0.2808 -0.2722
 8575TIP3    H147140   6.467   0.850  13.470 -1.2013  0.4372 -1.0532
 8575TIP3    H247141   6.607   0.806  13.434 -0.4476  1.0493  0.9917
 8576TIP3   OH247142   3.886   6.073   5.596  0.1418  0.4668  0.9596
 8576TIP3    H147143   3.937   6.015   5.539  0.8198  1.8863  0.0804
 8576TIP3    H247144   3.841   6.013   5.657  0.7447 -0.9747  0.0390
 8577TIP3   OH247145   5.822   4.722  16.255  0.3920  0.5813 -0.0335
 8577TIP3    H147146   5.824   4.671  16.175  0.8909  0.2183  0.2013
 8577TIP3    H247147   5.811   4.813  16.226  0.9354  0.4944 -0.5333
 8578TIP3   OH247148   1.815   6.731  11.749  0.3869 -0.3094  0.1880
 8578TIP3    H147149   1.805   6.712  11.655  1.2377 -0.4650  0.1217
 8578TIP3    H247150   1.848   6.821  11.751  0.9012 -0.4973  0.3102
 8579TIP3   OH247151   1.861   3.501  15.779 -0.2935 -0.4580  0.3818
 8579TIP3    H147152   1.857   3.595  15.797 -1.2261 -0.4093 -0.0210
 8579TIP3    H247153   1.954   3.478  15.788  0.4116  1.0231 -2.1100
 8580TIP3   OH247154   5.008   1.455  16.846 -1.0036  0.4423 -0.6171
 8580TIP3    H147155   5.053   1.406  16.777 -0.5473  0.1027 -0.0869
 8580TIP3    H247156   5.063   1.532  16.860 -0.5048 -0.0328  0.1149
 8581TIP3   OH247157   1.601   3.725   1.054 -0.2375 -0.0991  0.1644
 8581TIP3    H147158   1.668   3.746   0.989  1.1233 -0.6552  1.3327
 8581TIP3    H247159   1.588   3.631   1.045  0.8813 -0.4088  1.4964
 8582TIP3   OH247160   5.691   3.040  16.180 -0.0509 -0.2223 -0.1735
 8582TIP3    H147161   5.634   3.036  16.103 -2.2382 -1.2874  1.4010
 8582TIP3    H247162   5.717   3.132  16.186 -2.9238  0.6852 -0.0971
 8583TIP3   OH247163   5.128   6.003  13.639  0.0660 -0.3457 -0.1501
 8583TIP3    H147164   5.210   5.956  13.658  0.8055  1.0863  0.3105
 8583TIP3    H247165   5.083   6.007  13.724  0.7620  1.1635  0.1669
 8584TIP3   OH247166   4.646   4.058  12.001  0.2550 -0.3412 -0.0550
 8584TIP3    H147167   4.575   4.117  12.025 -0.4323 -1.4145  0.6210
 8584TIP3    H247168   4.610   4.005  11.929  1.2272  0.7384 -1.3850
 8585TIP3   OH247169   2.182   4.123   3.911  0.2654 -0.0752  0.3461
 8585TIP3    H147170   2.180   4.112   3.816  0.2658 -2.1010  0.5286
 8585TIP3    H247171   2.126   4.198   3.928  0.2412  0.3021 -1.2554
 8586TIP3   OH247172   3.515   2.552  13.337  0.3112  0.0410  0.9424
 8586TIP3    H147173   3.488   2.539  13.428 -2.0357 -3.2496 -0.0293
 8586TIP3    H247174   3.452   2.616  13.303 -0.9191 -1.1374  0.9000
 8587TIP3   OH247175   4.941   1.024   3.761 -0.2043  0.4011  0.5251
 8587TIP3    H147176   4.920   1.004   3.670  2.2612  2.2109 -0.5599
 8587TIP3    H247177   4.942   0.939   3.805 -2.8558 -0.3902 -0.7314
 8588TIP3   OH247178   5.815   5.959   3.212  1.1523  0.1554 -0.7230
 8588TIP3    H147179   5.906   5.988   3.205  1.5241 -0.6711  0.3468
 8588TIP3    H247180   5.818   5.864   3.199  0.2685  0.2653 -1.8824
 8589TIP3   OH247181   5.116   3.583   5.480 -0.7943 -0.1547 -0.0203
 8589TIP3    H147182   5.170   3.661   5.466 -0.7282 -0.4026 -1.3389
 8589TIP3    H247183   5.163   3.514   5.433 -1.6523 -0.6390 -0.1724
 8590TIP3   OH247184   4.146   1.354  14.860  0.5780  0.1075 -0.1414
 8590TIP3    H147185   4.233   1.363  14.898  1.1990 -1.0007 -1.2238
 8590TIP3    H247186   4.109   1.277  14.903 -0.2582  1.1102  0.9884
 8591TIP3   OH247187   2.570   0.932   6.787  0.3280  0.3220 -0.0585
 8591TIP3    H147188   2.509   0.914   6.716  0.4788  0.1599 -0.1469
 8591TIP3    H247189   2.533   1.009   6.831 -0.8758 -0.7971  0.9551
 8592TIP3   OH247190   3.702   0.516  14.080 -0.0039  0.5427 -0.2831
 8592TIP3    H147191   3.797   0.520  14.089  0.0560 -2.0567  1.0802
 8592TIP3    H247192   3.687   0.452  14.010 -0.7497  0.6420 -0.2214
 8593TIP3   OH247193   4.987   0.665   5.209 -0.3090 -0.3469 -1.1082
 8593TIP3    H147194   4.979   0.759   5.193  0.9792  0.6374  2.9734
 8593TIP3    H247195   4.939   0.650   5.290  1.2176 -2.8046 -0.5468
 8594TIP3   OH247196   5.161   0.779  13.474 -0.2425 -0.1485 -0.1021
 8594TIP3    H147197   5.101   0.704  13.473 -0.5842  0.0430  2.1144
 8594TIP3    H247198   5.128   0.837  13.406 -1.1170 -1.1162 -0.5376
 8595TIP3   OH247199   3.656   6.208  17.141 -0.0699 -0.3213 -0.1402
 8595TIP3    H147200   3.716   6.271  17.180 -1.9579  1.7514 -0.4141
 8595TIP3    H247201   3.573   6.254  17.135 -1.1189 -2.2787 -1.9507
 8596TIP3   OH247202   2.770   2.040   5.631 -0.2571 -0.3016  0.0690
 8596TIP3    H147203   2.775   1.965   5.572  1.9875 -0.4282  0.3342
 8596TIP3    H247204   2.722   2.107   5.581  0.2423 -0.9319 -1.2899
 8597TIP3   OH247205   5.356   5.863  16.536  0.2181  0.0159  0.3493
 8597TIP3    H147206   5.354   5.768  16.524  3.0018 -0.0210 -0.6681
 8597TIP3    H247207   5.384   5.875  16.627  0.9126 -0.1969  0.1726
 8598TIP3   OH247208   6.707   5.076   2.560  0.1196  0.1397  0.3948
 8598TIP3    H147209   6.775   5.079   2.493 -1.3946 -0.0478 -1.2299
 8598TIP3    H247210   6.642   5.139   2.531 -0.8410 -0.3534  1.3928
 8599TIP3   OH247211   3.110   0.452   2.796 -0.1993 -0.0233  0.5169
 8599TIP3    H147212   3.196   0.485   2.774  1.1532 -1.7779  2.7110
 8599TIP3    H247213   3.107   0.453   2.892 -2.3147 -0.6977  0.5195
 8600TIP3   OH247214   6.145   4.311  11.429 -0.7821 -0.3164 -0.2778
 8600TIP3    H147215   6.157   4.296  11.523  0.2190  0.4477 -0.2697
 8600TIP3    H247216   6.123   4.404  11.422  0.4284 -0.0530 -0.8776
 8601TIP3   OH247217   5.803   1.454  12.092 -0.5953 -0.2522 -0.2600
 8601TIP3    H147218   5.738   1.384  12.095 -0.3248 -0.4738  1.8426
 8601TIP3    H247219   5.876   1.421  12.144 -0.8372  1.9164  1.6150
 8602TIP3   OH247220   5.321   0.018  12.611 -0.4632 -0.4324 -0.2731
 8602TIP3    H147221   5.348   0.010  12.702 -0.1197 -0.0499 -0.3394
 8602TIP3    H247222   5.373   0.091  12.577 -0.9240 -0.2790 -0.6494
 8603TIP3   OH247223   4.752   2.706   4.734  0.0180  0.0878  0.1622
 8603TIP3    H147224   4.676   2.749   4.775 -1.0890 -0.8272 -0.8300
 8603TIP3    H247225   4.780   2.641   4.798 -0.0154  0.4603  0.5592
 8604TIP3   OH247226   2.666   5.810   5.432 -0.0527  0.0292 -0.1057
 8604TIP3    H147227   2.599   5.878   5.441  0.9081  1.3771 -2.0741
 8604TIP3    H247228   2.748   5.855   5.454  0.4428 -0.9663  0.1314
 8605TIP3   OH247229   2.656   0.224  10.950 -0.4767 -0.2478  0.0989
 8605TIP3    H147230   2.657   0.166  10.874  0.6375  0.4097 -0.4134
 8605TIP3    H247231   2.746   0.221  10.984 -0.7276  0.1871  0.8333
 8606TIP3   OH247232   5.645   1.551   3.359 -0.5635  0.5662 -0.0775
 8606TIP3    H147233   5.631   1.644   3.377  0.2752  0.6655  0.1187
 8606TIP3    H247234   5.636   1.543   3.264 -1.4880  0.6856 -0.0097
 8607TIP3   OH247235   4.143   5.645  11.290 -0.2858  0.0134 -0.1073
 8607TIP3    H147236   4.168   5.594  11.213  2.4492 -1.8920  1.8427
 8607TIP3    H247237   4.067   5.600  11.325 -1.1342  0.4918 -1.2724
 8608TIP3   OH247238   5.628   3.450  16.721  0.2741  0.0841  0.4162
 8608TIP3    H147239   5.584   3.483  16.643  0.7473 -0.8627 -0.2667
 8608TIP3    H247240   5.579   3.371  16.745  0.3694  0.1527  0.8521
 8609TIP3   OH247241   2.805   0.477  16.288 -0.3010 -0.0778  0.0710
 8609TIP3    H147242   2.729   0.467  16.231 -0.2563  1.5907 -0.3319
 8609TIP3    H247243   2.769   0.518  16.367 -0.1242 -1.0820  0.6924
 8610TIP3   OH247244   0.132   2.576   1.672  0.7135  0.4017  0.3051
 8610TIP3    H147245   0.099   2.627   1.745 -0.3811 -0.2251  0.2555
 8610TIP3    H247246   0.109   2.485   1.692  1.8078  0.0238 -0.0578
 8611TIP3   OH247247   2.933   6.071   3.570  0.0767  0.6142 -0.2993
 8611TIP3    H147248   2.888   6.096   3.489  0.9767 -0.1086 -1.0430
 8611TIP3    H247249   2.989   5.998   3.544  0.5985  0.5671  0.9217
 8612TIP3   OH247250   0.878   1.781   0.182  0.1407 -0.0268  0.0732
 8612TIP3    H147251   0.820   1.857   0.178 -1.2048 -1.0610 -1.1154
 8612TIP3    H247252   0.888   1.764   0.276  0.9722  1.9488  0.3927
 8613TIP3   OH247253   6.310   1.390  16.048 -0.0862 -0.5889 -0.1846
 8613TIP3    H147254   6.236   1.431  16.092  0.7785  0.8706 -0.0509
 8613TIP3    H247255   6.370   1.366  16.119 -0.3330 -1.6400 -0.3043
 8614TIP3   OH247256   3.728   0.387   6.143 -0.4204 -0.4718  0.1367
 8614TIP3    H147257   3.665   0.316   6.156 -1.4710  0.4749  0.2878
 8614TIP3    H247258   3.726   0.436   6.225  0.5329 -0.4247  0.1450
 8615TIP3   OH247259   4.842   3.999   4.341  0.1548  0.0361 -0.2778
 8615TIP3    H147260   4.861   3.922   4.287  0.1433  0.7677 -1.3551
 8615TIP3    H247261   4.753   4.024   4.317  0.0320  0.1907  0.3206
 8616TIP3   OH247262   2.879   3.266   1.001  0.1151 -0.0433  0.3279
 8616TIP3    H147263   2.787   3.292   1.002  0.2798  0.6520  2.2837
 8616TIP3    H247264   2.926   3.342   0.967  0.1207  0.2679  1.0252
 8617TIP3   OH247265   5.992   1.969   4.730  0.1633  0.2774  0.2948
 8617TIP3    H147266   6.017   1.986   4.821  0.9979 -0.0734  0.1376
 8617TIP3    H247267   6.074   1.971   4.681 -0.3955  1.7080 -0.6716
 8618TIP3   OH247268   6.506   1.227   1.220 -0.1917 -0.4717 -0.1054
 8618TIP3    H147269   6.587   1.177   1.230 -0.5424 -0.8661  0.8835
 8618TIP3    H247270   6.509   1.292   1.290  0.4113  1.1637 -1.5695
 8619TIP3   OH247271   1.031   3.314  13.510 -0.6140 -0.5111 -0.1056
 8619TIP3    H147272   1.105   3.361  13.472 -1.0180  0.9955  0.8603
 8619TIP3    H247273   0.954   3.363  13.481 -1.2046 -1.6931 -0.5933
 8620TIP3   OH247274   3.217   0.145   5.486 -0.0817 -0.4229 -0.0083
 8620TIP3    H147275   3.176   0.220   5.529  2.4674  1.6007 -0.8834
 8620TIP3    H247276   3.167   0.070   5.518 -3.4180  1.6386  0.1706
 8621TIP3   OH247277   3.014   4.204   1.446  0.7343  0.0726  0.6751
 8621TIP3    H147278   3.052   4.143   1.509  0.3539 -1.7014 -0.7171
 8621TIP3    H247279   2.921   4.181   1.443  0.8716 -0.4382 -1.0456
 8622TIP3   OH247280   5.856   1.431  17.001  0.3748 -0.4033 -0.5793
 8622TIP3    H147281   5.944   1.451  16.970  0.9247  0.1929  1.2185
 8622TIP3    H247282   5.822   1.514  17.034 -0.0231 -1.0325  0.6832
 8623TIP3   OH247283   3.372   1.298  14.238 -0.0521  0.0944 -0.2778
 8623TIP3    H147284   3.379   1.377  14.185 -1.5965 -0.7988 -1.9205
 8623TIP3    H247285   3.386   1.226  14.176  0.3386 -0.9598  0.9887
 8624TIP3   OH247286   0.517   5.563   3.662  0.5329 -0.3171  0.2708
 8624TIP3    H147287   0.464   5.498   3.616  1.4706 -1.0165  0.1537
 8624TIP3    H247288   0.465   5.644   3.657  0.4953 -0.4220 -1.8449
 8625TIP3   OH247289   3.758   6.500   6.238 -0.0044  0.1949 -0.1910
 8625TIP3    H147290   3.717   6.496   6.325 -0.9072  1.2312 -0.5518
 8625TIP3    H247291   3.774   6.408   6.215 -0.0271 -0.1070  0.9315
 8626TIP3   OH247292   2.486   1.223   3.107 -0.0905  0.6607  0.2827
 8626TIP3    H147293   2.428   1.151   3.082  1.3792 -0.2419 -0.6604
 8626TIP3    H247294   2.454   1.298   3.056  0.9640 -0.4131 -2.1074
 8627TIP3   OH247295   6.168   3.951   1.964 -0.2561  0.1653  0.0414
 8627TIP3    H147296   6.152   3.956   2.058 -0.8304 -1.4594  0.0597
 8627TIP3    H247297   6.236   3.883   1.955 -0.0839  0.4216 -0.7115
 8628TIP3   OH247298   4.083   3.486  14.521  0.4256 -0.5105  0.0389
 8628TIP3    H147299   4.019   3.415  14.515  1.2231 -1.1571 -0.9508
 8628TIP3    H247300   4.167   3.443  14.532  1.0481  0.2163 -1.6029
 8629TIP3   OH247301   4.591   2.025   1.140 -0.0588 -0.0213  0.0870
 8629TIP3    H147302   4.636   2.008   1.223 -0.3573  1.9608  0.7000
 8629TIP3    H247303   4.662   2.032   1.076  0.3031  0.0882  0.4915
 8630TIP3   OH247304   4.032   2.512  11.345 -0.5111  0.0939 -0.2729
 8630TIP3    H147305   3.940   2.524  11.324 -0.2183  0.9267 -1.1269
 8630TIP3    H247306   4.047   2.418  11.334 -1.0443  0.0938 -1.0313
 8631TIP3   OH247307   3.774   3.155   6.418 -0.1212 -0.5919 -0.6832
 8631TIP3    H147308   3.788   3.125   6.328 -1.1934  0.4337 -1.2164
 8631TIP3    H247309   3.692   3.115   6.445 -0.0842 -0.4525 -0.3579
 8632TIP3   OH247310   5.179   3.370  17.234  0.5384 -0.2606  0.4225
 8632TIP3    H147311   5.093   3.332  17.250  0.6175 -0.7894 -0.3785
 8632TIP3    H247312   5.163   3.441  17.172  0.7841 -0.9322 -0.4292
 8633TIP3   OH247313   4.325   5.379  16.772 -0.0181  0.1399 -0.0851
 8633TIP3    H147314   4.394   5.318  16.748 -0.3026 -0.9204  1.6346
 8633TIP3    H247315   4.323   5.442  16.700  0.1367 -1.9673 -2.0506
 8634TIP3   OH247316   0.131   3.722   5.160  0.3454  0.1474  0.0371
 8634TIP3    H147317   0.190   3.744   5.232 -0.4047  1.1904  0.3574
 8634TIP3    H247318   0.043   3.722   5.200 -0.0492  0.4279 -0.8083
 8635TIP3   OH247319   2.738   3.988  12.958 -0.4064  0.1937 -0.6715
 8635TIP3    H147320   2.777   4.028  13.035  0.7755  0.3110 -1.3107
 8635TIP3    H247321   2.752   4.052  12.888  0.0258 -0.6187 -1.3442
 8636TIP3   OH247322   4.553   1.321   5.136  0.5832 -0.2992  0.2187
 8636TIP3    H147323   4.585   1.257   5.072 -0.7757 -0.0942 -0.7134
 8636TIP3    H247324   4.546   1.403   5.087 -0.3844 -0.1169  0.6356
 8637TIP3   OH247325   2.662   2.999   0.914  0.3205 -0.1632  0.1775
 8637TIP3    H147326   2.611   3.002   0.832 -1.0023 -2.0243  0.8754
 8637TIP3    H247327   2.608   3.047   0.977  0.2967 -0.6032  0.4914
 8638TIP3   OH247328   2.483   0.214   5.337  0.6792  0.0566 -0.2021
 8638TIP3    H147329   2.408   0.209   5.278  0.3914  0.5714  0.1262
 8638TIP3    H247330   2.508   0.306   5.337  0.8653  0.0080  0.2528
 8639TIP3   OH247331   0.516   0.811  13.469 -0.2090  0.1255 -1.0554
 8639TIP3    H147332   0.518   0.721  13.503  0.0087  0.7232  0.5717
 8639TIP3    H247333   0.426   0.822  13.438 -0.9552  0.1163  0.9870
 8640TIP3   OH247334   5.187   3.175  11.553  0.1187 -0.3115 -0.1008
 8640TIP3    H147335   5.252   3.221  11.500  0.5545  0.0507  0.7314
 8640TIP3    H247336   5.105   3.222  11.537  0.5630  0.8192  0.7660
 8641TIP3   OH247337   3.986   1.849  17.214 -0.0655 -0.3303  0.4875
 8641TIP3    H147338   3.963   1.757  17.222  0.6312 -0.8002 -2.0498
 8641TIP3    H247339   4.076   1.849  17.183 -0.4433  1.1293 -0.7414
 8642TIP3   OH247340   5.777   6.446  11.423 -0.4539  0.0011  0.2393
 8642TIP3    H147341   5.837   6.440  11.348  0.0504  0.2542  0.6213
 8642TIP3    H247342   5.701   6.394  11.396 -0.0028 -0.4538 -0.1876
 8643TIP3   OH247343   0.274   1.053   5.953 -0.0223  0.3687 -0.2111
 8643TIP3    H147344   0.251   1.005   5.873  2.5001 -1.4507  0.0329
 8643TIP3    H247345   0.328   1.126   5.921  1.0534 -0.4033 -0.2340
 8644TIP3   OH247346   0.241   4.688  17.123 -0.0177 -0.1229  0.3274
 8644TIP3    H147347   0.178   4.752  17.157  0.2960 -0.7865  2.2958
 8644TIP3    H247348   0.186   4.620  17.083 -0.4942  0.0010  0.7540
 8645TIP3   OH247349   1.244   0.535   2.794  0.2937 -0.3603  0.4829
 8645TIP3    H147350   1.336   0.522   2.772 -0.1753 -2.6067 -0.4067
 8645TIP3    H247351   1.213   0.449   2.822 -1.5179  0.3583  0.8341
 8646TIP3   OH247352   2.457   4.020  13.748  0.2505 -0.3791 -0.1578
 8646TIP3    H147353   2.472   4.098  13.802 -1.5329 -0.5444  0.6344
 8646TIP3    H247354   2.367   4.029  13.718 -0.3442 -2.6338  0.7974
 8647TIP3   OH247355   2.706   0.057   2.135 -0.0127  0.0053  0.1112
 8647TIP3    H147356   2.723   0.144   2.098 -2.5199  0.9163  0.9589
 8647TIP3    H247357   2.659   0.011   2.065 -2.6195  0.9157  1.1529
 8648TIP3   OH247358   0.558   1.701  13.112  0.1419  0.2378  0.5466
 8648TIP3    H147359   0.539   1.608  13.124 -0.5178  0.3735  0.5682
 8648TIP3    H247360   0.527   1.744  13.191 -0.5836  0.6159  0.0704
 8649TIP3   OH247361   0.981   3.491   0.451 -0.0861 -0.0051 -0.7114
 8649TIP3    H147362   0.980   3.490   0.546  1.6755  1.0273 -0.6313
 8649TIP3    H247363   0.962   3.582   0.427 -2.5131 -0.6360 -1.4646
 8650TIP3   OH247364   0.700   5.633   1.961 -0.1124 -0.1467 -0.3362
 8650TIP3    H147365   0.698   5.712   2.016 -1.0310  1.6926 -2.8327
 8650TIP3    H247366   0.791   5.603   1.965  0.1636  0.7725  0.9765
 8651TIP3   OH247367   3.839   6.509  10.773  0.7161  0.0363  0.2434
 8651TIP3    H147368   3.785   6.558  10.712  2.0904  1.8057  0.3849
 8651TIP3    H247369   3.776   6.469  10.834 -0.6091 -0.9642 -1.6808
 8652TIP3   OH247370   0.063   5.512   0.803  0.0396 -0.1814 -0.5580
 8652TIP3    H147371   0.064   5.421   0.773 -0.7419 -0.6610  0.7810
 8652TIP3    H247372   0.040   5.507   0.896  0.5015  1.3581 -0.3292
 8653TIP3   OH247373   5.323   4.895  10.995 -0.4010 -0.2452 -0.3846
 8653TIP3    H147374   5.258   4.862  11.058  0.6866  1.4932  1.7915
 8653TIP3    H247375   5.275   4.961  10.945 -0.7604 -0.1279  0.0995
 8654TIP3   OH247376   2.927   4.054   2.020 -0.2774 -0.1021 -0.0642
 8654TIP3    H147377   2.913   4.002   1.941 -0.3245  0.1808 -0.2431
 8654TIP3    H247378   3.020   4.043   2.040 -0.3771 -0.6031  0.1485
 8655TIP3   OH247379   3.816   4.233   5.466  0.1444  0.3982  0.5155
 8655TIP3    H147380   3.746   4.179   5.504  0.8857 -0.0773  1.2497
 8655TIP3    H247381   3.895   4.179   5.476  0.5059  0.6164 -0.9653
 8656TIP3   OH247382   0.977   0.006   2.659  0.1091 -0.2232 -0.1048
 8656TIP3    H147383   0.934   0.059   2.726  0.2417 -1.3146  0.8717
 8656TIP3    H247384   0.960  -0.084   2.686  1.1173 -0.6720 -0.9353
 8657TIP3   OH247385   0.435   1.186   2.921  0.3296  0.5211  0.5914
 8657TIP3    H147386   0.524   1.207   2.895  0.5749 -0.4177  0.6402
 8657TIP3    H247387   0.410   1.112   2.865 -0.0240  0.0710  1.3261
 8658TIP3   OH247388   3.004   4.787  11.991  0.6306  0.3831 -0.2004
 8658TIP3    H147389   2.940   4.793  11.920  0.4983  0.3458 -0.0850
 8658TIP3    H247390   2.956   4.814  12.069  0.2764 -1.2807  0.1861
 8659TIP3   OH247391   1.874   0.145   2.797  0.2516  0.0712 -0.8527
 8659TIP3    H147392   1.918   0.104   2.871 -0.1834  0.7953 -0.1727
 8659TIP3    H247393   1.918   0.109   2.720  0.9594 -0.4161 -0.2403
 8660TIP3   OH247394   5.873   0.371   1.980  0.3567  0.2632 -0.1828
 8660TIP3    H147395   5.812   0.315   1.931 -0.1735 -0.3785  1.1441
 8660TIP3    H247396   5.947   0.314   1.999 -0.9177 -0.6801  2.6732
 8661TIP3   OH247397   2.176   2.032   4.207  0.2728  0.1100 -0.0678
 8661TIP3    H147398   2.104   1.988   4.161  0.0423 -0.1376  0.5234
 8661TIP3    H247399   2.157   2.125   4.198  0.7514  0.1111 -1.3113
 8662TIP3   OH247400   0.647   4.213  12.303  0.1531 -0.6573  0.1946
 8662TIP3    H147401   0.645   4.303  12.272 -0.5685 -0.2394  1.3962
 8662TIP3    H247402   0.577   4.208  12.367 -0.4185 -2.3360 -0.5093
 8663TIP3   OH247403   2.083   5.213  12.567  0.5419 -0.0094 -0.0904
 8663TIP3    H147404   2.017   5.274  12.599 -0.4821 -1.2696  0.3351
 8663TIP3    H247405   2.162   5.234  12.617 -0.7629 -1.3522  2.8149
 8664TIP3   OH247406   6.700   4.015   0.738 -0.1898 -0.4314  0.4035
 8664TIP3    H147407   6.741   4.084   0.790  0.2027 -0.7635  0.5385
 8664TIP3    H247408   6.607   4.038   0.736  0.0920  0.7078 -0.4844
 8665TIP3   OH247409   6.164   6.655  16.074 -0.1434  0.9815  0.4848
 8665TIP3    H147410   6.226   6.700  16.131 -0.3820  0.3426  1.2696
 8665TIP3    H247411   6.100   6.616  16.134 -0.0374 -0.2547 -0.1650
 8666TIP3   OH247412   5.838   1.860  16.014 -0.4135 -0.0587 -0.0613
 8666TIP3    H147413   5.826   1.931  16.076  0.5924  0.2070 -0.1535
 8666TIP3    H247414   5.757   1.857  15.964 -0.6853  0.6410  0.3364
 8667TIP3   OH247415   3.035   2.339  15.789 -0.2274  0.3337  0.7298
 8667TIP3    H147416   2.942   2.363  15.792 -0.7875 -1.4148 -0.7041
 8667TIP3    H247417   3.057   2.339  15.696 -0.8647 -5.9695  0.1090
 8668TIP3   OH247418   4.059   6.750  12.447 -0.1469  0.4841  0.6224
 8668TIP3    H147419   4.140   6.698  12.445 -0.5079 -0.1817  1.9594
 8668TIP3    H247420   4.060   6.800  12.365  0.4293 -1.3104 -0.5173
 8669TIP3   OH247421   4.740   0.793  11.487  0.7447 -0.3033 -0.4957
 8669TIP3    H147422   4.711   0.778  11.397 -0.6348 -2.6246  0.2611
 8669TIP3    H247423   4.836   0.788  11.481  0.7627  0.9582 -2.0108
 8670TIP3   OH247424   0.728   5.873   3.928 -0.3318 -0.5554  0.2042
 8670TIP3    H147425   0.734   5.969   3.932 -1.5200 -0.4858  1.1114
 8670TIP3    H247426   0.779   5.849   3.851 -1.3096  0.9453 -0.9863
 8671TIP3   OH247427   0.408   6.343   4.643  0.2870 -0.1899  0.0098
 8671TIP3    H147428   0.414   6.429   4.601  1.7370 -0.8331 -1.1745
 8671TIP3    H247429   0.320   6.312   4.622 -0.2797  0.9992  0.5019
 8672TIP3   OH247430   5.589   1.371   1.483 -0.1844  0.5753 -0.2650
 8672TIP3    H147431   5.682   1.355   1.494  0.2821  3.8846  2.3455
 8672TIP3    H247432   5.584   1.447   1.425 -1.1953  0.8665  0.1688
 8673TIP3   OH247433   3.289   2.781   2.333 -0.1122  0.2052 -0.0259
 8673TIP3    H147434   3.248   2.838   2.269 -0.6999 -0.7989 -0.5682
 8673TIP3    H247435   3.264   2.818   2.418  2.2777  2.7091 -0.2588
 8674TIP3   OH247436   4.688   3.598   1.240 -0.9323 -0.7137  0.5285
 8674TIP3    H147437   4.638   3.518   1.228 -1.5206 -0.3711  0.6631
 8674TIP3    H247438   4.751   3.597   1.168  0.3307 -2.2102  1.5878
 8675TIP3   OH247439   3.090   1.441  12.061  0.2117 -0.2691  0.2807
 8675TIP3    H147440   3.040   1.446  12.143 -0.2980 -2.1692  0.1360
 8675TIP3    H247441   3.032   1.477  11.994  0.0798 -0.0247  0.5237
 8676TIP3   OH247442   3.052   0.733  16.032  0.4984  0.6520 -0.1768
 8676TIP3    H147443   3.098   0.685  15.963  0.2758 -0.1541  0.2222
 8676TIP3    H247444   3.121   0.783  16.076  0.9376 -0.2377  0.1645
 8677TIP3   OH247445   2.634   6.700   3.888  0.2494  0.1776 -0.2119
 8677TIP3    H147446   2.678   6.622   3.856 -0.0156 -1.0741  2.2830
 8677TIP3    H247447   2.704   6.763   3.903  0.5319  0.2302 -1.5899
 8678TIP3   OH247448   1.590   4.483  12.467 -0.2788  0.1173  0.2231
 8678TIP3    H147449   1.594   4.576  12.442 -0.3246  0.3668  1.1102
 8678TIP3    H247450   1.681   4.459  12.485 -0.6092  1.2917  4.4591
 8679TIP3   OH247451   3.580   4.688  10.789 -0.3289 -0.2450  0.6338
 8679TIP3    H147452   3.612   4.610  10.833  2.3806  1.0061  1.1225
 8679TIP3    H247453   3.536   4.655  10.711  0.8847 -2.2744  0.7257
 8680TIP3   OH247454   6.154   6.526   1.160  0.4101  0.4465 -0.1286
 8680TIP3    H147455   6.116   6.451   1.204 -0.3891  0.4232 -0.8253
 8680TIP3    H247456   6.078   6.579   1.133  0.9440  1.3821  0.1414
 8681TIP3   OH247457   0.329   6.503  13.868 -0.4083  0.0381  0.5761
 8681TIP3    H147458   0.256   6.564  13.874 -1.2514 -0.8992  0.2120
 8681TIP3    H247459   0.392   6.547  13.811 -1.4015  0.2032 -0.4448
 8682TIP3   OH247460   4.908   2.794   5.031  0.5825 -0.1184 -0.2797
 8682TIP3    H147461   4.884   2.739   5.106 -1.3559  1.1382  0.1000
 8682TIP3    H247462   4.828   2.844   5.012  1.8049  1.4219 -1.6050
 8683TIP3   OH247463   2.602   3.760   1.082  0.2734  0.2268  0.4608
 8683TIP3    H147464   2.571   3.788   0.996 -0.5256  0.6133  0.8693
 8683TIP3    H247465   2.688   3.722   1.064  0.8442  1.7914 -0.2856
 8684TIP3   OH247466   2.252   6.123   4.445  0.1590  0.3327 -0.1344
 8684TIP3    H147467   2.184   6.161   4.500 -0.9814  1.4319 -2.1679
 8684TIP3    H247468   2.231   6.030   4.441 -0.4283  0.4403  0.3507
 8685TIP3   OH247469   6.140   3.303  16.927  0.3235 -0.4855 -0.0466
 8685TIP3    H147470   6.144   3.228  16.986 -1.9984 -2.1541 -1.7797
 8685TIP3    H247471   6.046   3.320  16.917  0.7315  1.2663 -1.3924
 8686TIP3   OH247472   3.263   0.446  15.431  0.1615  0.0617  0.5169
 8686TIP3    H147473   3.217   0.373  15.390 -0.5801  0.3676  0.7744
 8686TIP3    H247474   3.346   0.453  15.383  0.1517 -0.8079  0.3584
 8687TIP3   OH247475   4.722   6.161   1.722  0.0030  0.1297  0.3116
 8687TIP3    H147476   4.679   6.091   1.771 -0.8326  1.3478  1.4051
 8687TIP3    H247477   4.657   6.232   1.719  0.4763  0.5457 -1.5586
 8688TIP3   OH247478   4.744   0.876  16.973 -0.0311 -0.1314  0.1771
 8688TIP3    H147479   4.744   0.783  16.949  0.4327  0.2424 -1.4231
 8688TIP3    H247480   4.830   0.907  16.946 -0.4082  0.8928  0.1211
 8689TIP3   OH247481   5.788   2.569   1.873  0.0195 -0.1469  0.4258
 8689TIP3    H147482   5.870   2.527   1.849 -0.7672 -0.8590 -1.2265
 8689TIP3    H247483   5.725   2.536   1.809 -2.0321 -1.2026  2.8433
 8690TIP3   OH247484   2.272   3.947   4.128 -0.4949 -0.5682  0.2315
 8690TIP3    H147485   2.247   4.014   4.064  1.1145  0.4382  0.6181
 8690TIP3    H247486   2.225   3.868   4.099 -0.5967  0.1173 -1.5917
 8691TIP3   OH247487   4.446   4.344  12.914 -0.5754 -0.0324 -0.5736
 8691TIP3    H147488   4.356   4.353  12.882 -1.2383 -3.6856 -0.1248
 8691TIP3    H247489   4.440   4.360  13.008 -0.8164 -0.5793 -0.4961
 8692TIP3   OH247490   4.922   1.929  13.056  0.4962  0.1696 -0.7065
 8692TIP3    H147491   4.859   1.988  13.097  0.7971  0.4646 -0.6632
 8692TIP3    H247492   4.901   1.933  12.962  0.4763  0.3004 -0.6972
 8693TIP3   OH247493   0.294   0.654  16.828  0.8450 -0.1976 -0.3950
 8693TIP3    H147494   0.226   0.653  16.761  1.2945 -2.1309 -0.9047
 8693TIP3    H247495   0.338   0.738  16.817 -1.3142  1.0224 -0.1554
 8694TIP3   OH247496   4.105   1.578   4.845  0.1864  0.6270  0.0985
 8694TIP3    H147497   4.156   1.645   4.800 -0.3575  0.5654 -0.6406
 8694TIP3    H247498   4.023   1.622   4.869  0.1377  0.4320  0.2972
 8695TIP3   OH247499   5.393   3.709   5.430 -0.0761 -0.8788  0.2211
 8695TIP3    H147500   5.480   3.669   5.428  0.8309  1.0222  0.0078
 8695TIP3    H247501   5.400   3.778   5.495 -1.1219 -0.0180 -0.5511
 8696TIP3   OH247502   3.978   0.578  12.994  0.2202 -0.1768  0.1021
 8696TIP3    H147503   4.039   0.508  13.013  0.0712 -0.6778 -1.1719
 8696TIP3    H247504   3.903   0.561  13.051  1.6161  1.0348  2.4453
 8697TIP3   OH247505   1.603   1.849  15.122  0.0869 -0.0584 -0.2679
 8697TIP3    H147506   1.532   1.860  15.185  0.2245 -1.0656  0.0770
 8697TIP3    H247507   1.678   1.820  15.175 -0.1632 -2.2465 -1.0346
 8698TIP3   OH247508   1.055   4.598   4.431 -0.3457  0.4137  0.0986
 8698TIP3    H147509   1.100   4.676   4.463 -0.7875  0.6374  0.1691
 8698TIP3    H247510   1.032   4.549   4.510  0.5167 -0.1282  0.0386
 8699TIP3   OH247511   5.130   6.212  15.995  0.2641 -0.4347 -0.4915
 8699TIP3    H147512   5.186   6.233  16.069  0.2662 -1.9546 -0.0153
 8699TIP3    H247513   5.164   6.264  15.922  2.0514 -1.0328 -0.1217
 8700TIP3   OH247514   6.125   4.432   0.452  0.1784  0.2769 -0.4728
 8700TIP3    H147515   6.169   4.471   0.527  0.9966 -0.3574 -0.6011
 8700TIP3    H247516   6.032   4.443   0.470  0.3563  0.0118  0.7150
 8701TIP3   OH247517   0.771   3.317   4.298 -0.2512 -0.2510 -0.3201
 8701TIP3    H147518   0.702   3.337   4.235 -0.2710  0.9448  0.0588
 8701TIP3    H247519   0.745   3.363   4.378  0.6686 -0.2942  0.0179
 8702TIP3   OH247520   6.228   1.060   4.476  0.7294  0.7444  0.5733
 8702TIP3    H147521   6.138   1.029   4.483  0.7939  0.7096  1.4026
 8702TIP3    H247522   6.246   1.064   4.382 -0.3541  1.3974  0.3798
 8703TIP3   OH247523   3.190   0.949   5.141  0.5967 -0.0639  0.0237
 8703TIP3    H147524   3.199   1.033   5.096  1.1584 -0.0520  0.1637
 8703TIP3    H247525   3.106   0.956   5.186  0.2601  0.1183 -0.6094
 8704TIP3   OH247526   2.456   5.229   2.236  0.4254  0.0581 -0.6791
 8704TIP3    H147527   2.380   5.197   2.283  0.4948  0.4352 -0.3016
 8704TIP3    H247528   2.422   5.300   2.181  0.3730 -0.2744 -1.0811
 8705TIP3   OH247529   4.320   4.297   5.012 -0.0725  0.1707 -0.4897
 8705TIP3    H147530   4.317   4.376   4.957 -2.5468 -0.2300 -1.0537
 8705TIP3    H247531   4.315   4.330   5.101  0.4424  0.6997 -0.6505
 8706TIP3   OH247532   5.800   3.123  12.778 -0.0732  0.0515 -0.3955
 8706TIP3    H147533   5.838   3.038  12.801 -3.0119 -1.7114 -1.5249
 8706TIP3    H247534   5.706   3.107  12.773 -0.7298  3.3736 -0.8561
 8707TIP3   OH247535   0.054   4.382  11.356 -0.0797  0.0660  0.1808
 8707TIP3    H147536  -0.029   4.424  11.379  0.0920  1.0079 -0.8168
 8707TIP3    H247537   0.056   4.302  11.408 -0.9838  0.6966  1.2383
 8708TIP3   OH247538   0.327   2.078  13.306 -0.0335  0.0375  0.0387
 8708TIP3    H147539   0.273   2.107  13.380 -0.8386  2.2155 -1.3120
 8708TIP3    H247540   0.379   2.155  13.282  2.0846 -1.3598 -0.1230
 8709TIP3   OH247541   6.284   0.609  16.032  0.0557 -0.0572 -0.1647
 8709TIP3    H147542   6.219   0.649  16.090  0.7045  1.9227 -0.7141
 8709TIP3    H247543   6.348   0.570  16.091  0.5142  1.6153  0.5131
 8710TIP3   OH247544   2.879   3.813  16.477 -0.0845  0.4150 -0.1282
 8710TIP3    H147545   2.952   3.797  16.417 -1.4190 -2.8443 -1.0917
 8710TIP3    H247546   2.920   3.850  16.555  2.5412 -0.8278 -0.8120
 8711TIP3   OH247547   5.388   0.223  16.435  0.7339  0.0746  0.4920
 8711TIP3    H147548   5.361   0.170  16.360 -2.4065  0.5730  1.1507
 8711TIP3    H247549   5.417   0.160  16.500 -0.4654 -0.6923  0.3171
 8712TIP3   OH247550   5.212   6.270   5.868 -0.0981 -0.3364  0.2258
 8712TIP3    H147551   5.169   6.254   5.953 -0.8325  1.1591  0.1536
 8712TIP3    H247552   5.146   6.313   5.815  1.2558  1.3954 -0.1369
 8713TIP3   OH247553   4.227   3.779   2.900  1.2016 -0.1603 -0.0164
 8713TIP3    H147554   4.215   3.754   2.808  0.4120 -3.6424  0.8974
 8713TIP3    H247555   4.162   3.848   2.914 -2.8352 -3.4013 -0.8094
 8714TIP3   OH247556   0.247   3.467   0.925 -0.2566  0.6541 -0.4402
 8714TIP3    H147557   0.278   3.524   0.996 -0.4400  0.7993 -0.4746
 8714TIP3    H247558   0.327   3.435   0.884 -0.1481  0.4051 -0.0389
 8715TIP3   OH247559   4.976   0.183   4.999  0.7437  0.2219 -0.5111
 8715TIP3    H147560   4.998   0.139   5.082  0.3906  2.3974  0.8116
 8715TIP3    H247561   5.017   0.269   5.006 -0.3375  0.9086 -2.0601
 8716TIP3   OH247562   6.507   6.269   6.602  0.1861  0.0038  0.1335
 8716TIP3    H147563   6.559   6.314   6.536  0.5107 -0.0379  0.3580
 8716TIP3    H247564   6.459   6.338   6.646  2.2603  0.4444  1.8991
 8717TIP3   OH247565   0.113   4.250  15.001  0.1673 -0.5341 -0.3132
 8717TIP3    H147566   0.026   4.236  14.961  0.2060  0.9720 -0.9888
 8717TIP3    H247567   0.094   4.291  15.085  0.2013 -0.7526 -0.2002
 8718TIP3   OH247568   2.483   5.580   4.252  0.1114  0.0268  0.2413
 8718TIP3    H147569   2.501   5.581   4.158 -1.5199  0.2255 -0.1043
 8718TIP3    H247570   2.392   5.609   4.259 -0.0322 -0.7076  1.8278
 8719TIP3   OH247571   0.445   1.062  11.451 -1.2487 -0.0058 -0.4348
 8719TIP3    H147572   0.449   0.968  11.433  2.3318 -0.1333  0.2625
 8719TIP3    H247573   0.410   1.067  11.540 -1.7285 -0.6695 -0.5787
 8720TIP3   OH247574   4.324   5.582   0.605 -0.0601  0.1090 -0.6525
 8720TIP3    H147575   4.303   5.574   0.512  0.1654 -0.9726 -0.6296
 8720TIP3    H247576   4.258   5.643   0.639 -1.9696 -1.6325 -0.9823
 8721TIP3   OH247577   6.115   1.630   0.109  0.3399 -0.3272  0.3476
 8721TIP3    H147578   6.136   1.707   0.163 -2.2575  1.6572 -1.2371
 8721TIP3    H247579   6.052   1.581   0.161  0.1744 -0.0826  0.3814
 8722TIP3   OH247580   6.521   1.483  15.652 -0.0210  0.0261 -0.0909
 8722TIP3    H147581   6.499   1.391  15.638 -0.7002  0.4112 -1.8240
 8722TIP3    H247582   6.546   1.515  15.565 -1.3526  1.8658  0.1427
 8723TIP3   OH247583   6.309   4.774   4.499 -0.3906  0.4585  0.1913
 8723TIP3    H147584   6.320   4.692   4.451 -0.1714 -0.6263  1.9741
 8723TIP3    H247585   6.383   4.776   4.560 -0.5210  1.8812  0.3444
 8724TIP3   OH247586   4.985   5.578   2.325 -0.1550 -0.2433  0.0177
 8724TIP3    H147587   4.971   5.601   2.234 -1.5640 -0.6577  0.1008
 8724TIP3    H247588   4.961   5.485   2.330 -0.7603 -0.0523  0.9275
 8725TIP3   OH247589   4.403   3.992  11.758 -0.1698 -0.6561 -0.4157
 8725TIP3    H147590   4.421   3.968  11.668 -2.0770  0.9118 -1.2982
 8725TIP3    H247591   4.308   3.978  11.768  0.0225 -0.9335  1.4015
 8726TIP3   OH247592   0.351   6.720  15.168  0.0825  0.0239  0.2288
 8726TIP3    H147593   0.406   6.765  15.232 -0.1268  0.9433 -0.2195
 8726TIP3    H247594   0.295   6.789  15.132  0.3740 -0.4186 -1.1210
 8727TIP3   OH247595   0.826   4.043  14.902 -0.4818  0.1712 -0.5509
 8727TIP3    H147596   0.878   4.053  14.822  1.1471 -0.7847  0.3460
 8727TIP3    H247597   0.792   3.954  14.897 -0.0891 -0.0115 -0.0289
 8728TIP3   OH247598   3.395   5.109   0.299 -0.5529 -0.0055  0.8824
 8728TIP3    H147599   3.415   5.196   0.263 -2.8670  0.1503 -0.1965
 8728TIP3    H247600   3.343   5.067   0.231 -0.0740 -2.0073  1.6855
 8729TIP3   OH247601   3.584   5.071  12.004  0.0150  0.0230  0.3928
 8729TIP3    H147602   3.652   5.121  12.049 -0.3869  0.5562  0.4174
 8729TIP3    H247603   3.629   4.992  11.973  0.6209  0.3296  0.4745
 8730TIP3   OH247604   1.860   5.219   1.103  0.0496 -0.4078  0.8884
 8730TIP3    H147605   1.948   5.207   1.138 -0.0755  1.4688  1.9559
 8730TIP3    H247606   1.805   5.237   1.179 -1.0963 -0.6081  0.1451
 8731TIP3   OH247607   2.613   4.472   5.453 -0.1956  0.3027 -0.1984
 8731TIP3    H147608   2.551   4.407   5.421 -0.8197  0.8139 -0.0401
 8731TIP3    H247609   2.698   4.427   5.451 -0.5554 -0.3789 -0.4732
 8732TIP3   OH247610   0.364   4.060   5.058 -0.0541 -0.6208  0.0153
 8732TIP3    H147611   0.325   4.011   5.130 -1.0212  0.1606  0.0554
 8732TIP3    H247612   0.357   4.002   4.982  0.7419 -1.3473  0.4859
 8733TIP3   OH247613   2.715   5.814  10.593  0.0552 -0.0111  0.1946
 8733TIP3    H147614   2.709   5.899  10.550 -0.1010 -0.0579  0.1229
 8733TIP3    H247615   2.747   5.834  10.681 -1.3970  0.2771  0.6791
 8734TIP3   OH247616   1.534   1.271  15.149 -0.3615  0.3995 -0.1540
 8734TIP3    H147617   1.454   1.232  15.185  0.7127 -2.2920 -0.4372
 8734TIP3    H247618   1.603   1.209  15.172  1.6636  2.5793 -0.0220
 8735TIP3   OH247619   5.106   4.726  11.637 -0.1922 -0.1896  0.0344
 8735TIP3    H147620   5.089   4.692  11.724  0.9947  1.0777  0.7989
 8735TIP3    H247621   5.042   4.796  11.625 -0.7272 -0.7316 -0.3664
 8736TIP3   OH247622   2.186   2.020  11.362 -0.0271  0.6593 -0.1206
 8736TIP3    H147623   2.144   1.935  11.351  0.2616  0.6973 -1.8275
 8736TIP3    H247624   2.273   2.008  11.323  0.6081  1.3086  1.0344
 8737TIP3   OH247625   5.584   2.205  14.153 -0.2582 -0.1436 -0.1652
 8737TIP3    H147626   5.573   2.118  14.192  0.5193 -0.5165 -0.7488
 8737TIP3    H247627   5.667   2.200  14.105 -0.0357  1.0202  0.0560
 8738TIP3   OH247628   4.817   4.420   2.607  0.0666 -0.1052  0.0527
 8738TIP3    H147629   4.799   4.449   2.696  1.4992 -1.1826  0.7275
 8738TIP3    H247630   4.913   4.413   2.603  0.0208 -0.0913 -1.5608
 8739TIP3   OH247631   4.052   4.534   2.093 -0.5415  0.5425  0.7084
 8739TIP3    H147632   3.961   4.508   2.106 -1.1331  0.7526 -2.3049
 8739TIP3    H247633   4.095   4.455   2.060 -0.1046  0.9785  0.2202
 8740TIP3   OH247634   6.511   0.763  15.541 -0.4975 -0.2658 -0.0618
 8740TIP3    H147635   6.595   0.753  15.586  0.1714  0.4926 -1.0894
 8740TIP3    H247636   6.527   0.831  15.476 -1.3437 -1.5420 -1.6696
 8741TIP3   OH247637   4.770   0.163  11.744  0.1793  0.1413 -0.7156
 8741TIP3    H147638   4.865   0.171  11.738 -0.0080  1.6936 -2.5377
 8741TIP3    H247639   4.754   0.069  11.738  1.5691 -0.1266 -0.6607
 8742TIP3   OH247640   0.313   1.841   2.776  0.8918  0.4390  0.0388
 8742TIP3    H147641   0.390   1.872   2.824  2.0742 -1.2604 -0.6515
 8742TIP3    H247642   0.261   1.796   2.841  1.1157  0.4948  0.2586
 8743TIP3   OH247643   0.987   4.577   4.170 -0.1425  0.3596  0.1340
 8743TIP3    H147644   1.070   4.600   4.128  1.2837 -2.4419  1.1704
 8743TIP3    H247645   1.006   4.579   4.264 -1.3321 -0.0955  0.4072
 8744TIP3   OH247646   2.675   1.895  13.096 -0.1747 -0.1055 -0.0573
 8744TIP3    H147647   2.639   1.898  13.008 -0.8072  0.8249  0.2145
 8744TIP3    H247648   2.727   1.975  13.103  0.9818 -0.8361 -0.0310
 8745TIP3   OH247649   3.205   2.802   0.481  0.3942  0.1947 -0.5797
 8745TIP3    H147650   3.176   2.727   0.533  0.1095  0.3597 -0.4989
 8745TIP3    H247651   3.260   2.853   0.540  0.7595 -0.0564 -0.6973
 8746TIP3   OH247652   0.234   2.423   0.115 -0.2002  0.3630 -0.2033
 8746TIP3    H147653   0.201   2.337   0.142 -0.9724  0.1331 -1.8052
 8746TIP3    H247654   0.328   2.419   0.130 -0.1634 -0.9373 -0.6946
 8747TIP3   OH247655   5.244   4.044  13.266 -0.1693  0.8175 -0.2448
 8747TIP3    H147656   5.322   3.988  13.261 -0.0840  0.9479 -0.3686
 8747TIP3    H247657   5.177   3.987  13.305 -0.0158  0.7026 -0.1471
 8748TIP3   OH247658   4.259   2.364   5.448 -0.0259  0.4549 -0.6836
 8748TIP3    H147659   4.298   2.348   5.534 -1.8405  0.9360  0.2896
 8748TIP3    H247660   4.323   2.331   5.386  0.7980 -1.0915  0.8907
 8749TIP3   OH247661   6.219   1.222   1.324 -0.0191  0.2737 -0.0079
 8749TIP3    H147662   6.304   1.211   1.281 -0.2004 -1.3730 -0.0149
 8749TIP3    H247663   6.155   1.215   1.254 -0.2630 -1.2251  0.3398
 8750TIP3   OH247664   3.052   3.704  14.026  0.5732  0.5554  0.3029
 8750TIP3    H147665   2.998   3.723  13.949  1.0954 -0.2615 -0.2803
 8750TIP3    H247666   3.066   3.789  14.067  0.8698  1.1160 -0.9066
 8751TIP3   OH247667   6.417   6.009   6.134 -0.7415 -0.1121  0.9310
 8751TIP3    H147668   6.448   6.099   6.124 -0.0208 -0.4942 -0.4454
 8751TIP3    H247669   6.445   5.984   6.222 -1.1517  1.0653  1.4216
 8752TIP3   OH247670   0.791   6.430  13.915 -0.4620 -0.0954  0.1565
 8752TIP3    H147671   0.860   6.413  13.851  0.0581  0.8012  0.4736
 8752TIP3    H247672   0.799   6.523  13.936 -0.7795 -0.3178  1.3466
 8753TIP3   OH247673   5.255   0.180   5.548  0.0221  0.3464  0.7272
 8753TIP3    H147674   5.265   0.275   5.544 -2.4670  0.6377 -0.5614
 8753TIP3    H247675   5.252   0.152   5.457 -0.9803 -0.7227  1.0581
 8754TIP3   OH247676   3.272   5.529   0.869 -0.9259 -0.2787  0.3522
 8754TIP3    H147677   3.305   5.547   0.781 -0.3540  1.1107  0.8154
 8754TIP3    H247678   3.220   5.450   0.860 -1.4241  0.2092 -1.3684
 8755TIP3   OH247679   1.615   2.174   4.478  0.3693 -0.0603  0.5877
 8755TIP3    H147680   1.695   2.221   4.454  0.2058  0.2011  0.5486
 8755TIP3    H247681   1.559   2.241   4.517 -1.4097  0.6889 -2.8375
 8756TIP3   OH247682   5.501   2.549  11.390  0.3494 -0.1398 -0.1439
 8756TIP3    H147683   5.531   2.589  11.472  0.5378 -1.0255  0.2301
 8756TIP3    H247684   5.580   2.541  11.337  0.2111  0.5235 -0.4597
 8757TIP3   OH247685   4.172   3.396   1.376 -0.4222 -0.2423  0.3561
 8757TIP3    H147686   4.175   3.326   1.441 -0.0644 -2.0999 -1.5373
 8757TIP3    H247687   4.245   3.378   1.317  1.0379  3.0419  0.9731
 8758TIP3   OH247688   0.435   5.339  10.317 -0.0857  0.2124 -0.5042
 8758TIP3    H147689   0.348   5.315  10.349 -0.3209 -0.6424 -1.7336
 8758TIP3    H247690   0.418   5.396  10.242  0.4486  1.3270  0.1990
 8759TIP3   OH247691   0.089   1.154   4.181 -0.0608  0.5061  0.3928
 8759TIP3    H147692   0.110   1.080   4.124  0.4851  1.8126 -1.1644
 8759TIP3    H247693  -0.006   1.153   4.187 -0.0020 -1.1814  1.6192
 8760TIP3   OH247694   0.207   6.000  13.741  0.3360  0.1385  0.1922
 8760TIP3    H147695   0.193   5.979  13.833 -1.7491  0.7108  0.0515
 8760TIP3    H247696   0.273   5.937  13.712  1.6588  0.4734  2.2481
 8761TIP3   OH247697   3.923   1.760   0.449  0.6701  0.4364  0.5055
 8761TIP3    H147698   3.852   1.809   0.491 -0.2538 -1.0459  0.7284
 8761TIP3    H247699   3.911   1.777   0.356  0.3111  0.5755  0.5728
 8762TIP3   OH247700   3.214   1.515   6.017  0.7102 -0.0195  0.0817
 8762TIP3    H147701   3.144   1.461   5.981 -0.4217  1.8409 -0.7046
 8762TIP3    H247702   3.286   1.507   5.954 -0.4276  1.4086 -1.5136
 8763TIP3   OH247703   0.621   3.921  12.493  0.4856 -0.2104  0.2996
 8763TIP3    H147704   0.526   3.927  12.489  0.4074  3.9423  2.7003
 8763TIP3    H247705   0.651   3.974  12.418  0.9310 -0.7588  0.0790
 8764TIP3   OH247706   0.903   2.469   2.749  0.8356 -0.4197 -0.1439
 8764TIP3    H147707   0.891   2.417   2.828 -1.8909 -0.5842 -0.5554
 8764TIP3    H247708   0.853   2.549   2.765 -0.6666 -0.9074 -2.0098
 8765TIP3   OH247709   2.291   5.916   1.727  0.4477  0.0509  0.2284
 8765TIP3    H147710   2.203   5.937   1.695  0.8954  0.7449 -0.5799
 8765TIP3    H247711   2.307   5.826   1.699  0.0082 -0.0657  0.3530
 8766TIP3   OH247712   1.353   2.137   1.026 -0.0416 -0.0200  0.0319
 8766TIP3    H147713   1.341   2.223   1.066  0.2339 -0.0179  0.1172
 8766TIP3    H247714   1.326   2.075   1.094  1.4462 -0.0518  0.6484
 8767TIP3   OH247715   2.743   3.287  13.757 -0.2328 -0.4188 -0.2269
 8767TIP3    H147716   2.723   3.203  13.799  0.4996 -0.0988  0.7858
 8767TIP3    H247717   2.662   3.338  13.766 -0.5025 -0.8125 -0.3674
 8768TIP3   OH247718   4.226   5.095   0.769  0.0808  0.0574  0.1776
 8768TIP3    H147719   4.151   5.064   0.820 -0.2313  1.2322  0.4829
 8768TIP3    H247720   4.187   5.134   0.691  0.2380  1.8657  0.9554
 8769TIP3   OH247721   5.312   4.316  13.803  0.4804 -0.1729  0.1345
 8769TIP3    H147722   5.256   4.394  13.806  0.6488  0.0088 -0.9813
 8769TIP3    H247723   5.276   4.263  13.733 -0.3927 -1.7374  1.6891
 8770TIP3   OH247724   0.464   3.946  13.207 -0.1789 -0.2895 -0.2979
 8770TIP3    H147725   0.480   3.909  13.120 -0.6474  2.0046 -1.4565
 8770TIP3    H247726   0.551   3.971  13.238 -0.0094 -1.1064 -0.1052
 8771TIP3   OH247727   2.912   6.482  12.561  0.2500  0.4277 -0.3639
 8771TIP3    H147728   2.923   6.433  12.642 -0.3654  1.5445  0.4225
 8771TIP3    H247729   2.995   6.471  12.514  1.0618  0.7564  0.9674
 8772TIP3   OH247730   2.303   4.048  16.895  0.5342  0.1455  0.3485
 8772TIP3    H147731   2.229   4.079  16.946 -1.8339  0.3777 -2.8794
 8772TIP3    H247732   2.314   3.956  16.921 -1.8311 -0.2902  0.0283
 8773TIP3   OH247733   3.678   1.222  14.048  0.3515 -0.5302 -0.0382
 8773TIP3    H147734   3.765   1.198  14.016  0.0375 -0.5367 -0.8914
 8773TIP3    H247735   3.672   1.316  14.034 -0.1300 -0.6773 -0.8350
 8774TIP3   OH247736   6.660   4.075  13.056  0.2086 -0.4691 -0.1695
 8774TIP3    H147737   6.753   4.054  13.066 -0.2799 -2.1367  1.4785
 8774TIP3    H247738   6.641   4.058  12.964  1.1737 -1.8745 -0.1458
 8775TIP3   OH247739   6.417   5.393  13.010 -0.1190 -0.5237 -0.0056
 8775TIP3    H147740   6.380   5.468  13.057  0.5632 -0.3928  0.3276
 8775TIP3    H247741   6.485   5.360  13.068  0.9602 -0.1677 -1.0428
 8776TIP3   OH247742   2.196   0.951  16.414  0.2883 -0.0147  0.2430
 8776TIP3    H147743   2.195   0.982  16.323  0.3290 -0.4885  0.0776
 8776TIP3    H247744   2.132   0.879  16.415  0.1463  0.1195  0.6352
 8777TIP3   OH247745   6.542   0.278  16.909  0.1277  0.1340  0.0878
 8777TIP3    H147746   6.509   0.360  16.947  1.6187  1.2635 -0.9438
 8777TIP3    H247747   6.476   0.254  16.844 -0.5700  0.2209  0.7453
 8778TIP3   OH247748   1.025   0.131  12.051 -0.6039 -0.0904  0.3363
 8778TIP3    H147749   1.116   0.146  12.077 -0.8921 -0.7179  1.8591
 8778TIP3    H247750   1.005   0.202  11.991  0.0748  1.6638  2.0748
 8779TIP3   OH247751   3.436   6.187  13.884  0.6892  0.2282  0.0750
 8779TIP3    H147752   3.508   6.170  13.823  0.2829  1.5969 -0.8451
 8779TIP3    H247753   3.379   6.247  13.836 -0.9565 -0.6602  0.8774
 8780TIP3   OH247754   6.288   1.601  13.911  0.4490 -0.0733  0.0308
 8780TIP3    H147755   6.264   1.592  14.003 -0.7748 -1.3333 -0.3722
 8780TIP3    H247756   6.376   1.565  13.905  1.3074  1.7000  0.9906
 8781TIP3   OH247757   0.979   0.867  13.666 -0.1840 -0.0345 -0.1029
 8781TIP3    H147758   1.062   0.916  13.660  0.8630 -1.7386 -0.2600
 8781TIP3    H247759   1.006   0.776  13.678 -2.0458 -0.7918 -1.2609
 8782TIP3   OH247760   2.785   6.339  11.946 -0.1625  0.0787  0.3524
 8782TIP3    H147761   2.724   6.409  11.924 -0.8930 -0.4134  0.7862
 8782TIP3    H247762   2.775   6.275  11.875 -0.0327  0.0780  0.3349
 8783TIP3   OH247763   3.048   2.253  16.865  0.1344 -0.5603 -0.0446
 8783TIP3    H147764   3.095   2.314  16.809 -3.3854  1.7622 -0.7953
 8783TIP3    H247765   2.980   2.217  16.808  0.1925 -2.8930  1.2450
 8784TIP3   OH247766   5.597   0.551  15.328 -0.6474  0.6585 -0.1565
 8784TIP3    H147767   5.552   0.563  15.411  0.1502  0.6977  0.2783
 8784TIP3    H247768   5.537   0.589  15.263 -1.0389  1.1133  0.4569
 8785TIP3   OH247769   5.654   4.703  12.639 -0.3659  0.0014 -0.2208
 8785TIP3    H147770   5.700   4.620  12.624 -0.4380 -0.3275  1.2371
 8785TIP3    H247771   5.711   4.770  12.601  0.5903 -0.5501  0.2163
 8786TIP3   OH247772   3.770   2.044  15.641  0.9381 -0.4580  0.2944
 8786TIP3    H147773   3.852   1.995  15.639  0.8793 -0.5396 -0.1527
 8786TIP3    H247774   3.719   2.010  15.567  0.6846 -0.0921  0.2966
 8787TIP3   OH247775   1.944   2.391  15.410 -0.3694 -0.1533  0.6548
 8787TIP3    H147776   2.025   2.442  15.406 -0.8822  0.7043  0.9618
 8787TIP3    H247777   1.968   2.305  15.373  0.4303  0.4083 -0.1882
 8788TIP3   OH247778   1.785   5.557   3.219  0.0059 -0.0994 -0.0285
 8788TIP3    H147779   1.745   5.544   3.306  0.8035  0.4023  0.4281
 8788TIP3    H247780   1.854   5.491   3.215  1.9804  1.7774  0.9995
 8789TIP3   OH247781   2.701   4.197  15.398 -0.4719 -0.5270 -0.4090
 8789TIP3    H147782   2.640   4.145  15.450  0.2108  1.7093  2.9282
 8789TIP3    H247783   2.666   4.286  15.401  1.8873  0.4590 -0.0750
 8790TIP3   OH247784   0.911   1.788  16.930  0.3014 -0.2875 -0.1993
 8790TIP3    H147785   0.965   1.759  16.857  1.5232  0.0611  0.5222
 8790TIP3    H247786   0.853   1.854  16.893  1.3816  0.3912 -0.7218
 8791TIP3   OH247787   3.015   4.152  15.592  0.3062 -0.6287 -0.0550
 8791TIP3    H147788   3.106   4.168  15.568  0.2694  1.0519  0.8219
 8791TIP3    H247789   2.987   4.232  15.637 -1.6537 -1.0318 -0.4567
 8792TIP3   OH247790   5.683   2.910   4.003 -0.1855  0.7207 -0.2771
 8792TIP3    H147791   5.720   2.828   4.037 -0.4045  0.7010 -0.0831
 8792TIP3    H247792   5.626   2.881   3.931 -0.2965  0.7001 -0.1807
 8793TIP3   OH247793   4.382   3.862  15.513 -0.4013  0.0004  0.2419
 8793TIP3    H147794   4.298   3.897  15.485 -1.0550 -0.2899  1.7676
 8793TIP3    H247795   4.397   3.786  15.455 -1.5952 -0.4510  0.5078
 8794TIP3   OH247796   0.104   6.476   5.800 -0.0245 -0.0549  0.1179
 8794TIP3    H147797   0.082   6.509   5.713 -3.1912 -1.6045  0.1951
 8794TIP3    H247798   0.158   6.398   5.783  0.1252  0.1553 -0.4057
 8795TIP3   OH247799   3.021   1.045  17.049  0.0287  0.3744  0.3187
 8795TIP3    H147800   2.929   1.054  17.073  0.0323 -1.6138  1.2971
 8795TIP3    H247801   3.049   1.134  17.027 -2.0792  1.0357  0.0955
 8796TIP3   OH247802   2.823   0.454  17.206  0.1759 -0.3303 -0.2356
 8796TIP3    H147803   2.805   0.421  17.294  1.8588  1.4162  0.8606
 8796TIP3    H247804   2.738   0.459  17.164 -0.6527 -1.3753  1.2284
 8797TIP3   OH247805   1.092   1.438  16.016 -0.0280  0.0035 -0.2083
 8797TIP3    H147806   1.109   1.518  16.067  1.1031 -0.2611 -0.1379
 8797TIP3    H247807   1.080   1.469  15.926 -1.3194  0.4033  0.0811
 8798TIP3   OH247808   2.178   2.503   2.440 -0.1961 -0.3801  0.0016
 8798TIP3    H147809   2.189   2.437   2.509 -0.4481 -1.5980 -1.0793
 8798TIP3    H247810   2.140   2.579   2.485  0.1767 -0.9420  1.2951
 8799TIP3   OH247811   3.820   0.366  13.699  0.0260  0.5553  0.3984
 8799TIP3    H147812   3.886   0.386  13.632  0.4463  1.6112  1.0985
 8799TIP3    H247813   3.745   0.333  13.649  1.3174 -1.3981 -0.3589
 8800TIP3   OH247814   4.961   2.454   2.496  0.4673 -0.1975 -0.0116
 8800TIP3    H147815   5.011   2.410   2.427  1.4536 -0.7569  1.0182
 8800TIP3    H247816   5.013   2.532   2.518 -0.8320  1.0590 -1.2204
 8801TIP3   OH247817   2.101   5.092  15.942  0.7635 -0.0591 -0.1436
 8801TIP3    H147818   2.089   5.148  16.019 -2.0571 -0.4352 -0.1788
 8801TIP3    H247819   2.133   5.151  15.875  1.0355  0.7928  0.7115
 8802TIP3   OH247820   2.005   4.073   2.391 -0.0031 -0.2724  0.2617
 8802TIP3    H147821   2.016   4.034   2.304 -1.7623  2.4206 -1.3037
 8802TIP3    H247822   2.066   4.147   2.393  0.7753 -0.8918  1.7999
 8803TIP3   OH247823   3.121   4.000   5.334 -0.2136 -0.3779  0.2047
 8803TIP3    H147824   3.032   3.969   5.348 -0.6239  1.1726  1.3321
 8803TIP3    H247825   3.129   4.011   5.239 -2.8658  3.7935  0.2101
 8804TIP3   OH247826   3.952   5.586  15.851 -0.5374  0.2030 -0.5306
 8804TIP3    H147827   3.862   5.609  15.874 -0.7545 -0.1713 -0.9966
 8804TIP3    H247828   3.953   5.490  15.850  0.0628  0.1902  0.2199
 8805TIP3   OH247829   4.508   3.527   3.022  0.0523  0.1303  0.3902
 8805TIP3    H147830   4.416   3.503   3.035 -0.5849  1.2849 -1.5386
 8805TIP3    H247831   4.556   3.446   3.036 -1.5609 -1.2006 -1.2634
 8806TIP3   OH247832   4.950   2.744  10.893 -0.1441  0.4636 -0.5229
 8806TIP3    H147833   5.018   2.720  10.829  0.6061  0.3329  0.3002
 8806TIP3    H247834   4.876   2.689  10.871  0.8372 -1.1625  0.0346
 8807TIP3   OH247835   1.425   2.070   5.848 -0.3718 -0.2469  0.0429
 8807TIP3    H147836   1.487   2.133   5.812  0.6330 -1.1261  0.1847
 8807TIP3    H247837   1.434   1.993   5.791 -0.4487 -0.8204  0.7929
 8808TIP3   OH247838   6.117   6.260  15.132  0.0261 -0.2895 -0.0888
 8808TIP3    H147839   6.082   6.171  15.135  0.1345 -0.3437 -0.3878
 8808TIP3    H247840   6.208   6.250  15.160 -0.0108 -0.2467  0.0465
 8809TIP3   OH247841   0.040   1.009   5.319  0.7267 -0.5578  0.0456
 8809TIP3    H147842  -0.044   0.975   5.287  0.0851  0.1342  0.9409
 8809TIP3    H247843   0.076   1.059   5.245  1.7030 -3.0941 -1.3134
 8810TIP3   OH247844   3.259   1.694  15.238  0.0465 -0.0964  0.0319
 8810TIP3    H147845   3.336   1.683  15.183 -1.0418 -0.4709 -1.4794
 8810TIP3    H247846   3.293   1.691  15.328  1.9078  0.8329 -0.5879
 8811TIP3   OH247847   0.253   2.924  15.101  1.0121 -0.3650 -0.3734
 8811TIP3    H147848   0.185   2.861  15.127  1.9135 -1.1692  0.0874
 8811TIP3    H247849   0.222   2.960  15.018  0.0118 -0.6985 -0.1565
 8812TIP3   OH247850   5.339   3.298  11.040  0.4010  0.5316  0.0244
 8812TIP3    H147851   5.342   3.310  10.945  2.6669  1.3866  0.1432
 8812TIP3    H247852   5.389   3.217  11.055  0.4966  0.6810  0.5190
 8813TIP3   OH247853   2.799   1.848  14.005  0.5000 -0.2466 -0.0025
 8813TIP3    H147854   2.752   1.924  13.971  0.9868 -0.0503 -0.2534
 8813TIP3    H247855   2.831   1.876  14.090  1.0808  0.0054 -0.2930
 8814TIP3   OH247856   1.888   2.929   3.936 -0.1778  0.1859 -0.0982
 8814TIP3    H147857   1.947   2.878   3.880 -0.4637 -0.2460 -0.0154
 8814TIP3    H247858   1.811   2.946   3.881 -0.6071 -0.5318  0.2536
 8815TIP3   OH247859   1.631   3.498   1.893 -0.2187 -0.1390  0.0985
 8815TIP3    H147860   1.619   3.450   1.976  1.2215 -0.9697 -0.1235
 8815TIP3    H247861   1.631   3.590   1.919  1.7662 -0.4124  1.3157
 8816TIP3   OH247862   5.494   1.651  16.644  0.1727  0.1151 -0.4189
 8816TIP3    H147863   5.398   1.652  16.639  0.1245  0.0357  0.3921
 8816TIP3    H247864   5.515   1.712  16.715  0.8248  1.5831 -1.8084
 8817TIP3   OH247865   4.578   2.641  16.954  0.2431 -0.3918 -0.3623
 8817TIP3    H147866   4.672   2.661  16.957  0.1312  0.0352  2.6314
 8817TIP3    H247867   4.573   2.558  16.907  1.9941  0.0847 -1.5031
 8818TIP3   OH247868   6.464   5.475   2.237 -0.1063 -0.1212  0.1280
 8818TIP3    H147869   6.479   5.429   2.320 -0.9645  1.4661  1.2264
 8818TIP3    H247870   6.550   5.481   2.197  0.4506 -0.3290  1.2481
 8819TIP3   OH247871   6.385   4.215  15.786  0.4856 -0.3247  0.2830
 8819TIP3    H147872   6.479   4.201  15.797  0.3838 -0.0958  1.7476
 8819TIP3    H247873   6.357   4.144  15.728  1.2217 -1.7017  1.5329
 8820TIP3   OH247874   3.834   3.269   1.568 -0.5323  0.7026  0.4624
 8820TIP3    H147875   3.770   3.243   1.502 -1.0785  0.7295  0.9758
 8820TIP3    H247876   3.893   3.193   1.576 -1.0962  0.2884  0.7127
 8821TIP3   OH247877   3.874   1.335  15.343  0.0832 -0.6598  0.5668
 8821TIP3    H147878   3.897   1.410  15.397 -0.5946  0.0820 -0.1427
 8821TIP3    H247879   3.940   1.335  15.273 -0.6710  0.0840 -0.1705
 8822TIP3   OH247880   6.641   5.305  13.153  0.0398  0.1257  0.0128
 8822TIP3    H147881   6.627   5.212  13.172  0.0107  0.2129  0.4324
 8822TIP3    H247882   6.723   5.306  13.103 -1.1096 -0.3270 -1.9793
 8823TIP3   OH247883   2.904   0.274   6.183 -0.1445 -0.0709  0.0478
 8823TIP3    H147884   2.824   0.300   6.229  0.2081 -2.2723  2.0224
 8823TIP3    H247885   2.973   0.325   6.225 -0.1098 -0.4345  0.4306
 8824TIP3   OH247886   4.004   5.563  12.105 -0.3708 -0.2437 -0.2761
 8824TIP3    H147887   4.072   5.630  12.107  0.8014 -1.3587 -0.9891
 8824TIP3    H247888   3.938   5.593  12.167  0.4001  1.2624 -0.1557
 8825TIP3   OH247889   2.180   6.503  11.479 -0.8004 -0.3872 -0.0454
 8825TIP3    H147890   2.154   6.576  11.422 -0.9490 -0.2281  0.2279
 8825TIP3    H247891   2.101   6.482  11.529 -0.3810  0.1873  0.8827
 8826TIP3   OH247892   0.414   1.550   1.339  0.3201  0.4462  0.9047
 8826TIP3    H147893   0.345   1.486   1.322  2.0292 -1.0403 -0.8047
 8826TIP3    H247894   0.372   1.615   1.396 -2.2478 -0.7667  0.5462
 8827TIP3   OH247895   0.540   4.280  14.649  0.1861  0.3748 -0.0778
 8827TIP3    H147896   0.479   4.350  14.628 -0.0673  0.0630 -0.3995
 8827TIP3    H247897   0.542   4.278  14.745 -0.0271  0.6276 -0.0655
 8828TIP3   OH247898   4.217   0.896  13.252 -0.4707 -0.7285  0.0666
 8828TIP3    H147899   4.139   0.882  13.197 -1.0941  0.9282  0.4811
 8828TIP3    H247900   4.192   0.966  13.312  0.9654 -0.9702  0.9909
 8829TIP3   OH247901   0.597   0.357   2.335 -0.3964 -0.4059  0.4500
 8829TIP3    H147902   0.662   0.411   2.289 -2.0506  0.4720 -0.9826
 8829TIP3    H247903   0.565   0.296   2.269 -2.1467  0.2342  0.6636
 8830TIP3   OH247904   4.501   1.780   0.978 -0.6142  0.0388 -0.1099
 8830TIP3    H147905   4.431   1.830   0.936  0.3314  1.8669  0.3610
 8830TIP3    H247906   4.557   1.847   1.018  1.0069 -1.4010  0.1437
 8831TIP3   OH247907   5.935   6.182   3.933 -0.3231  0.4425 -0.0628
 8831TIP3    H147908   5.922   6.102   3.983 -1.5997  1.2162  0.8974
 8831TIP3    H247909   6.001   6.159   3.868 -0.6138 -1.3582  0.2345
 8832TIP3   OH247910   4.045   5.604   1.071 -0.1892  0.3873 -0.0060
 8832TIP3    H147911   3.990   5.590   0.994 -1.0194 -0.5686  0.7400
 8832TIP3    H247912   3.984   5.620   1.142  0.5278  0.1259  0.6845
 8833TIP3   OH247913   5.658   0.523   4.842  0.4573 -0.3821 -0.4569
 8833TIP3    H147914   5.570   0.518   4.804  0.2750 -0.2213 -0.0652
 8833TIP3    H247915   5.710   0.570   4.777 -0.3558  1.7903  0.3848
 8834TIP3   OH247916   5.677   5.752  12.856 -0.4749  0.5037  0.2230
 8834TIP3    H147917   5.705   5.699  12.931  2.3256  0.0729 -1.0106
 8834TIP3    H247918   5.678   5.692  12.782  2.6429  2.0403 -1.1903
 8835TIP3   OH247919   3.087   4.749   4.698  0.0679  0.3882  0.1091
 8835TIP3    H147920   3.040   4.768   4.616  0.3058  0.3014 -0.0503
 8835TIP3    H247921   3.019   4.731   4.761 -0.1103  0.0537 -0.1754
 8836TIP3   OH247922   4.756   5.643   5.036  0.1790 -0.7903  0.0716
 8836TIP3    H147923   4.803   5.561   5.023 -2.0868 -2.3993  1.2645
 8836TIP3    H247924   4.711   5.659   4.953 -0.3512 -1.4660  0.2191
 8837TIP3   OH247925   5.555   1.626  14.339 -0.1923 -0.4518 -0.5358
 8837TIP3    H147926   5.554   1.587  14.426 -0.7531 -1.8101 -1.1303
 8837TIP3    H247927   5.463   1.630  14.313 -0.3367  2.7015  0.0869
 8838TIP3   OH247928   4.538   5.560   4.520  0.6384 -0.4722  0.0441
 8838TIP3    H147929   4.588   5.556   4.439  0.3300 -1.8703 -0.1007
 8838TIP3    H247930   4.464   5.617   4.501  2.1678  1.6936  0.2823
 8839TIP3   OH247931   5.029   2.979   3.933 -0.2607 -0.3850  0.0287
 8839TIP3    H147932   4.934   2.978   3.925 -0.3687  0.3755  1.0088
 8839TIP3    H247933   5.058   3.040   3.865 -0.4242 -0.9726 -0.5809
 8840TIP3   OH247934   2.756   5.584   0.132  0.0630  0.8988  0.1337
 8840TIP3    H147935   2.806   5.575   0.051  2.5447 -0.5537  1.6772
 8840TIP3    H247936   2.806   5.647   0.184 -1.5047  1.8387  0.5621
 8841TIP3   OH247937   3.700   1.577   1.678  0.1642  0.3179  0.4110
 8841TIP3    H147938   3.730   1.639   1.611  1.0687  0.8294  1.2672
 8841TIP3    H247939   3.611   1.553   1.650  0.2642  1.0481 -0.5952
 8842TIP3   OH247940   1.172   4.798   1.783 -0.5255  0.4870 -0.5037
 8842TIP3    H147941   1.140   4.888   1.781 -1.2309  0.2469 -0.4253
 8842TIP3    H247942   1.221   4.792   1.865 -1.8221  0.3732  0.3022
 8843TIP3   OH247943   0.751   1.745  14.860  0.4795  0.7914 -0.0609
 8843TIP3    H147944   0.818   1.721  14.796  0.4249 -0.2247  0.2431
 8843TIP3    H247945   0.699   1.665  14.871  0.6641  0.8496  1.4533
 8844TIP3   OH247946   6.373   3.837   0.875 -0.0732 -0.4134 -0.1156
 8844TIP3    H147947   6.360   3.886   0.957  0.0690 -0.3514 -0.1303
 8844TIP3    H247948   6.452   3.785   0.890 -1.1361 -1.9252  0.5144
 8845TIP3   OH247949   0.409   5.708   2.538 -0.1083 -0.3217 -0.3046
 8845TIP3    H147950   0.352   5.639   2.573 -0.6601 -0.0261 -0.5951
 8845TIP3    H247951   0.425   5.682   2.447 -0.5474  0.0662 -0.4995
 8846TIP3   OH247952   1.474   3.102   0.583  0.3112 -0.0341  0.5040
 8846TIP3    H147953   1.534   3.114   0.656  1.0326 -0.7637  0.0426
 8846TIP3    H247954   1.410   3.038   0.615 -0.6048  1.1894  1.2071
 8847TIP3   OH247955   5.695   0.223   2.637  0.4143  0.1250 -0.1912
 8847TIP3    H147956   5.790   0.213   2.636  0.4183  0.1027  0.1884
 8847TIP3    H247957   5.677   0.287   2.569  0.8292  1.1437  0.6355
 8848TIP3   OH247958   0.240   4.837  11.942  0.0291 -0.5732  0.1718
 8848TIP3    H147959   0.233   4.898  12.016  2.2454 -0.7588  0.6163
 8848TIP3    H247960   0.320   4.865  11.896  0.3310 -2.2715 -0.4162
 8849TIP3   OH247961   2.543   5.845   2.370  0.3428  0.1796  0.3490
 8849TIP3    H147962   2.556   5.929   2.415  1.9879 -0.7570  1.7451
 8849TIP3    H247963   2.614   5.789   2.403 -1.3838 -2.1384  0.3462
 8850TIP3   OH247964   1.772   0.724   5.611  0.1705  0.3665 -0.1861
 8850TIP3    H147965   1.823   0.769   5.678 -0.7815  0.6595  0.3607
 8850TIP3    H247966   1.684   0.718   5.648 -0.0917 -0.5149 -0.9294
 8851TIP3   OH247967   3.507   3.451   0.253  0.2432 -0.1750  0.2710
 8851TIP3    H147968   3.583   3.422   0.202  0.0908  1.1226 -0.7295
 8851TIP3    H247969   3.498   3.385   0.322  1.2582 -1.2543 -0.5913
 8852TIP3   OH247970   5.329   4.734   1.528 -0.2270 -0.2798 -0.1883
 8852TIP3    H147971   5.382   4.724   1.449 -0.1729  1.5480 -0.4352
 8852TIP3    H247972   5.391   4.769   1.593 -0.7289  0.2188  0.0295
 8853TIP3   OH247973   1.874   2.419   5.192  0.3265 -0.2423 -0.0908
 8853TIP3    H147974   1.945   2.383   5.139 -2.8818 -1.8066 -3.7727
 8853TIP3    H247975   1.840   2.493   5.141 -1.6670 -0.5406  0.7017
 8854TIP3   OH247976   6.414   2.374   3.702 -0.1904  0.1865 -0.2467
 8854TIP3    H147977   6.394   2.403   3.613  0.1068  0.9547 -0.0726
 8854TIP3    H247978   6.330   2.346   3.738 -0.4904  0.8313 -0.4331
 8855TIP3   OH247979   4.128   4.645  13.993  0.0350  0.3959  0.2568
 8855TIP3    H147980   4.118   4.591  14.071  1.1245 -0.7128 -0.3377
 8855TIP3    H247981   4.078   4.599  13.926  0.6819  0.3041 -0.1718
 8856TIP3   OH247982   5.889   6.308  17.127  0.1810 -0.9484  0.5111
 8856TIP3    H147983   5.955   6.310  17.058 -0.5959 -0.5196 -0.2324
 8856TIP3    H247984   5.838   6.229  17.110 -0.2892 -0.6084  0.3184
 8857TIP3   OH247985   6.152   4.634  15.713 -0.3199 -0.4222 -0.4351
 8857TIP3    H147986   6.059   4.610  15.705 -0.7130  0.4513  1.0823
 8857TIP3    H247987   6.197   4.578  15.650 -1.5711 -2.6907  0.5638
 8858TIP3   OH247988   5.316   5.610   1.045  0.4555  0.3178 -0.3300
 8858TIP3    H147989   5.272   5.572   1.121  0.8807  0.8579  0.2002
 8858TIP3    H247990   5.366   5.684   1.081  2.2854 -0.6317 -0.7964
 8859TIP3   OH247991   0.112   5.517  10.752  0.2488 -0.5177 -0.1274
 8859TIP3    H147992   0.048   5.587  10.760 -1.2302 -1.8957  0.6324
 8859TIP3    H247993   0.195   5.563  10.739 -0.5011  1.4140  1.2837
 8860TIP3   OH247994   0.177   4.032   5.754 -0.1815  0.1640 -0.4265
 8860TIP3    H147995   0.160   4.034   5.848 -1.9699 -0.3259 -0.7005
 8860TIP3    H247996   0.229   4.110   5.737  1.6013 -0.5965  1.1996
 8861TIP3   OH247997   3.471   4.790   1.479  0.1478  0.1680  0.1044
 8861TIP3    H147998   3.485   4.797   1.384  1.0308 -0.9623  0.1310
 8861TIP3    H247999   3.406   4.720   1.488  1.6458 -1.2484  0.3948
 8862TIP3   OH248000   6.431   1.670   1.419  0.6882 -0.2356 -0.2088
 8862TIP3    H148001   6.451   1.747   1.366  1.1540 -0.5250 -0.4544
 8862TIP3    H248002   6.499   1.606   1.396  1.2675 -0.1508  1.1803
 8863TIP3   OH248003   4.120   5.277   5.363 -0.2787  0.0679  0.0581
 8863TIP3    H148004   4.071   5.266   5.281  0.4274 -0.8549 -0.2741
 8863TIP3    H248005   4.161   5.363   5.355 -1.8630  0.8859  0.3755
 8864TIP3   OH248006   4.925   5.538   0.259 -0.6238 -0.0906 -0.2367
 8864TIP3    H148007   4.883   5.452   0.253 -0.7814 -0.0651  0.4319
 8864TIP3    H248008   4.968   5.538   0.344 -1.6981  0.9673  0.3380
 8865TIP3   OH248009   0.603   3.202  16.197 -0.5188 -0.0452 -0.2031
 8865TIP3    H148010   0.533   3.266  16.210  0.1630  0.6651  0.0721
 8865TIP3    H248011   0.616   3.198  16.103  1.2099  2.2396 -0.1457
 8866TIP3   OH248012   5.865   4.541   3.693  0.5571  0.0428 -0.3822
 8866TIP3    H148013   5.805   4.582   3.755  1.1572  0.8011 -0.2948
 8866TIP3    H248014   5.839   4.449   3.692  2.0298 -0.5404  2.8079
 8867TIP3   OH248015   5.260   5.488  14.373  1.2737 -0.0585 -0.6031
 8867TIP3    H148016   5.172   5.505  14.338  0.4051  1.8368  2.0763
 8867TIP3    H248017   5.259   5.395  14.395  0.0567 -0.1491 -0.9462
 8868TIP3   OH248018   4.223   3.236  11.090 -0.0082  0.0435  0.2325
 8868TIP3    H148019   4.250   3.149  11.117  0.0756 -0.5923 -1.7129
 8868TIP3    H248020   4.156   3.221  11.023 -0.7471  1.4940  0.5936
 8869TIP3   OH248021   5.985   0.850  15.834 -0.4346 -0.5279  0.6928
 8869TIP3    H148022   5.937   0.807  15.905 -0.1325 -0.4103  0.9673
 8869TIP3    H248023   5.922   0.913  15.798 -1.0061 -1.4263  0.0563
 8870TIP3   OH248024   5.632   1.780  11.786 -0.8917 -0.3476 -0.2040
 8870TIP3    H148025   5.727   1.789  11.795 -0.8937  0.8935 -1.1835
 8870TIP3    H248026   5.606   1.728  11.862  0.8880 -3.0068 -1.2517
 8871TIP3   OH248027   3.666   0.972  13.867 -0.8356 -0.2116 -0.3874
 8871TIP3    H148028   3.629   0.898  13.818 -1.3852 -1.1820  1.4010
 8871TIP3    H248029   3.686   0.936  13.953  0.4957  1.3289 -0.0050
 8872TIP3   OH248030   1.281   0.747  11.926  0.2928  0.3320  0.3050
 8872TIP3    H148031   1.375   0.747  11.941  0.1192  0.6232  1.5260
 8872TIP3    H248032   1.243   0.732  12.013 -0.7852  0.4406 -0.1329
 8873TIP3   OH248033   5.256   3.225   3.952 -0.0826  0.0961 -0.1202
 8873TIP3    H148034   5.196   3.288   3.913 -0.8294 -0.5061  0.0118
 8873TIP3    H248035   5.328   3.217   3.890 -1.5410 -1.3000 -1.7206
 8874TIP3   OH248036   3.269   1.092  15.880 -0.6239  0.1671 -0.5410
 8874TIP3    H148037   3.225   1.142  15.949  0.7092  0.6045  0.0265
 8874TIP3    H248038   3.341   1.148  15.851 -0.5483 -0.4349 -1.5960
 8875TIP3   OH248039   1.264   4.312   3.185  0.1730  0.2312 -0.2615
 8875TIP3    H148040   1.285   4.220   3.201 -2.2125 -0.2274  0.6631
 8875TIP3    H248041   1.236   4.316   3.094 -1.1982 -0.2971  0.1214
 8876TIP3   OH248042   4.782   3.542   1.880  0.5294  0.1547  0.3689
 8876TIP3    H148043   4.862   3.521   1.831  0.5554  0.1361  0.4191
 8876TIP3    H248044   4.801   3.514   1.969 -0.2150 -1.5549  0.0132
 8877TIP3   OH248045   1.779   5.543  15.409  0.0706  0.6389  0.0717
 8877TIP3    H148046   1.751   5.541  15.501 -1.1952 -0.6933 -0.2993
 8877TIP3    H248047   1.849   5.477  15.404 -0.1560  0.4050 -0.0085
 8878TIP3   OH248048   1.859   6.635  12.776 -0.1241  0.4760 -0.1995
 8878TIP3    H148049   1.827   6.545  12.783  1.1091  0.0529  0.2918
 8878TIP3    H248050   1.820   6.680  12.852  2.0956 -0.5939  1.7104
 8879TIP3   OH248051   2.918   6.701  17.022 -0.0428 -0.6874  0.1578
 8879TIP3    H148052   2.858   6.769  17.052 -0.5884 -0.0153 -2.2228
 8879TIP3    H248053   2.888   6.621  17.066 -0.2967  0.3095  1.8837
 8880TIP3   OH248054   4.959   3.893  14.643 -0.5838  0.0314  0.5846
 8880TIP3    H148055   4.875   3.873  14.685  0.0402 -0.8506  1.4591
 8880TIP3    H248056   5.024   3.880  14.712  0.1957  1.8091  0.2347
 8881TIP3   OH248057   0.136   4.464  17.345  0.7566 -0.2535 -0.0526
 8881TIP3    H148058   0.110   4.423  17.427  0.5670 -1.0036 -0.4714
 8881TIP3    H248059   0.229   4.485  17.356  0.3536  1.1367  0.9334
 8882TIP3   OH248060   6.044   2.026   4.365 -0.1937  0.2324  0.1195
 8882TIP3    H148061   6.076   2.075   4.441  0.2979 -0.9870  0.7266
 8882TIP3    H248062   5.954   2.004   4.387  1.0101 -3.5394  2.2767
 8883TIP3   OH248063   4.117   2.947   0.285 -0.5437 -0.9313 -0.0634
 8883TIP3    H148064   4.075   2.892   0.352  0.7892 -1.6898  0.1994
 8883TIP3    H248065   4.149   2.885   0.220 -0.4844 -0.3169 -0.6263
 8884TIP3   OH248066   5.911   2.819   1.470 -0.6168  0.1518  0.3911
 8884TIP3    H148067   5.925   2.725   1.462  1.5688  0.4718 -0.0411
 8884TIP3    H248068   5.985   2.850   1.522 -0.0186  1.9220 -1.3753
 8885TIP3   OH248069   5.406   6.273   5.307 -0.0714 -0.0478 -0.0295
 8885TIP3    H148070   5.479   6.279   5.369  0.6275  2.2745 -0.9764
 8885TIP3    H248071   5.437   6.214   5.239 -0.3404 -1.5764  1.1216
 8886TIP3   OH248072   6.116   4.179  12.835 -0.0640 -0.2423  0.0542
 8886TIP3    H148073   6.187   4.236  12.805 -1.3543  1.8257  0.6683
 8886TIP3    H248074   6.160   4.104  12.874  1.7485  0.4038 -0.6384
 8887TIP3   OH248075   2.679   1.340   3.841 -0.4039  0.8856 -0.4573
 8887TIP3    H148076   2.586   1.323   3.826 -0.4651 -0.1598  0.8701
 8887TIP3    H248077   2.720   1.326   3.756 -1.2097 -0.6787 -0.6272
 8888TIP3   OH248078   5.363   6.559   2.163 -0.2737  0.0603  0.4294
 8888TIP3    H148079   5.408   6.529   2.083  0.7851  0.7882  0.7298
 8888TIP3    H248080   5.270   6.554   2.141 -0.0265 -0.5587 -0.5557
 8889TIP3   OH248081   3.648   4.275  11.721  0.3803 -0.3118 -0.1106
 8889TIP3    H148082   3.656   4.204  11.657  1.6369 -0.8803  0.6307
 8889TIP3    H248083   3.664   4.354  11.670  1.6312 -0.7735 -0.4804
 8890TIP3   OH248084   4.784   4.062   1.364 -0.5399 -0.4874 -0.5801
 8890TIP3    H148085   4.866   4.035   1.324  0.0839 -0.8041  0.8466
 8890TIP3    H248086   4.729   4.089   1.291  1.7916  2.5237 -1.4293
 8891TIP3   OH248087   2.531   0.570  11.315  0.3195 -0.4466  0.1942
 8891TIP3    H148088   2.554   0.587  11.224  1.1844  1.3800  0.7006
 8891TIP3    H248089   2.611   0.534  11.354  1.2387  2.2324  1.0305
 8892TIP3   OH248090   5.853   3.212  13.601  0.3354 -0.3190  0.0526
 8892TIP3    H148091   5.887   3.179  13.683  1.2761  0.6882  0.0865
 8892TIP3    H248092   5.926   3.205  13.539  0.2776  0.7809 -0.1684
 8893TIP3   OH248093   5.129   3.305  16.614 -0.2779  0.2324  0.1069
 8893TIP3    H148094   5.050   3.328  16.663 -0.4908  0.2114 -0.2220
 8893TIP3    H248095   5.182   3.385  16.614 -0.7863  0.5768 -0.6015
 8894TIP3   OH248096   5.447   0.401   1.111 -0.4737 -0.4206 -0.2772
 8894TIP3    H148097   5.361   0.440   1.131  0.8059  1.1247  2.9242
 8894TIP3    H248098   5.506   0.475   1.105  1.5283 -1.5655  3.0045
 8895TIP3   OH248099   5.494   6.335   4.885  0.4536  0.4203  0.0174
 8895TIP3    H148100   5.548   6.294   4.952 -0.3438 -0.4775  0.1390
 8895TIP3    H248101   5.526   6.299   4.802  1.6968  1.8258 -0.1468
 8896TIP3   OH248102   0.090   2.220  16.359  0.3648 -0.2834 -0.2226
 8896TIP3    H148103   0.162   2.276  16.387 -0.0061 -0.4060  1.0688
 8896TIP3    H248104   0.019   2.241  16.420  0.6520 -3.1175  1.2581
 8897TIP3   OH248105   2.277   1.125  12.835  0.7193  0.5282  0.1476
 8897TIP3    H148106   2.248   1.211  12.866 -1.4158  0.3239 -1.0999
 8897TIP3    H248107   2.330   1.145  12.758  0.0061  0.7496 -0.2983
 8898TIP3   OH248108   1.027   1.606  11.569  0.0204  0.1184  0.3564
 8898TIP3    H148109   1.105   1.592  11.515 -0.8753  0.8605 -1.2324
 8898TIP3    H248110   0.955   1.577  11.513 -0.8279 -1.1197  2.0125
 8899TIP3   OH248111   0.236   0.690   4.245  0.7566  0.3075 -0.8184
 8899TIP3    H148112   0.293   0.616   4.265  0.5468 -0.0983 -1.6651
 8899TIP3    H248113   0.183   0.659   4.172 -1.0371  0.4067  0.3663
 8900TIP3   OH248114   5.362   6.270   3.667  0.0453  0.0228 -0.6917
 8900TIP3    H148115   5.358   6.365   3.660 -1.2189  0.0893  0.5556
 8900TIP3    H248116   5.303   6.239   3.598 -2.4529  0.3012  1.1854
 8901TIP3   OH248117   0.713   2.228   3.551 -0.1930 -0.2632 -0.2008
 8901TIP3    H148118   0.713   2.323   3.557  0.3716 -0.3303  0.9603
 8901TIP3    H248119   0.675   2.198   3.634  0.3707 -1.0679 -0.2239
 8902TIP3   OH248120   4.446   3.662   0.112  0.3743 -0.3042  0.1348
 8902TIP3    H148121   4.537   3.688   0.098  0.5050 -0.9895 -0.3292
 8902TIP3    H248122   4.399   3.745   0.123  0.3979  0.3624 -3.5744
 8903TIP3   OH248123   6.016   2.583   0.809 -0.2457  0.5945  0.6607
 8903TIP3    H148124   5.967   2.525   0.867 -0.1047  1.0695  1.2536
 8903TIP3    H248125   6.030   2.530   0.730 -0.6322  0.0259  0.9629
 8904TIP3   OH248126   0.641   4.738   5.202  0.1854 -0.0800  0.1758
 8904TIP3    H148127   0.555   4.770   5.174 -0.1995 -2.0651 -1.2008
 8904TIP3    H248128   0.700   4.762   5.130 -0.5246 -3.9591 -2.0028
 8905TIP3   OH248129   4.791   3.410  16.978  0.4021  0.2272  0.5079
 8905TIP3    H148130   4.737   3.481  16.945 -1.0628 -1.6365 -1.3607
 8905TIP3    H248131   4.881   3.436  16.957 -0.2652  0.5529 -2.3185
 8906TIP3   OH248132   4.715   1.955   4.217 -0.3986 -0.7440 -0.1620
 8906TIP3    H148133   4.751   1.868   4.234 -0.5486 -0.5090  1.5661
 8906TIP3    H248134   4.624   1.939   4.193  0.1126 -1.1713 -1.9012
 8907TIP3   OH248135   0.423   6.158   2.735  0.3561 -0.3932 -0.0264
 8907TIP3    H148136   0.461   6.090   2.679  0.9934  0.9786 -1.3265
 8907TIP3    H248137   0.499   6.207   2.768 -0.0399 -0.8028  1.6099
 8908TIP3   OH248138   2.898   5.324  14.259  0.4378 -0.5503 -0.5793
 8908TIP3    H148139   2.978   5.369  14.231  2.0405 -3.0709 -0.4115
 8908TIP3    H248140   2.827   5.381  14.230  2.2403  0.9939 -2.2746
 8909TIP3   OH248141   4.980   4.305   5.503 -0.3442 -0.4513 -0.1098
 8909TIP3    H148142   5.058   4.284   5.452  0.8191  1.7669  0.6030
 8909TIP3    H248143   4.907   4.270   5.452  1.0015 -1.1221 -1.6415
 8910TIP3   OH248144   5.712   4.663  11.416  0.5487  0.9677 -0.0463
 8910TIP3    H148145   5.796   4.704  11.395  2.1451 -1.7492  0.4697
 8910TIP3    H248146   5.714   4.650  11.511 -0.2998  0.5310 -0.0733
 8911TIP3   OH248147   4.265   0.980   5.541  0.1500 -0.4111 -0.2459
 8911TIP3    H148148   4.298   0.895   5.512 -0.0023 -0.0812 -1.4686
 8911TIP3    H248149   4.273   1.036   5.463  0.3343  0.7185  0.5562
 8912TIP3   OH248150   3.911   1.958   4.231  0.1439 -0.1173  0.4602
 8912TIP3    H148151   3.981   1.922   4.285 -0.9832 -1.0609  1.3500
 8912TIP3    H248152   3.840   1.894   4.237 -0.6276  0.5709 -0.8043
 8913TIP3   OH248153   4.677   5.742  12.430  0.7928 -0.3771 -0.0133
 8913TIP3    H148154   4.681   5.800  12.506  1.0311 -0.3528 -0.0425
 8913TIP3    H248155   4.605   5.681  12.450 -1.2873  1.5767 -1.1689
 8914TIP3   OH248156   2.089   3.738  14.481 -0.2289  0.1975 -0.3402
 8914TIP3    H148157   2.113   3.677  14.551  0.2091 -0.0737 -0.7208
 8914TIP3    H248158   2.077   3.683  14.404  0.3402  0.6093 -0.7288
 8915TIP3   OH248159   5.253   4.215   4.893  0.4451  0.1853  0.1097
 8915TIP3    H148160   5.328   4.232   4.837 -0.3056  2.2382 -0.3775
 8915TIP3    H248161   5.195   4.160   4.841  0.5658  0.5790 -0.4461
 8916TIP3   OH248162   3.489   2.706   0.083  0.5423 -0.3841  0.2144
 8916TIP3    H148163   3.455   2.771   0.144 -2.4217 -0.4461 -1.1871
 8916TIP3    H248164   3.527   2.638   0.139 -0.9055  0.1566  1.9430
 8917TIP3   OH248165   5.347   6.695  16.758  0.2196  0.4038  0.3623
 8917TIP3    H148166   5.370   6.784  16.733  1.6012 -0.5232 -2.0317
 8917TIP3    H248167   5.406   6.675  16.831  0.2404  1.2772  0.5923
 8918TIP3   OH248168   1.888   2.909   5.095 -0.1949 -0.0406 -0.2927
 8918TIP3    H148169   1.974   2.896   5.057 -0.1079  0.1987 -0.1771
 8918TIP3    H248170   1.856   2.991   5.055 -0.4418 -0.2240 -0.4736
 8919TIP3   OH248171   2.455   0.959  12.081  0.5574  0.1026  0.7133
 8919TIP3    H148172   2.465   1.053  12.063  0.0168  0.1670  0.7231
 8919TIP3    H248173   2.361   0.947  12.092  0.7435 -0.1499  2.3035
 8920TIP3   OH248174   4.413   1.011   1.431 -0.4606 -0.1925  0.5027
 8920TIP3    H148175   4.422   1.106   1.429 -0.2717 -0.2200 -0.7454
 8920TIP3    H248176   4.328   0.996   1.474 -0.0637  0.4833  1.5793
 8921TIP3   OH248177   3.144   3.880  12.021 -0.4218 -0.1587 -1.0542
 8921TIP3    H148178   3.207   3.841  11.960 -1.5203 -3.1136 -0.5153
 8921TIP3    H248179   3.073   3.911  11.965  0.9263  2.1926 -1.5778
 8922TIP3   OH248180   0.457   3.986   4.404 -0.5994 -0.2351  0.6204
 8922TIP3    H148181   0.406   3.927   4.349 -1.3337  1.0192 -0.0776
 8922TIP3    H248182   0.397   4.057   4.426  0.4111  0.5215  1.0187
 8923TIP3   OH248183   4.775   0.663  14.781 -0.4163 -0.0662  0.0505
 8923TIP3    H148184   4.783   0.568  14.776  1.2444  0.0684 -0.1609
 8923TIP3    H248185   4.759   0.691  14.691 -1.9625 -0.2031  0.2552
 8924TIP3   OH248186   0.151   3.685  14.065  0.0795  0.0167 -0.4697
 8924TIP3    H148187   0.236   3.671  14.023  0.1521  2.0729 -1.0876
 8924TIP3    H248188   0.160   3.642  14.150  2.1924  1.2117 -0.0178
 8925TIP3   OH248189   0.898   4.460  14.850  0.1679  0.0550  0.2756
 8925TIP3    H148190   0.823   4.442  14.793 -1.1368 -0.4615  2.0903
 8925TIP3    H248191   0.873   4.538  14.900  0.5019 -0.5556  1.4318
 8926TIP3   OH248192   0.242   3.901  14.441  0.2094 -0.5244  0.5870
 8926TIP3    H148193   0.313   3.843  14.470  0.8972  1.1099  2.3543
 8926TIP3    H248194   0.252   3.905  14.346  1.1413 -1.9944  0.5809
 8927TIP3   OH248195   6.392   5.580  16.060 -0.1669  0.2305 -0.4596
 8927TIP3    H148196   6.437   5.499  16.036 -1.1650 -0.1209 -1.2392
 8927TIP3    H248197   6.411   5.640  15.988 -0.6934  0.1700 -0.6549
 8928TIP3   OH248198   5.191   6.498   6.619  0.1406  0.0527 -0.8885
 8928TIP3    H148199   5.225   6.584   6.598  2.5994 -0.8624 -0.9784
 8928TIP3    H248200   5.218   6.442   6.546  0.5827 -1.2374  0.2116
 8929TIP3   OH248201   0.812   3.561   3.042 -0.2714 -0.0650 -0.3060
 8929TIP3    H148202   0.878   3.610   3.091 -0.2075  1.5623 -1.9122
 8929TIP3    H248203   0.742   3.546   3.105  0.2871  0.9543  0.5957
 8930TIP3   OH248204   3.490   6.398   3.731 -0.3707 -0.1136  0.3497
 8930TIP3    H148205   3.455   6.486   3.740  0.5987  0.5334 -1.7555
 8930TIP3    H248206   3.430   6.343   3.781 -1.2789  1.6482  1.2677
 8931TIP3   OH248207   5.146   5.534   0.570  0.6968 -0.0399 -0.1866
 8931TIP3    H148208   5.176   5.537   0.661  3.2284 -0.6217 -0.9184
 8931TIP3    H248209   5.133   5.626   0.546  0.4466  0.1404  0.6272
 8932TIP3   OH248210   6.049   5.881  13.221 -0.2751 -0.5732 -0.6929
 8932TIP3    H148211   6.130   5.917  13.185  0.9234  1.7067  3.5647
 8932TIP3    H248212   6.077   5.802  13.268 -1.4244 -2.3158 -2.7571
 8933TIP3   OH248213   6.293   4.863  15.857 -0.5063 -0.0452  0.5793
 8933TIP3    H148214   6.265   4.951  15.832 -0.3186 -0.0217  0.4548
 8933TIP3    H248215   6.226   4.806  15.820 -0.0239 -0.0437 -0.3190
 8934TIP3   OH248216   2.187   4.897   4.071 -0.1414  0.2381 -0.2680
 8934TIP3    H148217   2.219   4.983   4.043  2.0393 -1.1122 -2.3821
 8934TIP3    H248218   2.243   4.873   4.144 -1.1071  0.7962  0.6775
 8935TIP3   OH248219   2.482   4.857  15.891 -0.1309 -0.5252 -0.5756
 8935TIP3    H148220   2.472   4.852  15.796  0.3675 -1.3929 -0.5934
 8935TIP3    H248221   2.506   4.948  15.908  2.4505 -0.9289 -1.5703
 8936TIP3   OH248222   4.347   6.301  16.330 -0.5879  0.0652  0.2117
 8936TIP3    H148223   4.401   6.378  16.312  0.5909 -0.7328  0.2717
 8936TIP3    H248224   4.400   6.246  16.387 -1.3273 -0.8902  0.0109
 8937TIP3   OH248225   2.451   2.503  13.092 -0.2212  0.6417  0.0188
 8937TIP3    H148226   2.530   2.544  13.128  1.0911 -0.4941 -1.4196
 8937TIP3    H248227   2.441   2.422  13.142 -0.4530  0.7748  0.1856
 8938TIP3   OH248228   5.092   6.607  16.400  0.0638  0.2348 -0.3914
 8938TIP3    H148229   5.084   6.527  16.452  1.8890  1.1939  1.4928
 8938TIP3    H248230   5.053   6.675  16.455 -0.2571  0.8786 -1.3991
 8939TIP3   OH248231   6.647   5.195  16.620 -0.3392 -0.1261  0.0810
 8939TIP3    H148232   6.666   5.275  16.572 -3.2560  0.9788  0.6356
 8939TIP3    H248233   6.645   5.221  16.712 -0.2666 -1.0894  0.3739
 8940TIP3   OH248234   2.546   2.769  13.920  0.3522  0.3936  0.1495
 8940TIP3    H148235   2.476   2.743  13.859  0.6160 -0.6947  0.2919
 8940TIP3    H248236   2.505   2.835  13.976 -0.7418 -0.5557  0.5325
 8941TIP3   OH248237   5.973   1.199   0.816  0.3602 -0.1362  0.0909
 8941TIP3    H148238   5.980   1.289   0.786  0.5951 -0.4419 -0.7851
 8941TIP3    H248239   5.980   1.205   0.912 -3.4507  1.2065  0.4591
 8942TIP3   OH248240   1.192   4.610   2.386  0.6169 -0.2741 -0.2809
 8942TIP3    H148241   1.121   4.669   2.411  0.9817 -0.2520  0.7811
 8942TIP3    H248242   1.239   4.657   2.317  0.4483  0.3439  0.0132
 8943TIP3   OH248243   4.920   4.323  16.301  0.0234 -0.1515 -0.0205
 8943TIP3    H148244   4.952   4.286  16.219 -2.5500 -1.3253 -0.5725
 8943TIP3    H248245   4.936   4.254  16.366  1.7756  0.6592  0.4809
 8944TIP3   OH248246   6.295   0.883   1.677 -0.2765 -0.1094 -0.1524
 8944TIP3    H148247   6.288   0.952   1.743  1.2162  0.8743 -0.9606
 8944TIP3    H248248   6.383   0.847   1.689 -1.2412 -2.3493  0.6589
 8945TIP3   OH248249   2.860   1.641   1.911 -0.3647  0.5128 -0.3945
 8945TIP3    H148250   2.875   1.734   1.926  0.7003  0.2445  0.3084
 8945TIP3    H248251   2.948   1.602   1.914 -0.6011 -0.2680 -2.5168
 8946TIP3   OH248252   5.687   0.338   1.629  0.0054  0.3214  0.1264
 8946TIP3    H148253   5.777   0.366   1.615  0.3808 -1.0827 -0.4023
 8946TIP3    H248254   5.658   0.305   1.544 -0.5182 -0.5749  0.6363
 8947TIP3   OH248255   5.453   4.353  12.488 -0.4605  0.1595 -0.1707
 8947TIP3    H148256   5.432   4.430  12.541 -2.8338 -0.5336  0.0252
 8947TIP3    H248257   5.449   4.280  12.549  0.5263 -0.2878 -0.6078
 8948TIP3   OH248258   1.605   3.852  13.899 -0.6179 -0.1494  1.7008
 8948TIP3    H148259   1.675   3.791  13.921 -0.3828  0.0510  1.5218
 8948TIP3    H248260   1.531   3.796  13.875  0.4176 -0.4556 -1.2278
 8949TIP3   OH248261   5.499   0.626   3.740  0.2307 -0.0781 -0.0566
 8949TIP3    H148262   5.552   0.703   3.758 -0.6445  0.6231 -0.4082
 8949TIP3    H248263   5.549   0.553   3.776  0.4687  0.7932  1.4864
 8950TIP3   OH248264   5.218   4.083  11.176 -0.3389  0.0811  0.1423
 8950TIP3    H148265   5.224   4.076  11.271  1.3880 -1.1382 -0.0239
 8950TIP3    H248266   5.133   4.126  11.161 -1.6420 -1.5854  2.1468
 8951TIP3   OH248267   2.497   1.759   0.093 -0.4210 -0.0283  0.1313
 8951TIP3    H148268   2.479   1.741   0.186  0.8057 -1.7695  0.0791
 8951TIP3    H248269   2.586   1.793   0.092  0.6036 -2.4751 -0.5584
 8952TIP3   OH248270   6.535   2.135   4.942 -0.2400  0.9120 -0.0045
 8952TIP3    H148271   6.474   2.200   4.907  0.6525  1.0945 -1.2917
 8952TIP3    H248272   6.577   2.098   4.864  0.2939 -0.1995  0.7867
 8953TIP3   OH248273   5.073   6.154   1.469  0.2932 -0.4383 -0.0919
 8953TIP3    H148274   4.978   6.156   1.471  0.2507 -2.1123  0.8382
 8953TIP3    H248275   5.095   6.081   1.412  0.9362 -2.1130  2.1675
 8954TIP3   OH248276   4.259   5.461  14.319  0.2931  0.3752  0.0715
 8954TIP3    H148277   4.348   5.496  14.320 -0.5375  2.6419  0.4154
 8954TIP3    H248278   4.230   5.467  14.409 -0.7173  1.0931 -0.2884
 8955TIP3   OH248279   2.137   1.328   0.090  0.1989  0.0012 -0.7228
 8955TIP3    H148280   2.052   1.359   0.123  0.1194  0.8884 -1.7136
 8955TIP3    H248281   2.170   1.271   0.159 -1.7293 -1.2972 -0.7876
 8956TIP3   OH248282   0.594   1.309  11.210  0.3057 -0.2238 -0.0530
 8956TIP3    H148283   0.610   1.295  11.117  0.8035 -0.7368  0.1035
 8956TIP3    H248284   0.626   1.397  11.228  0.2897 -0.1576 -0.3438
 8957TIP3   OH248285   2.569   4.790  16.166  0.4173  0.3299  0.0203
 8957TIP3    H148286   2.556   4.808  16.073  1.0269  0.0971 -0.1140
 8957TIP3    H248287   2.662   4.805  16.181  0.2189  0.9424  0.7247
 8958TIP3   OH248288   1.868   3.339  14.061  1.0250  0.0153  0.2288
 8958TIP3    H148289   1.783   3.380  14.046  0.0768 -2.3734 -1.4504
 8958TIP3    H248290   1.854   3.285  14.139  0.7939 -0.8761 -0.4245
 8959TIP3   OH248291   3.661   2.280   1.717  0.2971  0.5084  0.6072
 8959TIP3    H148292   3.667   2.357   1.774 -0.8082  1.1773 -0.1476
 8959TIP3    H248293   3.605   2.308   1.645  0.8536 -0.6370 -0.3053
 8960TIP3   OH248294   0.292   6.523  11.640  0.0933  0.0154 -0.8549
 8960TIP3    H148295   0.231   6.596  11.632  0.3608  0.7015  2.1502
 8960TIP3    H248296   0.335   6.536  11.725 -0.4877 -4.0459  0.3119
 8961TIP3   OH248297   1.239   0.226   6.299 -0.0286  0.4475  0.6038
 8961TIP3    H148298   1.247   0.166   6.225 -0.1530 -0.9263  1.6687
 8961TIP3    H248299   1.326   0.225   6.340  0.0390  1.2025  0.5049
 8962TIP3   OH248300   4.665   0.293   5.248  0.2403 -0.5284  0.0471
 8962TIP3    H148301   4.587   0.267   5.297 -1.4149 -0.2215 -2.2755
 8962TIP3    H248302   4.673   0.387   5.263 -0.1390 -0.4722 -0.0952
 8963TIP3   OH248303   5.061   4.510   0.106 -0.3789  0.4201 -0.6299
 8963TIP3    H148304   5.010   4.514   0.187  0.5022  0.1452 -0.0374
 8963TIP3    H248305   5.022   4.439   0.056 -1.6550  1.3275 -0.9701
 8964TIP3   OH248306   2.958   4.332   1.149 -0.4489 -0.0541  0.4201
 8964TIP3    H148307   2.921   4.251   1.185  0.0134 -0.1393  0.7181
 8964TIP3    H248308   2.887   4.396   1.155  0.1532  0.4874  3.3834
 8965TIP3   OH248309   2.424   3.396   2.508  0.1640 -0.3619 -0.3345
 8965TIP3    H148310   2.473   3.465   2.554  1.7242 -1.1175 -0.7921
 8965TIP3    H248311   2.350   3.377   2.566  0.8005  0.3315  0.7505
 8966TIP3   OH248312   3.406   1.336   6.410  0.5381  0.4950 -0.0425
 8966TIP3    H148313   3.345   1.299   6.474 -0.5353 -0.2179 -1.4084
 8966TIP3    H248314   3.492   1.322   6.448 -0.1052  1.3515  1.8711
 8967TIP3   OH248315   1.755   2.000  15.957 -0.6649  0.1852  0.0034
 8967TIP3    H148316   1.754   2.056  16.034 -1.2122  1.4100 -0.8671
 8967TIP3    H248317   1.708   1.921  15.984  0.6128 -0.1420  1.4225
 8968TIP3   OH248318   2.336   4.169  14.872  0.0995 -0.2700 -0.5416
 8968TIP3    H148319   2.379   4.083  14.863  0.9556  0.2651 -1.9267
 8968TIP3    H248320   2.260   4.152  14.928  1.8954 -1.3408  1.7800
 8969TIP3   OH248321   0.600   1.173  13.777  0.3446 -0.1647 -0.9663
 8969TIP3    H148322   0.617   1.086  13.813  1.2683  0.3731 -0.0613
 8969TIP3    H248323   0.516   1.164  13.732 -0.6584 -0.9895  0.9731
 8970TIP3   OH248324   3.700   1.113   3.936  0.3263  0.0054 -0.6491
 8970TIP3    H148325   3.669   1.066   3.858 -0.9879  0.1785 -0.2589
 8970TIP3    H248326   3.707   1.045   4.003 -2.0383  0.3573  0.0500
 8971TIP3   OH248327   4.556   4.850  10.818  0.1403 -0.4599 -0.2850
 8971TIP3    H148328   4.507   4.863  10.737 -0.1463 -0.9298 -0.1939
 8971TIP3    H248329   4.495   4.802  10.875  0.4843 -0.4950  0.0572
 8972TIP3   OH248330   6.400   2.808  16.157 -1.2387  0.3632  0.3292
 8972TIP3    H148331   6.434   2.884  16.110 -2.3071  0.5501 -0.1815
 8972TIP3    H248332   6.452   2.734  16.124 -0.9947  0.7065 -0.0594
 8973TIP3   OH248333   1.261   3.160   3.966 -0.3787 -0.1898 -0.2053
 8973TIP3    H148334   1.174   3.187   3.938 -0.2492  1.4451  0.7867
 8973TIP3    H248335   1.320   3.206   3.907 -0.1753  0.0690  0.1940
 8974TIP3   OH248336   1.513   5.133  15.770 -0.8998 -0.6645 -0.5686
 8974TIP3    H148337   1.580   5.118  15.703  0.4988 -3.4309  1.2619
 8974TIP3    H248338   1.539   5.077  15.843 -3.1549  1.1028  1.7655
 8975TIP3   OH248339   2.330   0.421  12.137 -0.0878  0.0536 -0.8075
 8975TIP3    H148340   2.339   0.509  12.175 -1.0678 -0.2020  0.0566
 8975TIP3    H248341   2.327   0.363  12.213  5.0066 -1.3188 -1.2412
 8976TIP3   OH248342   6.680   5.215   1.304 -0.0062 -0.3287  0.2312
 8976TIP3    H148343   6.670   5.307   1.330  1.0645 -1.0036  3.5469
 8976TIP3    H248344   6.636   5.209   1.220 -0.4709  3.1248  0.0747
 8977TIP3   OH248345   3.650   4.557   1.625 -0.0950 -0.5317 -0.4052
 8977TIP3    H148346   3.607   4.594   1.702  0.1132  0.1897 -0.6323
 8977TIP3    H248347   3.633   4.619   1.555  2.5564  0.5874 -0.1838
 8978TIP3   OH248348   2.245   1.304   6.002  0.1610 -0.6819  0.3115
 8978TIP3    H148349   2.290   1.385   5.976 -1.9980  0.4018 -0.2457
 8978TIP3    H248350   2.273   1.290   6.093 -0.3517  1.4337  0.8619
 8979TIP3   OH248351   3.412   4.592  14.905 -0.1281  0.0376 -0.2430
 8979TIP3    H148352   3.356   4.514  14.913 -1.1381  0.6521 -1.0467
 8979TIP3    H248353   3.432   4.596  14.811  0.4915  0.3573 -0.0955
 8980TIP3   OH248354   4.859   4.413   2.202 -0.3495  0.1218  0.4212
 8980TIP3    H148355   4.872   4.508   2.196  1.0519 -0.0878 -0.0061
 8980TIP3    H248356   4.797   4.403   2.274  0.3673  1.2968  1.2350
 8981TIP3   OH248357   5.391   3.649  10.962  0.1829  0.6260  0.0818
 8981TIP3    H148358   5.386   3.742  10.941  1.3234  0.1243 -2.8150
 8981TIP3    H248359   5.332   3.607  10.900  1.0638 -0.7355  0.1231
 8982TIP3   OH248360   1.258   3.757   2.679  0.1644 -0.2456  0.2443
 8982TIP3    H148361   1.299   3.692   2.621 -2.7167 -1.7147 -0.3121
 8982TIP3    H248362   1.235   3.829   2.620 -1.0247 -0.9032 -0.1332
 8983TIP3   OH248363   0.170   3.101  13.226  0.0765 -0.2172  0.3230
 8983TIP3    H148364   0.119   3.180  13.210  1.3648  0.6225  0.2099
 8983TIP3    H248365   0.113   3.046  13.281 -0.9012  0.7000  0.2529
 8984TIP3   OH248366   2.252   1.388  13.040  0.4352 -0.6373 -0.5877
 8984TIP3    H148367   2.212   1.453  12.982  2.4664 -0.2542 -1.6359
 8984TIP3    H248368   2.271   1.435  13.121  0.7729 -0.2560 -0.8909
 8985TIP3   OH248369   6.484   0.548  15.811 -0.2056  0.5898  0.3417
 8985TIP3    H148370   6.520   0.636  15.800 -0.2969  0.9098  2.1889
 8985TIP3    H248371   6.410   0.561  15.871 -0.0282 -0.7763  0.8787
 8986TIP3   OH248372   5.544   2.083   6.675 -0.0502  0.9802 -0.1718
 8986TIP3    H148373   5.460   2.052   6.641  0.9053 -0.7651 -1.0404
 8986TIP3    H248374   5.607   2.064   6.606  1.6179 -0.7835  1.7172
 8987TIP3   OH248375   3.201   2.604   0.284 -0.4264 -0.0337  0.4334
 8987TIP3    H148376   3.195   2.688   0.331 -2.1057 -0.2956  0.7412
 8987TIP3    H248377   3.229   2.542   0.351  0.7953  0.2529  0.2119
 8988TIP3   OH248378   3.467   0.955   5.972 -0.1365  0.4227  0.2406
 8988TIP3    H148379   3.503   0.988   6.055  0.8106  0.0130  0.0065
 8988TIP3    H248380   3.414   0.879   5.997  2.1570 -1.2680  0.2829
 8989TIP3   OH248381   0.239   2.189   3.388 -0.1801  0.5863 -0.1046
 8989TIP3    H148382   0.231   2.235   3.472 -0.4800 -0.6488  0.5661
 8989TIP3    H248383   0.332   2.167   3.381 -0.1617  0.6566 -0.0748
 8990TIP3   OH248384   0.938   6.622  11.921 -0.7134  0.1005  0.1551
 8990TIP3    H148385   0.871   6.662  11.865  1.4522  3.1008 -0.5851
 8990TIP3    H248386   0.956   6.689  11.987 -0.3334 -1.7550  2.0366
 8991TIP3   OH248387   1.616   4.554   2.215  0.0097  0.4814 -0.0759
 8991TIP3    H148388   1.626   4.612   2.140  0.7126 -0.9015 -1.0988
 8991TIP3    H248389   1.553   4.488   2.186  0.0704  0.0920  0.6473
 8992TIP3   OH248390   4.086   2.416   1.852 -0.7668  0.9443  0.4904
 8992TIP3    H148391   4.126   2.332   1.829 -0.9303  1.4162 -1.8079
 8992TIP3    H248392   4.160   2.476   1.864 -0.6562  0.5349  1.9366
 8993TIP3   OH248393   3.157   6.178  14.059  0.0207 -0.6421  0.6532
 8993TIP3    H148394   3.222   6.244  14.083  0.2630 -0.8714  0.6264
 8993TIP3    H248395   3.178   6.102  14.113  0.7001 -1.2419 -0.4194
 8994TIP3   OH248396   5.400   2.625   4.204 -0.3622  0.0457  0.0239
 8994TIP3    H148397   5.333   2.689   4.228 -2.1917 -0.9805 -1.9672
 8994TIP3    H248398   5.399   2.562   4.276  1.0479  1.8217  1.7242
 8995TIP3   OH248399   6.012   6.071   1.137  0.0525  0.2592 -0.5210
 8995TIP3    H148400   6.073   6.004   1.166 -1.2673 -0.1906  1.4710
 8995TIP3    H248401   5.946   6.024   1.087  0.8221  0.6135 -1.9226
 8996TIP3   OH248402   2.945   1.381  16.045  0.7345  0.1715 -0.6224
 8996TIP3    H148403   2.948   1.467  16.004  0.8221  0.2877 -0.3729
 8996TIP3    H248404   2.920   1.398  16.136 -1.0934 -0.2214 -1.0062
 8997TIP3   OH248405   6.663   4.878   3.238 -0.3526  0.2310 -0.0389
 8997TIP3    H148406   6.710   4.795   3.234 -0.5763 -0.0218  1.6060
 8997TIP3    H248407   6.573   4.856   3.217 -0.1889  0.2990 -0.8510
 8998TIP3   OH248408   2.676   2.480  11.633 -0.0459  1.0198 -0.4334
 8998TIP3    H148409   2.661   2.439  11.718  3.9327  1.8515  0.8768
 8998TIP3    H248410   2.705   2.409  11.577 -1.0743  0.7546 -0.6548
 8999TIP3   OH248411   4.279   5.259   3.761  0.3158 -0.3332 -0.1454
 8999TIP3    H148412   4.231   5.342   3.759  0.6383 -0.1599 -0.9556
 8999TIP3    H248413   4.213   5.194   3.787  0.1773  0.2391  1.0415
 9000TIP3   OH248414   6.200   0.247  12.181 -0.0125  0.0048  0.1196
 9000TIP3    H148415   6.241   0.234  12.095 -1.9407 -1.0819 -0.7162
 9000TIP3    H248416   6.231   0.332  12.210 -0.5666  1.1934 -2.4497
 9001TIP3   OH248417   6.336   6.592   3.048  0.1648  0.2248 -0.2220
 9001TIP3    H148418   6.277   6.576   3.121 -1.1225  2.1797 -0.7795
 9001TIP3    H248419   6.375   6.506   3.030 -2.5714 -1.1736  0.0955
 9002TIP3   OH248420   0.052   3.311   0.243  0.4885 -0.8028 -0.4563
 9002TIP3    H148421   0.139   3.298   0.282 -0.7251 -1.3272  2.3347
 9002TIP3    H248422   0.039   3.234   0.188  2.1973 -0.1486 -1.8657
 9003TIP3   OH248423   3.333   3.429  12.183 -0.4182  0.3164  0.3279
 9003TIP3    H148424   3.290   3.372  12.119 -0.0017 -0.4049  0.6848
 9003TIP3    H248425   3.384   3.490  12.130  0.6295 -0.8244 -0.0322
 9004TIP3   OH248426   0.354   5.744  13.197  0.0300 -0.2739  0.3999
 9004TIP3    H148427   0.400   5.742  13.113  0.6057 -0.5054  0.7080
 9004TIP3    H248428   0.406   5.803  13.251  0.2811 -0.9505  0.9231
 9005TIP3   OH248429   3.487   0.117   2.912  0.5786 -0.7697 -0.0313
 9005TIP3    H148430   3.420   0.142   2.848 -0.7417 -1.4368  1.0129
 9005TIP3    H248431   3.443   0.128   2.997  1.5530 -1.9443  0.6510
 9006TIP3   OH248432   1.147   6.373   0.850  0.0310  0.4987  0.0618
 9006TIP3    H148433   1.146   6.277   0.847 -0.7408  0.4094  1.9595
 9006TIP3    H248434   1.099   6.400   0.771 -1.8765 -0.7587  0.7229
 9007TIP3   OH248435   1.990   4.934   3.867  0.5530 -0.0146  0.2555
 9007TIP3    H148436   2.065   4.904   3.917  2.3128  0.2940 -1.9836
 9007TIP3    H248437   1.993   5.030   3.876 -0.2189 -0.0565  0.9977
 9008TIP3   OH248438   4.874   5.031   1.533 -0.2864 -0.5780 -0.0795
 9008TIP3    H148439   4.939   5.097   1.559 -0.6052 -0.6835  1.0260
 9008TIP3    H248440   4.910   4.994   1.453  0.4496  0.1736 -0.1185
 9009TIP3   OH248441   5.596   5.943   3.893  0.2304  0.1923 -0.2704
 9009TIP3    H148442   5.502   5.926   3.892 -0.0536  1.4119  1.3578
 9009TIP3    H248443   5.605   6.032   3.860  0.8764 -0.0438 -0.7717
 9010TIP3   OH248444   4.323   2.651   3.373 -0.2415  0.1749  0.0961
 9010TIP3    H148445   4.318   2.573   3.317  0.3757  1.3988 -1.7609
 9010TIP3    H248446   4.297   2.620   3.460  0.0082 -2.0934 -0.5746
 9011TIP3   OH248447   2.662   1.632  14.539  0.0134 -0.6414  0.1337
 9011TIP3    H148448   2.686   1.540  14.528 -1.0771 -1.0656  1.0910
 9011TIP3    H248449   2.737   1.680  14.506  0.7597 -1.8806 -0.0433
 9012TIP3   OH248450   0.128   5.930  16.904  0.5081  0.4002  0.7759
 9012TIP3    H148451   0.110   5.890  16.989 -0.4337 -1.1703 -0.1321
 9012TIP3    H248452   0.162   5.859  16.850  0.0100  1.1004 -0.5020
 9013TIP3   OH248453   5.642   2.785  17.373 -0.0970  0.0835  0.2978
 9013TIP3    H148454   5.721   2.824  17.410 -0.5716  0.3183  1.0688
 9013TIP3    H248455   5.586   2.860  17.351  1.1121  0.1404 -3.1754
 9014TIP3   OH248456   4.321   2.890  15.085 -0.1558 -0.1559  0.0642
 9014TIP3    H148457   4.333   2.973  15.132 -0.7962  0.7169 -1.2460
 9014TIP3    H248458   4.396   2.837  15.111  1.1500  1.4313 -0.2949
 9015TIP3   OH248459   6.252   5.180   3.800  0.2806 -0.0614 -0.9622
 9015TIP3    H148460   6.325   5.194   3.740  0.7686 -2.3505 -0.9707
 9015TIP3    H248461   6.280   5.222   3.881  0.8402  0.5583 -1.4548
 9016TIP3   OH248462   0.156   3.712  15.226  1.0036  0.1580  0.1438
 9016TIP3    H148463   0.143   3.804  15.246  0.0700  0.1368 -0.2864
 9016TIP3    H248464   0.248   3.705  15.202  1.0508  1.0054  0.0462
 9017TIP3   OH248465   3.023   6.492   1.277  0.4612  0.5487 -0.1831
 9017TIP3    H148466   3.037   6.523   1.187 -3.0420 -0.2723 -1.2093
 9017TIP3    H248467   3.052   6.564   1.333  1.0995  1.8293 -2.0647
 9018TIP3   OH248468   3.407   4.747  13.343  0.8768 -0.3084 -0.1583
 9018TIP3    H148469   3.345   4.726  13.273 -0.5493 -0.8651  1.2408
 9018TIP3    H248470   3.435   4.662  13.377 -0.2124 -0.0573  1.4619
 9019TIP3   OH248471   2.240   4.014  14.564  0.1661  0.1895 -0.0827
 9019TIP3    H148472   2.285   3.945  14.613 -0.7208 -1.3500 -1.3062
 9019TIP3    H248473   2.159   4.028  14.613  0.2922  0.2673  0.1042
 9020TIP3   OH248474   5.695   2.477  13.083  0.3198 -0.0262 -0.5208
 9020TIP3    H148475   5.622   2.539  13.083 -0.0936 -0.4680  0.8934
 9020TIP3    H248476   5.746   2.500  13.160  0.0480 -1.5491  0.1503
 9021TIP3   OH248477   4.630   6.626   6.221 -0.0367  0.5099  0.2788
 9021TIP3    H148478   4.680   6.652   6.143 -0.1981  2.4841  0.7777
 9021TIP3    H248479   4.687   6.564   6.266  0.1783 -0.4522 -1.2445
 9022TIP3   OH248480   6.169   0.551  17.164  0.0766 -0.0295  0.0888
 9022TIP3    H148481   6.155   0.630  17.110 -1.4316 -1.4913 -1.8039
 9022TIP3    H248482   6.096   0.494  17.142  0.4582 -1.5145  2.3365
 9023TIP3   OH248483   2.845   1.044  13.831  0.2465 -1.3030 -0.0814
 9023TIP3    H148484   2.847   0.951  13.857  0.1478 -1.4454 -0.5646
 9023TIP3    H248485   2.799   1.088  13.902 -1.0982 -1.8754 -0.5592
 9024TIP3   OH248486   1.888   2.624  13.947 -0.0637  0.1202  0.3601
 9024TIP3    H148487   1.899   2.552  14.009  3.2319 -1.6517 -1.9875
 9024TIP3    H248488   1.894   2.703  14.001 -0.5704 -1.2921  2.6302
 9025TIP3   OH248489   1.990   5.376   5.324  0.4299  0.2042  0.1140
 9025TIP3    H148490   2.005   5.299   5.269 -1.8721  0.7854 -1.5045
 9025TIP3    H248491   1.963   5.341   5.409  2.0288 -0.7226  0.2694
 9026TIP3   OH248492   0.990   4.057  10.649  0.6649  0.1583 -0.2465
 9026TIP3    H148493   1.036   4.027  10.727 -1.2088  0.1125  0.9048
 9026TIP3    H248494   0.948   4.138  10.675  1.3466  1.0336 -1.7444
 9027TIP3   OH248495   5.081   3.742   0.245 -0.0052 -0.9733  0.3559
 9027TIP3    H148496   5.119   3.810   0.190 -1.0301  1.1059  2.0782
 9027TIP3    H248497   5.067   3.668   0.185  1.6966  0.0815 -1.4603
 9028TIP3   OH248498   2.646   1.729  16.910  0.0306  0.1441 -0.0716
 9028TIP3    H148499   2.623   1.745  16.819 -1.7739 -0.6246  0.2179
 9028TIP3    H248500   2.712   1.659  16.906 -0.2676 -0.1026 -0.7577
 9029TIP3   OH248501   0.457   4.823  14.027  0.0685  0.3695  0.1840
 9029TIP3    H148502   0.545   4.808  14.063  0.1065 -1.2033 -0.4953
 9029TIP3    H248503   0.398   4.782  14.089  0.1642 -2.7879 -1.6213
 9030TIP3   OH248504   4.690   1.856  13.314 -0.4552 -0.3347 -0.0530
 9030TIP3    H148505   4.769   1.805  13.331 -0.2649  0.0007  0.0699
 9030TIP3    H248506   4.625   1.820  13.375  0.3224  1.1154  1.7116
 9031TIP3   OH248507   6.414   2.746   5.051  0.0115 -0.3254 -0.4100
 9031TIP3    H148508   6.446   2.705   5.132  0.6597 -0.6224 -0.8136
 9031TIP3    H248509   6.477   2.816   5.033 -0.1680 -0.2187 -0.6240
 9032TIP3   OH248510   4.503   1.837   5.970 -0.2982 -0.0981  0.0449
 9032TIP3    H148511   4.524   1.847   6.062  1.2193 -0.5509 -0.2370
 9032TIP3    H248512   4.409   1.818   5.969 -0.4730  0.5952  1.4362
 9033TIP3   OH248513   2.595   1.855  15.998 -0.2311 -0.2516 -0.5879
 9033TIP3    H148514   2.536   1.812  16.059  0.0353 -0.6092 -0.5816
 9033TIP3    H248515   2.614   1.940  16.038 -0.1575 -0.4342 -0.2373
 9034TIP3   OH248516   3.016   3.420  14.454 -0.7238  0.2341 -0.4903
 9034TIP3    H148517   3.012   3.516  14.457  0.1065  0.2964 -1.1542
 9034TIP3    H248518   3.040   3.400  14.364  1.6364 -0.4862  0.2206
 9035TIP3   OH248519   4.118   4.597  16.132  0.7613 -0.4611 -0.0588
 9035TIP3    H148520   4.041   4.550  16.101  0.2978 -0.8913  1.6248
 9035TIP3    H248521   4.084   4.682  16.163  0.9922 -0.5526  0.4571
 9036TIP3   OH248522   5.885   1.110  15.809 -0.2939 -0.0107 -0.1208
 9036TIP3    H148523   5.796   1.143  15.794 -0.6529 -1.5374 -1.7182
 9036TIP3    H248524   5.922   1.170  15.873 -2.4514  0.7227  0.5477
 9037TIP3   OH248525   0.451   5.347  15.170  0.0697  0.0021  0.0037
 9037TIP3    H148526   0.365   5.358  15.129  0.4462 -2.1991 -1.5734
 9037TIP3    H248527   0.462   5.252  15.175  2.1681  0.2439  0.7587
 9038TIP3   OH248528   1.173   5.632   5.147  0.0109 -0.1129  0.1770
 9038TIP3    H148529   1.114   5.647   5.220  0.3485 -0.5790  0.5535
 9038TIP3    H248530   1.246   5.691   5.163 -0.7845  1.1781 -0.8066
 9039TIP3   OH248531   0.819   3.872  11.301  0.5784  0.5017 -1.0096
 9039TIP3    H148532   0.849   3.945  11.356 -0.2277  0.4148 -0.4288
 9039TIP3    H248533   0.824   3.906  11.212  0.6268  1.1183 -0.7783
 9040TIP3   OH248534   5.533   3.473  15.059 -0.4030 -0.4983 -0.0425
 9040TIP3    H148535   5.626   3.448  15.059  0.1629  1.4310 -0.1520
 9040TIP3    H248536   5.534   3.567  15.042 -2.3183 -0.1668  1.3856
 9041TIP3   OH248537   0.188   5.744  11.055 -0.2128  0.1215 -0.6960
 9041TIP3    H148538   0.147   5.829  11.070 -0.1526  0.4541 -2.1844
 9041TIP3    H248539   0.260   5.764  10.995 -1.3528 -1.2046 -2.6059
 9042TIP3   OH248540   3.856   5.774   0.916  0.0219 -0.2430 -0.0389
 9042TIP3    H148541   3.934   5.829   0.918  0.4255 -0.7668 -0.8191
 9042TIP3    H248542   3.794   5.818   0.974  1.3586 -0.5644  1.6913
 9043TIP3   OH248543   5.535   5.421  13.657  0.1413 -0.2675 -0.0422
 9043TIP3    H148544   5.553   5.500  13.607 -0.0727 -0.4611 -0.4285
 9043TIP3    H248545   5.518   5.452  13.746  0.4782  0.0801 -0.1008
 9044TIP3   OH248546   2.816   3.062  14.395 -0.0789  0.4837  0.7293
 9044TIP3    H148547   2.762   3.140  14.407  0.1641  0.9706 -1.0574
 9044TIP3    H248548   2.879   3.086  14.327  0.4860 -1.0402  0.6623
 9045TIP3   OH248549   2.931   3.001  16.205 -0.0257 -0.2166  0.1228
 9045TIP3    H148550   3.006   2.957  16.165  0.0615  0.0220  0.0225
 9045TIP3    H248551   2.880   2.930  16.245 -1.1209 -0.6901 -2.0021
 9046TIP3   OH248552   1.030   1.736  11.048 -0.2580  0.3502 -0.5175
 9046TIP3    H148553   1.029   1.816  11.101  0.2270  0.2440 -0.3364
 9046TIP3    H248554   1.045   1.766  10.959  1.4020  0.3871 -0.2621
 9047TIP3   OH248555   4.187   0.907   6.054  0.0993 -0.1991  0.0227
 9047TIP3    H148556   4.260   0.900   6.116  0.2351  0.4334 -0.0571
 9047TIP3    H248557   4.218   0.970   5.989 -0.6713  0.3866  0.2104
 9048TIP3   OH248558   2.639   4.972  15.229 -0.3790 -0.1539  0.2762
 9048TIP3    H148559   2.594   4.898  15.187  0.5704 -1.1529  0.9386
 9048TIP3    H248560   2.572   5.039  15.238 -1.4214 -1.1374  0.1432
 9049TIP3   OH248561   6.281   0.446   1.938 -0.5089 -0.4247  0.0106
 9049TIP3    H148562   6.248   0.384   2.004 -2.6721 -1.7714 -2.1763
 9049TIP3    H248563   6.311   0.390   1.866  2.3225  0.9867 -0.0232
 9050TIP3   OH248564   4.373   6.264  11.286  0.9010 -0.2349  0.3118
 9050TIP3    H148565   4.405   6.257  11.197  1.7642  0.2459  0.5718
 9050TIP3    H248566   4.435   6.322  11.330 -0.3936  0.8540  0.8058
 9051TIP3   OH248567   1.729   3.801  14.349  0.0681  0.5100 -0.1215
 9051TIP3    H148568   1.649   3.812  14.299  0.3756 -1.4000 -1.1550
 9051TIP3    H248569   1.799   3.824  14.288  0.3446  1.1072  0.4179
 9052TIP3   OH248570   1.552   1.474   5.023 -0.0154 -0.3324  0.2754
 9052TIP3    H148571   1.629   1.523   5.051 -0.0209 -0.6885  0.9255
 9052TIP3    H248572   1.537   1.502   4.933  0.8298 -0.2066  0.1704
 9053TIP3   OH248573   0.460   3.626  11.923 -0.0279 -0.7061 -0.1051
 9053TIP3    H148574   0.532   3.567  11.947  0.2583 -0.9483 -1.4397
 9053TIP3    H248575   0.403   3.627  12.000  1.9235  0.3297  1.4208
 9054TIP3   OH248576   6.581   1.055   4.042 -0.8268 -0.1275 -0.4230
 9054TIP3    H148577   6.572   1.034   4.135  1.0341 -0.3742 -0.2630
 9054TIP3    H248578   6.600   0.971   4.000 -0.2573  0.1921 -0.8152
 9055TIP3   OH248579   1.023   2.385   0.364 -0.8678  0.0647  0.1245
 9055TIP3    H148580   0.956   2.343   0.310 -0.3426 -2.5105  1.3263
 9055TIP3    H248581   1.105   2.369   0.317 -0.5413 -1.2587  1.0749
 9056TIP3   OH248582   3.538   1.683   4.927 -0.0742 -0.4506 -1.0290
 9056TIP3    H148583   3.621   1.650   4.963  0.0602  1.5806  0.7622
 9056TIP3    H248584   3.541   1.660   4.834  1.9951 -1.3701 -0.7979
 9057TIP3   OH248585   5.054   0.982  14.674  0.1830  0.2317 -0.2835
 9057TIP3    H148586   5.053   0.887  14.675  1.7941  0.1927 -0.5138
 9057TIP3    H248587   4.962   1.007  14.684 -0.1164 -1.3189  1.2751
 9058TIP3   OH248588   3.834   1.781   1.500 -0.2933 -0.5260 -0.0569
 9058TIP3    H148589   3.900   1.833   1.545  3.0470 -1.5783 -3.2652
 9058TIP3    H248590   3.795   1.840   1.436  2.3957 -1.2812 -2.6234
 9059TIP3   OH248591   4.180   2.672   0.831  0.1557  0.0330  0.2816
 9059TIP3    H148592   4.144   2.590   0.799  2.6520 -1.6069  1.3889
 9059TIP3    H248593   4.120   2.700   0.899 -1.7608  0.2143 -1.3964
 9060TIP3   OH248594   2.359   0.132   1.596  0.1216  0.3696  0.2228
 9060TIP3    H148595   2.374   0.089   1.680 -0.5196  1.7963  1.1127
 9060TIP3    H248596   2.445   0.134   1.554  1.2671  2.6883  2.3996
 9061TIP3   OH248597   4.030   0.815  15.564  0.3803  0.3481  0.8697
 9061TIP3    H148598   4.065   0.802  15.476  1.4534 -0.9459  1.4668
 9061TIP3    H248599   4.089   0.767  15.622 -0.5788  0.7644  2.2594
 9062TIP3   OH248600   6.175   1.080  12.053 -0.3801  0.0869 -0.0539
 9062TIP3    H148601   6.216   1.093  11.968 -2.1181 -0.1087 -0.9817
 9062TIP3    H248602   6.246   1.089  12.116  0.6388  2.1704 -1.3750
 9063TIP3   OH248603   1.194   6.057  16.235 -0.0177  0.4506 -0.4028
 9063TIP3    H148604   1.261   6.082  16.299 -0.4273 -1.7921  1.0077
 9063TIP3    H248605   1.244   6.027  16.159  0.4829  2.6152 -0.9786
 9064TIP3   OH248606   4.000   1.166  16.543 -0.2864  0.5933 -0.5622
 9064TIP3    H148607   3.929   1.108  16.517 -0.3209  0.9037 -1.2043
 9064TIP3    H248608   4.078   1.130  16.500  0.0491 -0.0261  0.5345
 9065TIP3   OH248609   5.139   2.164  10.362  0.1356 -0.2383 -0.0449
 9065TIP3    H148610   5.094   2.143  10.280 -1.3720  1.4880  0.2635
 9065TIP3    H248611   5.098   2.108  10.427 -1.0992  0.7892  0.0971
 9066TIP3   OH248612   2.655   2.564   5.918 -0.3207  0.3174  0.2386
 9066TIP3    H148613   2.665   2.533   6.008 -1.3102 -0.8366 -0.0230
 9066TIP3    H248614   2.745   2.564   5.882  0.2420  1.9152  1.5412
 9067TIP3   OH248615   5.851   5.964  12.809 -0.9510 -0.1985  0.6243
 9067TIP3    H148616   5.802   6.036  12.848  1.0043  1.4024  0.2563
 9067TIP3    H248617   5.797   5.887  12.826 -2.0385  0.9835  3.0708
 9068TIP3   OH248618   5.013   6.203  13.461  0.3699  0.3902 -0.1509
 9068TIP3    H148619   5.099   6.216  13.420  2.1898 -1.4852  2.7173
 9068TIP3    H248620   5.031   6.146  13.535 -3.2682  0.7265  1.1530
 9069TIP3   OH248621   1.767   1.598   3.757  0.2912 -0.1438 -0.0650
 9069TIP3    H148622   1.743   1.551   3.678 -0.6045 -0.8812  0.6290
 9069TIP3    H248623   1.771   1.690   3.730 -1.9250 -0.1344 -0.5489
 9070TIP3   OH248624   3.331   3.562  13.520  0.3361 -0.0375 -0.6076
 9070TIP3    H148625   3.389   3.625  13.477  1.6010 -0.1128  0.8680
 9070TIP3    H248626   3.379   3.479  13.514  0.9115  0.0711  1.4382
 9071TIP3   OH248627   4.629   1.732   2.126 -0.7836 -0.1986 -0.3465
 9071TIP3    H148628   4.700   1.668   2.137 -1.0687 -0.5496 -0.5059
 9071TIP3    H248629   4.671   1.817   2.135 -0.2728 -0.3990 -0.8056
 9072TIP3   OH248630   3.566   1.745   0.467 -0.0448  0.0108 -0.3153
 9072TIP3    H148631   3.631   1.695   0.418 -1.1910 -1.5362 -0.3405
 9072TIP3    H248632   3.500   1.770   0.402  0.0033  0.6885 -0.1126
 9073TIP3   OH248633   2.112   0.328  12.014 -0.0114  0.2084  0.3197
 9073TIP3    H148634   2.203   0.344  12.041  0.8811  1.3861 -2.8677
 9073TIP3    H248635   2.065   0.406  12.045 -0.4591 -1.1811  3.5213
 9074TIP3   OH248636   4.408   2.331  12.982  0.3595  0.2639  0.0046
 9074TIP3    H148637   4.380   2.308  12.893  1.9152 -1.6146 -0.0553
 9074TIP3    H248638   4.480   2.393  12.969  1.2652 -0.7931 -0.1008
 9075TIP3   OH248639   4.499   2.984   2.967  0.4586  0.2201 -0.7182
 9075TIP3    H148640   4.456   2.986   3.052  0.1968 -0.2823 -0.8348
 9075TIP3    H248641   4.593   2.986   2.987  0.4030  1.3487 -0.4625
 9076TIP3   OH248642   2.808   0.115  13.548 -0.0120 -0.0578  0.7855
 9076TIP3    H148643   2.738   0.052  13.529  2.3944 -2.7631  0.0387
 9076TIP3    H248644   2.809   0.174  13.473  0.1233 -1.6574 -0.5299
 9077TIP3   OH248645   2.365   1.046  15.845  0.0472 -0.5338  0.5536
 9077TIP3    H148646   2.296   1.113  15.841 -0.3785 -0.9070  1.3367
 9077TIP3    H248647   2.444   1.091  15.817 -0.4757 -0.0366 -0.1644
 9078TIP3   OH248648   5.990   3.906   0.663  0.5084 -0.0563  0.2169
 9078TIP3    H148649   5.935   3.967   0.613 -1.5264 -1.1610  0.9804
 9078TIP3    H248650   6.033   3.960   0.728 -2.1817  0.5187  1.6746
 9079TIP3   OH248651   3.329   6.271   3.931  0.4057 -0.9078 -0.1082
 9079TIP3    H148652   3.280   6.236   4.006  0.4267 -0.6931  0.0070
 9079TIP3    H248653   3.298   6.220   3.856  0.3207 -1.0646  0.0331
 9080TIP3   OH248654   0.711   6.674  14.477 -0.0890 -0.0811 -0.1646
 9080TIP3    H148655   0.763   6.625  14.413  0.5114 -0.1644  0.3700
 9080TIP3    H248656   0.708   6.763  14.443 -1.9475 -0.6276 -1.6082
 9081TIP3   OH248657   6.291   3.419  14.741  0.3139 -0.1796  0.6120
 9081TIP3    H148658   6.254   3.497  14.701  1.6291 -0.1059 -0.5625
 9081TIP3    H248659   6.219   3.356  14.745 -0.0750  0.0999 -1.1589
 9082TIP3   OH248660   2.226   0.964   5.756 -0.0219 -0.0788  0.4695
 9082TIP3    H148661   2.316   0.960   5.787  0.2600 -2.1673 -0.4299
 9082TIP3    H248662   2.222   1.043   5.702  0.9790  0.5467  1.2850
 9083TIP3   OH248663   3.657   2.552   3.578  0.1406  0.2602  0.0594
 9083TIP3    H148664   3.687   2.461   3.582 -0.3866  0.1276  1.9673
 9083TIP3    H248665   3.565   2.548   3.604  0.4046  1.4395  1.2941
 9084TIP3   OH248666   0.654   3.552   0.679 -0.0086 -0.1997  0.5429
 9084TIP3    H148667   0.669   3.457   0.681 -1.2860 -0.4198  1.2472
 9084TIP3    H248668   0.694   3.584   0.760  0.8061 -0.0651  0.0916
 9085TIP3   OH248669   4.363   3.626  12.808  0.6893  0.2614  0.2289
 9085TIP3    H148670   4.292   3.676  12.768 -1.4161 -0.1363  3.1340
 9085TIP3    H248671   4.392   3.565  12.740 -2.7926 -0.5975 -0.6398
 9086TIP3   OH248672   5.908   6.029  15.682 -0.1865  0.1760 -0.2100
 9086TIP3    H148673   5.866   6.104  15.640 -2.3545  0.8542  2.7976
 9086TIP3    H248674   5.835   5.975  15.712  1.1770 -0.5648  1.9801
 9087TIP3   OH248675   3.064   6.609   2.948  0.5889  0.0104 -0.0198
 9087TIP3    H148676   2.995   6.658   2.902  1.0598  0.7625  0.0573
 9087TIP3    H248677   3.062   6.643   3.037  0.8031 -0.2400  0.0811
 9088TIP3   OH248678   3.055   6.344   2.631 -0.2340 -0.6506  0.2480
 9088TIP3    H148679   3.056   6.349   2.535 -4.1964  0.5640  0.0730
 9088TIP3    H248680   3.015   6.427   2.659 -3.1813 -2.6079  2.5513
 9089TIP3   OH248681   2.324   1.493   0.258 -0.1667 -0.0245 -0.5208
 9089TIP3    H148682   2.313   1.489   0.163  0.3616 -2.7134 -0.5554
 9089TIP3    H248683   2.410   1.534   0.271  0.4957 -1.1035 -1.3131
 9090TIP3   OH248684   6.451   0.433   6.620 -0.4435 -0.4120 -0.2516
 9090TIP3    H148685   6.400   0.501   6.664 -1.9061 -0.0730 -2.3304
 9090TIP3    H248686   6.538   0.471   6.609 -0.5284  0.1172  0.8480
 9091TIP3   OH248687   6.105   0.212  17.005  0.0808  0.5274  0.7096
 9091TIP3    H148688   6.086   0.235  16.914 -0.7297 -0.1045  0.7057
 9091TIP3    H248689   6.200   0.201  17.008  0.2641  1.7546  0.2347
 9092TIP3   OH248690   3.469   5.644  10.938  0.4233  0.1943  0.3849
 9092TIP3    H148691   3.442   5.662  11.028 -2.4111 -1.5935  0.0252
 9092TIP3    H248692   3.417   5.568  10.912  1.7819  0.1010 -2.4984
 9093TIP3   OH248693   2.412   3.031   0.332  0.0310  0.6369 -0.3325
 9093TIP3    H148694   2.454   2.959   0.380 -0.4844 -0.1795 -1.0821
 9093TIP3    H248695   2.421   3.007   0.240 -0.9430  1.0852 -0.5517
 9094TIP3   OH248696   4.788   2.247   5.388  0.1603 -0.0143 -0.3765
 9094TIP3    H148697   4.694   2.260   5.377  0.1376  1.2398  0.9439
 9094TIP3    H248698   4.813   2.187   5.318 -1.7063 -0.7803 -0.4250
 9095TIP3   OH248699   5.296   0.437   2.841 -0.1690 -0.2042  0.4827
 9095TIP3    H148700   5.389   0.416   2.829  0.2867  1.7255  0.2164
 9095TIP3    H248701   5.295   0.496   2.916 -1.4146 -1.5269  1.5563
 9096TIP3   OH248702   1.832   0.305   2.564  0.3369 -0.0528  0.0436
 9096TIP3    H148703   1.862   0.215   2.550  0.9349  0.2152 -0.4390
 9096TIP3    H248704   1.879   0.334   2.641  1.3434  0.3652 -0.7096
 9097TIP3   OH248705   1.196   0.691   0.374 -0.7592 -0.4433  0.3856
 9097TIP3    H148706   1.145   0.610   0.385 -2.1145  0.3765  0.2941
 9097TIP3    H248707   1.225   0.689   0.283 -0.6257 -0.9099  0.4351
 9098TIP3   OH248708   2.155   0.167  13.928  0.0639 -0.6294 -0.0741
 9098TIP3    H148709   2.156   0.247  13.875 -1.9143 -1.0606 -0.8617
 9098TIP3    H248710   2.223   0.112  13.890  1.0614  0.4480  0.1106
 9099TIP3   OH248711   3.754   2.434  14.173 -1.1364  0.1639  0.7351
 9099TIP3    H148712   3.846   2.418  14.194 -0.8414 -1.1225 -1.2585
 9099TIP3    H248713   3.707   2.366  14.219 -0.8527 -0.4642  0.1227
 9100TIP3   OH248714   6.748   2.545  11.459  0.3945  0.0105  0.1865
 9100TIP3    H148715   6.691   2.468  11.458 -1.1028  1.0832  0.3268
 9100TIP3    H248716   6.808   2.531  11.386 -2.0412  0.2469 -2.0165
 9101TIP3   OH248717   0.887   2.765  13.070  0.5131  0.0747 -0.1125
 9101TIP3    H148718   0.974   2.805  13.075  0.8260 -0.4953 -0.7884
 9101TIP3    H248719   0.890   2.691  13.131 -0.3188  1.4711  1.7346
 9102TIP3   OH248720   2.501   3.977   0.176  0.0501  0.2680  0.0036
 9102TIP3    H148721   2.501   3.997   0.083  0.7394 -1.0741 -0.3149
 9102TIP3    H248722   2.575   4.025   0.212  0.0663  0.4177 -0.2308
 9103TIP3   OH248723   2.779   4.930   1.327 -0.0295  0.0324  0.2312
 9103TIP3    H148724   2.800   4.856   1.383  3.5147 -0.1719 -1.1521
 9103TIP3    H248725   2.777   4.895   1.238 -1.1040  1.1325 -0.2199
 9104TIP3   OH248726   2.323   5.146   4.751  0.3883  0.2727 -0.0278
 9104TIP3    H148727   2.411   5.161   4.786  0.1449  0.5196  0.4953
 9104TIP3    H248728   2.319   5.052   4.734  1.4421  0.5234 -1.9625
 9105TIP3   OH248729   3.552   5.151  11.553 -0.0423  0.1288 -0.4398
 9105TIP3    H148730   3.500   5.230  11.542  1.3947  1.5851  2.2292
 9105TIP3    H248731   3.629   5.165  11.498  0.2518  0.6802  0.0932
 9106TIP3   OH248732   2.299   6.228  12.438  0.2373 -0.0606  0.4014
 9106TIP3    H148733   2.381   6.245  12.392 -0.1457  0.6160 -0.0591
 9106TIP3    H248734   2.295   6.133  12.448  0.5762 -0.1758 -0.5155
 9107TIP3   OH248735   2.200   1.960  12.840  0.4671  0.0240 -0.1929
 9107TIP3    H148736   2.265   2.023  12.872  0.2283  0.8808 -1.2969
 9107TIP3    H248737   2.151   1.935  12.918  2.2381 -0.8224  0.7095
 9108TIP3   OH248738   0.053   4.703  14.689  0.5012  0.2260  0.0494
 9108TIP3    H148739  -0.016   4.769  14.693  0.6030  0.2940  0.8854
 9108TIP3    H248740   0.062   4.683  14.596 -2.3493 -1.5819  0.0144
 9109TIP3   OH248741   6.668   1.865  15.165  0.0620  0.4247  0.5017
 9109TIP3    H148742   6.625   1.802  15.107  0.8766  1.4367 -1.2962
 9109TIP3    H248743   6.735   1.906  15.110 -0.1630  2.5660  1.7074
 9110TIP3   OH248744   0.361   6.152  13.306  0.7051 -0.0465  0.0296
 9110TIP3    H148745   0.377   6.182  13.395 -0.4977 -0.8935  0.5740
 9110TIP3    H248746   0.295   6.213  13.272  0.1411 -0.5305  0.2318
 9111TIP3   OH248747   2.294   6.480   6.382 -0.3298 -0.6188  0.3797
 9111TIP3    H148748   2.331   6.444   6.463  1.3401  0.0885 -0.0228
 9111TIP3    H248749   2.288   6.404   6.323  1.4388 -0.6205  0.1456
 9112TIP3   OH248750   3.419   1.528   1.660 -0.5301 -0.1728  0.0326
 9112TIP3    H148751   3.416   1.619   1.629  0.7561  0.2083  0.9752
 9112TIP3    H248752   3.329   1.497   1.650 -0.6957  0.7306 -1.6575
 9113TIP3   OH248753   2.421   0.499  13.410 -0.4476 -0.2907 -0.3888
 9113TIP3    H148754   2.352   0.563  13.423 -0.8907 -0.7602 -0.3895
 9113TIP3    H248755   2.465   0.526  13.330  2.0462  2.4110  1.6943
 9114TIP3   OH248756   4.928   1.813  13.958  0.3337  0.4793  0.4666
 9114TIP3    H148757   4.987   1.889  13.962 -1.9272  2.4141 -0.4072
 9114TIP3    H248758   4.853   1.845  13.909 -1.4696 -1.8541  1.5562
 9115TIP3   OH248759   5.484   5.729  16.937 -0.1707 -0.4970  0.1871
 9115TIP3    H148760   5.414   5.739  17.002 -1.6901 -0.6343 -1.3543
 9115TIP3    H248761   5.473   5.803  16.878  0.5151 -0.9402 -0.5165
 9116TIP3   OH248762   1.903   2.035   1.488 -0.1764 -0.2847  0.1712
 9116TIP3    H148763   1.820   2.078   1.464  0.8358  2.0156  0.5442
 9116TIP3    H248764   1.958   2.105   1.522  1.8439 -1.8047  0.2520
 9117TIP3   OH248765   0.688   4.167  14.449  0.4176  0.3857 -0.7209
 9117TIP3    H148766   0.643   4.217  14.516 -0.9515  2.2647 -2.8905
 9117TIP3    H248767   0.772   4.212  14.438  1.6171 -1.2353  1.1341
 9118TIP3   OH248768   2.007   6.261  12.354  0.0934  0.2280  0.2071
 9118TIP3    H148769   2.090   6.267  12.401 -0.7666  1.0316  1.6837
 9118TIP3    H248770   1.978   6.352  12.344 -0.9091 -0.0746  0.2552
 9119TIP3   OH248771   3.107   3.094  12.282 -0.2076 -0.0148  0.1461
 9119TIP3    H148772   3.127   3.000  12.286 -2.5580 -0.5398  1.2134
 9119TIP3    H248773   3.108   3.115  12.189  0.7938 -0.9661 -0.0813
 9120TIP3   OH248774   2.527   5.454  17.267 -0.1052  0.6378 -0.5947
 9120TIP3    H148775   2.604   5.416  17.309 -0.1453  0.5043 -0.6424
 9120TIP3    H248776   2.453   5.411  17.310 -0.1986  1.7128  0.3881
 9121TIP3   OH248777   1.755   2.400  16.348  0.6289 -0.2204  0.1462
 9121TIP3    H148778   1.667   2.424  16.318 -0.5706 -1.3497  2.4465
 9121TIP3    H248779   1.807   2.394  16.268 -1.4245  0.3387 -1.3164
 9122TIP3   OH248780   6.418   6.154  13.348 -0.7747 -0.2740  0.3141
 9122TIP3    H148781   6.454   6.175  13.262 -1.1866 -0.4250  0.0987
 9122TIP3    H248782   6.494   6.144  13.405 -0.5142  1.6873  0.4089
 9123TIP3   OH248783   1.028   6.131  14.375  0.2075  0.4713  0.2286
 9123TIP3    H148784   1.102   6.182  14.405 -0.1092  0.5751  0.8624
 9123TIP3    H248785   1.006   6.075  14.449 -0.1569  0.2261 -0.0577
 9124TIP3   OH248786   5.269   5.581   2.423  0.3232  0.0368  0.6395
 9124TIP3    H148787   5.206   5.542   2.485 -0.3832 -0.0234 -0.0979
 9124TIP3    H248788   5.214   5.622   2.356  1.0803 -0.6983 -0.4506
 9125TIP3   OH248789   0.691   2.964  11.175  0.3075 -0.2880 -0.4555
 9125TIP3    H148790   0.718   2.875  11.196 -1.2097 -1.0550 -1.5305
 9125TIP3    H248791   0.680   3.007  11.260  1.7499 -0.8827  0.0529
 9126TIP3   OH248792   2.067   3.098  15.261 -0.1052  0.1708 -0.1440
 9126TIP3    H148793   2.138   3.059  15.312  2.1069  0.3995 -2.7802
 9126TIP3    H248794   2.033   3.169  15.316  0.3198 -1.1981  2.0016
 9127TIP3   OH248795   4.550   4.149   2.523  0.3581  0.2202 -0.3562
 9127TIP3    H148796   4.511   4.079   2.470 -2.2821 -0.6443  2.4345
 9127TIP3    H248797   4.605   4.104   2.586 -0.7997  0.6468  1.0130
 9128TIP3   OH248798   6.130   0.626  14.437 -0.3492 -0.5275  0.1110
 9128TIP3    H148799   6.203   0.603  14.494 -1.2802 -3.1181  0.4023
 9128TIP3    H248800   6.054   0.629  14.496 -1.0632 -1.7004 -0.7030
 9129TIP3   OH248801   6.584   4.956   0.868 -0.3351  0.6168  0.3883
 9129TIP3    H148802   6.637   4.878   0.858 -0.2965  0.3724  2.1888
 9129TIP3    H248803   6.606   5.010   0.791 -0.0097 -0.8928 -0.6278
 9130TIP3   OH248804   4.080   3.759  14.515  0.4289 -0.1038 -0.8258
 9130TIP3    H148805   4.048   3.670  14.530  1.9901 -0.7732 -1.2744
 9130TIP3    H248806   4.011   3.815  14.551 -0.7173 -1.4710 -0.7817
 9131TIP3   OH248807   3.135   5.988  16.973 -0.0656 -0.1552 -0.4875
 9131TIP3    H148808   3.069   5.932  16.933 -0.5750  0.0229  0.0955
 9131TIP3    H248809   3.200   5.927  17.007  0.5342 -0.3024 -1.8339
 9132TIP3   OH248810   5.339   4.282   0.318  0.1952  0.4264  0.2964
 9132TIP3    H148811   5.270   4.234   0.272  1.5884 -1.5476  0.1802
 9132TIP3    H248812   5.324   4.261   0.411  1.4463 -1.1733  0.1638
 9133TIP3   OH248813   4.463   2.349  13.826 -0.3128 -0.4403  0.4698
 9133TIP3    H148814   4.470   2.298  13.745 -0.1757 -2.4960  1.6944
 9133TIP3    H248815   4.547   2.394  13.833 -0.6614  0.4666 -0.9586
 9134TIP3   OH248816   3.386   2.870  13.476  0.0641 -0.2274  0.1427
 9134TIP3    H148817   3.417   2.946  13.426 -1.6859  0.5369  0.1118
 9134TIP3    H248818   3.371   2.904  13.564  0.6304 -0.9074  0.5059
 9135TIP3   OH248819   3.530   4.784  15.262 -0.1004 -0.2439 -0.0179
 9135TIP3    H148820   3.571   4.754  15.343 -2.1300 -2.1220  0.3917
 9135TIP3    H248821   3.441   4.807  15.287  0.2586  2.6869 -1.0931
 9136TIP3   OH248822   0.436   4.989  12.988 -0.0619  0.1509 -0.2852
 9136TIP3    H148823   0.478   4.905  12.968 -1.4320 -0.7234  0.3492
 9136TIP3    H248824   0.359   4.966  13.040  0.3245  1.9144  1.1964
 9137TIP3   OH248825   4.200   1.725   6.355  0.3420  0.3030  0.3971
 9137TIP3    H148826   4.187   1.811   6.314  0.6413  0.3378  0.3783
 9137TIP3    H248827   4.212   1.744   6.448 -1.9981  0.1195  0.8190
 9138TIP3   OH248828   5.770   2.371  14.941 -0.2625  0.4946  0.1843
 9138TIP3    H148829   5.688   2.324  14.954  0.1666 -0.8611 -1.5795
 9138TIP3    H248830   5.838   2.306  14.959  0.3949  1.1407  0.0863
 9139TIP3   OH248831   1.907   2.213  17.322 -0.5136 -0.4788  0.6693
 9139TIP3    H148832   1.961   2.288  17.347  0.0832 -1.1419  1.4274
 9139TIP3    H248833   1.967   2.156  17.274 -1.4067  0.3404 -1.5387
 9140TIP3   OH248834   2.097   2.633   4.804  0.1327  0.4271  0.4256
 9140TIP3    H148835   2.147   2.621   4.885  0.8199  1.0799  0.1092
 9140TIP3    H248836   2.156   2.681   4.746  0.0554 -0.9409 -0.8588
 9141TIP3   OH248837   1.244   3.163   2.322  0.0060  0.1273  0.4700
 9141TIP3    H148838   1.244   3.085   2.378 -0.6919  0.5938  1.1475
 9141TIP3    H248839   1.198   3.229   2.374 -2.2434  0.0790 -1.3158
 9142TIP3   OH248840   0.370   2.248   4.359  0.1036 -0.5140  0.3185
 9142TIP3    H148841   0.412   2.298   4.290  1.0460 -1.0554  0.4823
 9142TIP3    H248842   0.299   2.304   4.390  0.6148  0.3578 -0.0653
 9143TIP3   OH248843   0.874   6.493  15.619 -0.5057  0.1787 -0.0419
 9143TIP3    H148844   0.866   6.508  15.525 -0.2993 -0.6285 -0.1948
 9143TIP3    H248845   0.786   6.511  15.654 -0.6051  0.3883 -0.3969
 9144TIP3   OH248846   1.562   2.464  12.415  0.2486  0.0297 -0.2202
 9144TIP3    H148847   1.508   2.510  12.351  0.8756 -1.5212 -1.9648
 9144TIP3    H248848   1.518   2.379  12.426 -0.5823  0.7110  2.4959
 9145TIP3   OH248849   0.886   5.397   4.991 -0.0088  0.3184 -0.1677
 9145TIP3    H148850   0.972   5.416   4.953  3.4571 -1.0868  5.7470
 9145TIP3    H248851   0.869   5.471   5.049 -2.3851  0.0203 -0.3924
 9146TIP3   OH248852   3.421   6.039   1.918 -0.5816  0.5018 -0.2321
 9146TIP3    H148853   3.452   6.073   1.834  2.1820 -0.8257  0.1237
 9146TIP3    H248854   3.336   6.000   1.899  0.5306 -0.9434 -2.7541
 9147TIP3   OH248855   1.405   2.021   4.449  0.0304 -0.4129  0.5340
 9147TIP3    H148856   1.483   2.076   4.457 -0.9705  0.9665  1.2099
 9147TIP3    H248857   1.408   1.987   4.360  0.8549  0.4672  0.2137
 9148TIP3   OH248858   5.665   4.998   0.875  0.7200 -0.2333 -0.1431
 9148TIP3    H148859   5.725   5.069   0.851  0.1228  0.2186 -0.3174
 9148TIP3    H248860   5.580   5.040   0.884  0.6143 -0.6669  1.1801
 9149TIP3   OH248861   4.700   1.220   4.922  0.3914  0.5545  0.1297
 9149TIP3    H148862   4.685   1.141   4.869  1.0097 -0.5773  1.5777
 9149TIP3    H248863   4.777   1.261   4.882 -0.1862  0.6932 -0.8967
 9150TIP3   OH248864   3.780   0.551  10.940 -0.0917  0.2766 -0.0337
 9150TIP3    H148865   3.718   0.562  11.012  1.3142  0.0239  1.2442
 9150TIP3    H248866   3.785   0.637  10.898 -0.1511  0.6922  0.8081
 9151TIP3   OH248867   5.557   4.167  16.477  0.2167  0.4157  0.6966
 9151TIP3    H148868   5.479   4.166  16.533 -1.8405 -2.4015 -1.8830
 9151TIP3    H248869   5.622   4.114  16.525 -2.0285 -3.3264  0.0299
 9152TIP3   OH248870   3.936   0.405  15.355 -0.4875 -0.5859 -0.0109
 9152TIP3    H148871   3.972   0.489  15.325 -1.0925 -0.3484 -0.0945
 9152TIP3    H248872   3.925   0.354  15.275 -0.3216 -0.6669  0.0170
 9153TIP3   OH248873   3.159   5.976   5.830 -0.1306 -0.0484 -0.7296
 9153TIP3    H148874   3.217   5.986   5.905 -1.3934  1.2143  0.1259
 9153TIP3    H248875   3.168   5.884   5.806  0.9681 -0.2733  0.3994
 9154TIP3   OH248876   1.828   4.790  16.504 -0.2990  0.4818 -0.0072
 9154TIP3    H148877   1.753   4.828  16.459 -0.4654  1.3078  0.9446
 9154TIP3    H248878   1.826   4.828  16.592  1.0770  0.3283  0.1190
 9155TIP3   OH248879   5.081   3.821  14.204  0.2987  0.5857  0.1146
 9155TIP3    H148880   5.066   3.911  14.234 -2.1042  0.4736 -0.5655
 9155TIP3    H248881   4.994   3.782  14.201  1.0886 -1.1960 -1.4053
 9156TIP3   OH248882   5.839   5.394   3.718 -0.0582  0.1981  0.4319
 9156TIP3    H148883   5.899   5.323   3.694 -0.0819  0.6473 -1.1037
 9156TIP3    H248884   5.752   5.358   3.705 -0.1131  0.0131  1.2392
 9157TIP3   OH248885   2.291   3.709   3.670  0.5185  0.2767  0.8308
 9157TIP3    H148886   2.356   3.724   3.601  0.7917  1.0044  1.2331
 9157TIP3    H248887   2.238   3.637   3.637 -0.0071  1.2615 -0.6117
 9158TIP3   OH248888   4.799   5.914  11.951  0.0243 -0.6908 -0.6440
 9158TIP3    H148889   4.745   5.885  11.878 -1.1542  1.6025 -0.7633
 9158TIP3    H248890   4.758   5.875  12.028 -0.7228 -0.4482 -0.9110
 9159TIP3   OH248891   1.654   0.833   3.401 -0.0826 -0.1382 -0.6365
 9159TIP3    H148892   1.743   0.855   3.429 -1.2677  0.0581  3.5329
 9159TIP3    H248893   1.667   0.765   3.335  3.1305 -0.7734  0.4557
 9160TIP3   OH248894   5.380   3.526  15.606 -0.1766 -0.3072 -0.5312
 9160TIP3    H148895   5.287   3.527  15.629 -0.4350 -1.2211 -1.4728
 9160TIP3    H248896   5.386   3.465  15.532  1.3106 -0.9914  0.1058
 9161TIP3   OH248897   0.203   6.042  15.396 -0.1602  0.7218 -1.0378
 9161TIP3    H148898   0.159   6.073  15.476 -1.1077  0.9004 -1.6010
 9161TIP3    H248899   0.257   6.116  15.369  2.0958 -0.1793  0.7320
 9162TIP3   OH248900   6.224   0.518   2.329  0.2705  0.0761  0.4254
 9162TIP3    H148901   6.269   0.444   2.372 -3.2595 -1.9397  1.0949
 9162TIP3    H248902   6.149   0.535   2.386 -1.0497  1.7046 -1.6908
 9163TIP3   OH248903   2.804   0.828  17.233 -0.4595  0.3442 -0.2807
 9163TIP3    H148904   2.854   0.815  17.153 -1.3619 -0.4021 -0.7344
 9163TIP3    H248905   2.730   0.768  17.226 -1.3701  1.3353  0.4193
 9164TIP3   OH248906   6.305   3.092   4.330 -0.1121  0.0102 -0.1969
 9164TIP3    H148907   6.246   3.131   4.394 -1.2532  1.0227 -1.7915
 9164TIP3    H248908   6.393   3.106   4.366 -0.7074  0.6016  1.0811
 9165TIP3   OH248909   4.275   5.159  11.318 -0.1759  0.2358  0.1126
 9165TIP3    H148910   4.312   5.194  11.237  1.7644  1.6127  1.5190
 9165TIP3    H248911   4.188   5.199  11.324 -0.4974 -0.1708 -1.4339
 9166TIP3   OH248912   2.258   5.063   0.307 -0.1439 -0.1484  0.2343
 9166TIP3    H148913   2.268   5.126   0.235  0.1072  1.2953  1.4804
 9166TIP3    H248914   2.266   4.977   0.265 -0.8986  0.6143 -1.5865
 9167TIP3   OH248915   5.284   5.318  12.887 -0.6821 -0.1943 -0.3142
 9167TIP3    H148916   5.313   5.385  12.826 -0.7951  0.9676  0.8611
 9167TIP3    H248917   5.195   5.296  12.858 -0.6064  0.0887 -0.7618
 9168TIP3   OH248918   2.523   5.193  17.063  0.0780 -0.4348  0.1640
 9168TIP3    H148919   2.489   5.232  16.982 -0.5769 -1.0374  0.1481
 9168TIP3    H248920   2.446   5.179  17.117  0.3828 -1.1271  0.4220
 9169TIP3   OH248921   1.857   0.589   4.068  0.3603 -0.6692 -0.3348
 9169TIP3    H148922   1.831   0.603   3.977 -0.2790 -0.8955 -0.1895
 9169TIP3    H248923   1.850   0.495   4.081 -2.0583 -0.4235  0.6725
 9170TIP3   OH248924   0.733   2.781   3.258 -0.0008  0.2219 -0.5054
 9170TIP3    H148925   0.757   2.698   3.217  2.4361  0.5525  0.0782
 9170TIP3    H248926   0.720   2.759   3.351  2.7680  0.7356  0.0867
 9171TIP3   OH248927   5.588   6.061  16.023  0.1469 -0.4172  0.0668
 9171TIP3    H148928   5.671   6.101  16.047  0.3784 -1.0636  0.3754
 9171TIP3    H248929   5.524   6.132  16.028  0.4931 -0.1616  0.9083
 9172TIP3   OH248930   3.139   4.379  12.204 -0.2251 -0.1327 -0.5466
 9172TIP3    H148931   3.207   4.433  12.243 -0.6805  0.2897 -0.3225
 9172TIP3    H248932   3.170   4.362  12.115 -0.4522  1.1934 -0.9010
 9173TIP3   OH248933   0.019   2.413  11.986 -0.4111  0.0096  0.2594
 9173TIP3    H148934   0.076   2.338  12.003  0.2377  0.1276 -1.3222
 9173TIP3    H248935   0.011   2.456  12.072 -0.4193 -1.5656  1.0981
 9174TIP3   OH248936   3.211   4.589  17.110 -0.3374 -0.5935  0.0713
 9174TIP3    H148937   3.126   4.633  17.110 -0.3838 -0.6755  0.6606
 9174TIP3    H248938   3.213   4.539  17.192 -0.2719 -1.6688 -0.5727
 9175TIP3   OH248939   0.830   3.641   5.113  0.2535 -0.2846 -0.5828
 9175TIP3    H148940   0.803   3.560   5.069 -2.5489  0.7072 -0.8728
 9175TIP3    H248941   0.811   3.710   5.049  2.0627  0.6986 -0.1253
 9176TIP3   OH248942   4.294   3.262   4.807  0.1685  0.2050 -0.2682
 9176TIP3    H148943   4.353   3.187   4.798 -0.5042 -0.1882 -1.6371
 9176TIP3    H248944   4.349   3.338   4.790  0.5210 -0.0853 -0.4389
 9177TIP3   OH248945   6.395   3.854   5.114 -0.1699  0.2357 -0.3950
 9177TIP3    H148946   6.373   3.882   5.203 -3.6906 -1.9955 -0.4029
 9177TIP3    H248947   6.337   3.906   5.057  1.8872  1.4846 -1.4821
 9178TIP3   OH248948   3.928   3.096   2.288  0.1656  0.3581 -0.0615
 9178TIP3    H148949   3.939   3.087   2.383 -0.6830  2.8578  0.3546
 9178TIP3    H248950   4.006   3.055   2.251  0.6337 -0.4582  1.7072
 9179TIP3   OH248951   6.386   6.015   0.381  0.4019 -0.4249  0.3793
 9179TIP3    H148952   6.432   5.947   0.430 -0.5886 -1.2205  0.2520
 9179TIP3    H248953   6.367   5.974   0.296  1.5630  0.7210 -0.4567
 9180TIP3   OH248954   2.692   1.444   1.997  0.0485  0.1106 -0.7296
 9180TIP3    H148955   2.757   1.374   1.994 -0.5023 -0.3933 -1.3818
 9180TIP3    H248956   2.741   1.523   1.974  0.8909  0.1421  1.0132
 9181TIP3   OH248957   1.190   1.086  16.626  0.4201  0.3159 -0.3006
 9181TIP3    H148958   1.235   1.152  16.573  2.0841  0.4436  1.2122
 9181TIP3    H248959   1.255   1.058  16.690 -0.7975 -1.5726  0.1664
 9182TIP3   OH248960   1.398   5.945   1.777 -0.4388 -0.0666  0.4720
 9182TIP3    H148961   1.487   5.930   1.743 -0.3585  1.7882 -0.2409
 9182TIP3    H248962   1.343   5.945   1.698 -0.9142 -0.0693  0.8023
 9183TIP3   OH248963   1.243   3.023   4.571 -0.3187 -0.3577 -0.2740
 9183TIP3    H148964   1.338   3.018   4.557 -0.1600  0.3611  0.4846
 9183TIP3    H248965   1.232   2.998   4.662 -0.6392  1.5773  0.2562
 9184TIP3   OH248966   0.155   1.852  13.506  0.0479  0.0866  0.8419
 9184TIP3    H148967   0.232   1.905  13.524  0.2889  0.5969 -1.3598
 9184TIP3    H248968   0.090   1.914  13.471 -0.6584 -0.6383  0.8201
 9185TIP3   OH248969   3.681   4.843  11.065 -0.0056  0.4598  0.6061
 9185TIP3    H148970   3.610   4.789  11.030  0.0740 -0.3528  1.6587
 9185TIP3    H248971   3.670   4.927  11.022  0.1509 -0.5130 -1.4594
 9186TIP3   OH248972   0.719   3.536   3.914 -0.1991  0.0351 -0.2712
 9186TIP3    H148973   0.737   3.628   3.934 -1.1004  0.1435  0.0973
 9186TIP3    H248974   0.788   3.487   3.959 -0.5832  0.4512  0.7981
 9187TIP3   OH248975   4.379   3.121  16.028 -0.3562 -0.2724 -0.1489
 9187TIP3    H148976   4.345   3.069  15.955 -0.6230 -1.7032  0.9391
 9187TIP3    H248977   4.414   3.056  16.090 -0.7713  0.8260  1.3092
 9188TIP3   OH248978   6.191   3.850   3.387 -0.5292 -0.0287 -0.4832
 9188TIP3    H148979   6.244   3.922   3.420 -0.3621 -0.5006  0.3141
 9188TIP3    H248980   6.166   3.801   3.465  1.5774 -2.3681 -1.1204
 9189TIP3   OH248981   4.869   4.200   2.852 -0.1313 -0.3730  0.5013
 9189TIP3    H148982   4.928   4.221   2.780  0.7552  0.2303  1.3703
 9189TIP3    H248983   4.927   4.180   2.925 -0.9299  1.9230  1.8706
 9190TIP3   OH248984   1.964   0.640  15.809 -0.2787 -0.3326 -0.4938
 9190TIP3    H148985   1.921   0.725  15.820 -0.0335 -0.2591 -0.0636
 9190TIP3    H248986   2.002   0.644  15.721  0.9646  0.5835  0.0485
 9191TIP3   OH248987   1.734   5.765   1.119  0.2305 -0.0131 -0.2737
 9191TIP3    H148988   1.712   5.674   1.097 -1.2950 -0.0565  1.1993
 9191TIP3    H248989   1.775   5.800   1.039 -1.7408 -1.1579 -1.9037
 9192TIP3   OH248990   2.728   2.922  11.686  0.3582 -0.1276 -0.1746
 9192TIP3    H148991   2.710   2.852  11.624 -1.0352  0.6406 -0.6646
 9192TIP3    H248992   2.674   2.995  11.657 -2.3792 -0.4863  3.3666
 9193TIP3   OH248993   0.962   0.274   5.907 -0.5639  0.4838 -0.3781
 9193TIP3    H148994   0.966   0.183   5.937 -1.9604  0.3753 -0.4541
 9193TIP3    H248995   0.944   0.325   5.986 -0.4740  0.6107 -0.4404
 9194TIP3   OH248996   1.840   4.830   2.872 -0.0592 -0.2343  0.4358
 9194TIP3    H148997   1.802   4.872   2.796  1.7018 -1.5118 -1.2588
 9194TIP3    H248998   1.793   4.867   2.947 -0.3877  2.6701 -1.0882
 9195TIP3   OH248999   1.752   5.521  15.703  0.3583  0.3167  0.3899
 9195TIP3    H149000   1.664   5.487  15.686  0.9120 -0.3825 -1.2277
 9195TIP3    H249001   1.810   5.446  15.693  1.3625  1.2211 -0.8963
 9196TIP3   OH249002   3.104   1.277   1.847  0.1963 -0.9046 -0.4139
 9196TIP3    H149003   3.162   1.248   1.917 -0.9506 -2.5109 -0.0682
 9196TIP3    H249004   3.020   1.293   1.890 -0.1178 -0.3932 -1.1897
 9197TIP3   OH249005   4.513   5.335  14.744  0.1231 -0.2986 -0.0084
 9197TIP3    H149006   4.450   5.394  14.786  0.0327 -0.0451 -0.4977
 9197TIP3    H249007   4.578   5.318  14.812 -0.3634 -0.4090  0.4444
 9198TIP3   OH249008   3.737   6.367  16.825 -0.1705  0.3155  0.6362
 9198TIP3    H149009   3.775   6.434  16.769 -2.1323 -0.2524 -1.5201
 9198TIP3    H249010   3.789   6.288  16.808  0.4573  0.6053  1.1505
 9199TIP3   OH249011   1.814   5.892   2.686  0.0573 -0.0959 -0.6807
 9199TIP3    H149012   1.736   5.883   2.741  1.2093 -0.8434  0.9097
 9199TIP3    H249013   1.886   5.866   2.743  1.5034  0.7724 -2.0541
 9200TIP3   OH249014   1.336   3.797  12.799  0.1438 -0.1307  0.6845
 9200TIP3    H149015   1.308   3.752  12.719 -1.4490  2.6892 -0.4863
 9200TIP3    H249016   1.262   3.790  12.859  0.1935  0.2191  0.7920
 9201TIP3   OH249017   2.353   3.548   0.960 -0.5615 -0.0161 -0.2285
 9201TIP3    H149018   2.419   3.516   1.022 -1.7040  0.4086  1.2702
 9201TIP3    H249019   2.397   3.548   0.875  1.2790  0.0107  0.6833
 9202TIP3   OH249020   6.000   2.621   2.094 -0.6758 -0.1946  0.2544
 9202TIP3    H149021   6.092   2.602   2.112 -0.3564 -0.2554 -1.3381
 9202TIP3    H249022   5.981   2.575   2.012 -1.9747  0.2837  0.2590
 9203TIP3   OH249023   6.670   3.155   1.737 -0.4099 -0.3158  0.1432
 9203TIP3    H149024   6.703   3.067   1.718 -0.4627 -0.1890 -0.5677
 9203TIP3    H249025   6.664   3.158   1.833 -0.8761 -1.2544  0.1587
 9204TIP3   OH249026   0.998   5.536  15.611 -0.4107  0.1414  0.2790
 9204TIP3    H149027   0.979   5.621  15.651  0.1284  0.6818 -0.5792
 9204TIP3    H249028   0.941   5.533  15.534  0.6063  0.3672 -0.5010
 9205TIP3   OH249029   2.399   5.350   4.411 -0.0078 -0.2060  0.3220
 9205TIP3    H149030   2.397   5.425   4.351 -0.5380 -1.2472 -1.0360
 9205TIP3    H249031   2.485   5.355   4.453  0.8914 -0.0974 -1.4391
 9206TIP3   OH249032   3.710   5.095  10.918  0.1079 -0.3167  0.0165
 9206TIP3    H149033   3.755   5.088  10.834  0.9375  0.4781  0.3772
 9206TIP3    H249034   3.651   5.169  10.906  1.7573  1.1955  0.7736
 9207TIP3   OH249035   0.640   4.675  14.817 -0.2433  0.1769 -0.1388
 9207TIP3    H149036   0.549   4.685  14.791 -0.0848  2.5416 -0.0638
 9207TIP3    H249037   0.638   4.671  14.912 -0.2448  1.2596 -0.0777
 9208TIP3   OH249038   0.145   4.202  15.535  0.3877  0.8490 -0.0007
 9208TIP3    H149039   0.191   4.174  15.614  0.9627  0.0792 -0.5914
 9208TIP3    H249040   0.202   4.175  15.463 -0.1820  1.4339 -0.6894
 9209TIP3   OH249041   5.786   6.562  15.280 -0.3504 -0.0333  0.5982
 9209TIP3    H149042   5.730   6.640  15.287 -0.9677 -0.5067  1.0654
 9209TIP3    H249043   5.725   6.491  15.259  0.4825 -0.0007 -2.4486
 9210TIP3   OH249044   3.642   0.895   1.879  0.2562  0.1608 -0.1046
 9210TIP3    H149045   3.578   0.915   1.947  0.5903 -1.2847  0.6823
 9210TIP3    H249046   3.611   0.943   1.802 -1.1307  0.3954  0.5695
 9211TIP3   OH249047   1.376   6.528   5.518 -0.0425 -0.2587 -0.0193
 9211TIP3    H149048   1.407   6.439   5.535  0.6404 -0.1307 -0.5569
 9211TIP3    H249049   1.431   6.584   5.573 -0.7707 -0.1948  0.6598
 9212TIP3   OH249050   4.110   1.247   5.505  0.4750  0.4347  0.3492
 9212TIP3    H149051   4.103   1.152   5.511 -0.8718  0.5421  0.7431
 9212TIP3    H249052   4.118   1.276   5.596  3.2574  0.5870  0.1520
 9213TIP3   OH249053   3.003   4.889   5.922  0.1101 -0.1256  0.5416
 9213TIP3    H149054   2.990   4.979   5.952  2.1068  0.0461  1.0513
 9213TIP3    H249055   2.947   4.837   5.978 -0.0113  0.6730  1.1840
 9214TIP3   OH249056   2.309   6.705   6.207  0.1200  0.5370  0.2583
 9214TIP3    H149057   2.315   6.635   6.273  1.7715  0.1517 -0.2513
 9214TIP3    H249058   2.223   6.693   6.167  1.4037 -3.1839 -1.8712
 9215TIP3   OH249059   0.004   2.585   0.102  0.5635 -0.2558 -0.0908
 9215TIP3    H149060   0.088   2.540   0.114  0.3492 -0.7027 -0.2534
 9215TIP3    H249061  -0.038   2.539   0.030  0.3115  0.1730 -0.2247
 9216TIP3   OH249062   2.652   1.788   4.086 -0.6637 -0.2562 -0.1549
 9216TIP3    H149063   2.675   1.743   4.005 -1.0770 -0.2263 -0.2911
 9216TIP3    H249064   2.594   1.727   4.132  0.5635 -0.8137  0.7127
 9217TIP3   OH249065   5.124   2.087  11.342 -0.7967  0.3581  0.4144
 9217TIP3    H149066   5.166   2.083  11.256 -0.1754  1.9764  0.6037
 9217TIP3    H249067   5.073   2.169  11.341  0.7486  1.4344  2.2087
 9218TIP3   OH249068   6.748   6.661   4.025 -0.0183 -0.2764  0.2933
 9218TIP3    H149069   6.834   6.697   4.047  0.3876 -0.9342 -0.2015
 9218TIP3    H249070   6.738   6.586   4.083  0.0236 -0.5852 -0.0960
 9219TIP3   OH249071   4.456   0.834   4.686 -0.2206 -0.5995 -0.2949
 9219TIP3    H149072   4.436   0.748   4.724  0.1690 -1.1712 -1.3374
 9219TIP3    H249073   4.512   0.814   4.611  0.9955  0.6807  0.2403
 9220TIP3   OH249074   3.995   1.711  12.952  0.0028 -0.1858 -0.5639
 9220TIP3    H149075   4.048   1.764  13.012  1.4294 -2.2238  0.0827
 9220TIP3    H249076   3.983   1.767  12.875  4.7847 -0.1794 -1.6043
 9221TIP3   OH249077   5.896   4.632   2.323 -0.3956 -0.1140  0.8707
 9221TIP3    H149078   5.817   4.600   2.366 -0.6610  0.7560  1.0586
 9221TIP3    H249079   5.939   4.686   2.390  0.1012 -0.1846  0.6126
 9222TIP3   OH249080   0.218   3.312  15.998  0.0764 -0.1828  0.2549
 9222TIP3    H149081   0.265   3.290  16.078 -0.6273  1.0993  1.0672
 9222TIP3    H249082   0.286   3.341  15.937  0.6920 -1.8491  0.1163
 9223TIP3   OH249083   4.035   1.641   1.409 -0.3909 -0.5426 -0.1402
 9223TIP3    H149084   3.952   1.672   1.445 -1.3248 -1.3822 -1.5097
 9223TIP3    H249085   4.031   1.663   1.316  1.6205  0.8450  0.0151
 9224TIP3   OH249086   4.823   3.307   3.938  0.4047  0.2540 -0.0177
 9224TIP3    H149087   4.839   3.241   4.006  1.4101 -1.0501 -1.4348
 9224TIP3    H249088   4.733   3.335   3.952 -0.2697 -1.8644  0.3235
 9225TIP3   OH249089   4.886   5.322   2.402  0.2096  0.3689  0.3881
 9225TIP3    H149090   4.965   5.270   2.419  0.2419  0.3408  0.1565
 9225TIP3    H249091   4.827   5.300   2.475  0.7136  0.9919  0.9979
 9226TIP3   OH249092   6.586   0.985  15.389 -0.6470 -0.1238 -0.5603
 9226TIP3    H149093   6.638   0.956  15.314  0.1073 -0.5626  0.1108
 9226TIP3    H249094   6.539   1.062  15.358  0.2029  0.1197 -1.2775
 9227TIP3   OH249095   3.108   6.688   1.457  0.5623 -0.2746  0.3999
 9227TIP3    H149096   3.137   6.771   1.495  0.7471 -0.3345  0.3944
 9227TIP3    H249097   3.063   6.643   1.528  1.0123 -0.4386  0.5879
 9228TIP3   OH249098   2.983   6.567   0.460 -0.9227  0.1878 -0.7972
 9228TIP3    H149099   2.915   6.551   0.525  2.7399 -0.8749  3.2357
 9228TIP3    H249100   3.027   6.646   0.490  1.2429 -0.6311 -1.5732
 9229TIP3   OH249101   4.269   1.686   5.975  0.2604  0.1306 -0.0721
 9229TIP3    H149102   4.302   1.614   6.028 -1.5198 -1.8297 -1.4399
 9229TIP3    H249103   4.259   1.649   5.887  0.9447  2.5870 -1.2995
 9230TIP3   OH249104   3.936   3.753   5.568  0.1995 -0.1765  0.2419
 9230TIP3    H149105   3.851   3.779   5.532 -0.4070 -1.6094  0.5992
 9230TIP3    H249106   3.918   3.675   5.620  1.8911 -1.0776 -0.4513
 9231TIP3   OH249107   4.071   0.741  11.700  0.1274 -0.2857 -0.2503
 9231TIP3    H149108   3.991   0.787  11.725  1.7345  1.2162  2.8140
 9231TIP3    H249109   4.104   0.789  11.624 -0.7310  0.5254 -0.1245
 9232TIP3   OH249110   4.232   2.678  12.452  0.9973  0.2649 -0.8609
 9232TIP3    H149111   4.214   2.724  12.370  1.0273  1.0369 -0.4408
 9232TIP3    H249112   4.155   2.694  12.506 -0.0023 -2.0249 -1.4793
 9233TIP3   OH249113   2.914   1.137   3.486 -0.8764  0.3094 -0.1067
 9233TIP3    H149114   2.947   1.049   3.503 -1.2971 -0.1627 -1.5829
 9233TIP3    H249115   2.926   1.149   3.392 -3.2766  0.8106 -0.3971
 9234TIP3   OH249116   3.300   5.345   0.508 -0.3734 -0.0557  0.2257
 9234TIP3    H149117   3.364   5.299   0.453 -1.4087  0.3001 -1.3566
 9234TIP3    H249118   3.235   5.279   0.530  0.7692 -0.5619  2.3212
 9235TIP3   OH249119   0.455   1.853   3.269  0.1998 -0.1590  0.4299
 9235TIP3    H149120   0.437   1.773   3.318  1.6881 -0.2377  0.8971
 9235TIP3    H249121   0.373   1.903   3.274 -0.5377 -1.3439  0.6911
 9236TIP3   OH249122   1.692   2.263   4.077  0.0142  0.1575  0.7206
 9236TIP3    H149123   1.683   2.294   3.986 -0.3256 -1.0912  0.2985
 9236TIP3    H249124   1.668   2.338   4.130 -2.4556  0.1875 -0.2741
 9237TIP3   OH249125   6.452   6.331   1.904 -0.2150 -0.1184  0.0539
 9237TIP3    H149126   6.364   6.364   1.921 -0.8887 -0.8345 -1.7711
 9237TIP3    H249127   6.467   6.350   1.811  1.0168 -1.1733  0.0098
 9238TIP3   OH249128   6.019   1.332  17.311  0.1275 -0.2320 -0.5487
 9238TIP3    H149129   6.020   1.240  17.336  0.2885  0.3124  1.6904
 9238TIP3    H249130   6.087   1.339  17.244  2.0798 -1.3042  1.1910
 9239TIP3   OH249131   0.137   2.341   2.305  0.6463 -0.4716 -0.1324
 9239TIP3    H149132   0.224   2.324   2.340  0.7912 -1.3566 -0.8797
 9239TIP3    H249133   0.085   2.265   2.330  0.6687 -0.9663 -1.5136
 9240TIP3   OH249134   2.148   3.313  13.575  0.8752  0.0169  0.0840
 9240TIP3    H149135   2.117   3.377  13.511  0.5818  0.1738  0.3785
 9240TIP3    H249136   2.177   3.238  13.523 -0.2231 -0.2316 -0.1972
 9241TIP3   OH249137   3.328   3.602   0.877 -0.1864  0.0125  0.1493
 9241TIP3    H149138   3.310   3.620   0.785 -0.8949 -0.7990  0.1213
 9241TIP3    H249139   3.408   3.652   0.895 -0.3645  0.6612 -0.7351
 9242TIP3   OH249140   2.933   2.973   3.728 -0.2789 -0.5298 -0.0958
 9242TIP3    H149141   2.941   2.928   3.812  1.9419 -0.6869 -0.3489
 9242TIP3    H249142   2.947   2.904   3.663  0.5012  0.0472 -0.5407
 9243TIP3   OH249143   3.787   3.643   6.484 -0.3618  0.0141  0.2726
 9243TIP3    H149144   3.807   3.562   6.437 -1.2596  0.9098 -1.7701
 9243TIP3    H249145   3.870   3.667   6.525 -0.0310 -1.8090  0.7687
 9244TIP3   OH249146   6.570   1.099   1.646  0.1480  0.4377 -0.4542
 9244TIP3    H149147   6.632   1.160   1.609 -0.4088  1.2059 -0.1490
 9244TIP3    H249148   6.549   1.039   1.574  1.4658 -0.0264 -0.4626
 9245TIP3   OH249149   6.293   5.945  11.868 -0.3959  0.5151 -0.0132
 9245TIP3    H149150   6.305   5.851  11.855 -0.5574  0.2672  1.4276
 9245TIP3    H249151   6.255   5.952  11.955 -2.1725  1.8152 -0.8313
 9246TIP3   OH249152   6.056   0.293  14.026  0.2504  0.5835  0.0385
 9246TIP3    H149153   5.986   0.228  14.035  0.9114 -0.0172  0.9304
 9246TIP3    H249154   6.026   0.350  13.955 -0.8410 -0.0495 -0.0317
 9247TIP3   OH249155   3.040   5.466  16.965 -0.2890  0.2202  0.1606
 9247TIP3    H149156   2.970   5.515  17.008  0.0808 -0.2483  1.3334
 9247TIP3    H249157   3.038   5.496  16.875  1.0967  3.7930  1.1494
 9248TIP3   OH249158   4.139   3.569   4.298 -0.2287  0.5879  0.5227
 9248TIP3    H149159   4.053   3.568   4.256 -0.6014 -0.0549  1.2630
 9248TIP3    H249160   4.196   3.616   4.237 -0.2868 -1.9139 -1.6276
 9249TIP3   OH249161   1.260   2.094   5.411 -0.1463  0.5503  0.1980
 9249TIP3    H149162   1.205   2.124   5.483 -0.5136  0.3414  0.0064
 9249TIP3    H249163   1.287   2.175   5.366 -5.1531  0.7202 -3.3829
 9250TIP3   OH249164   4.418   0.075  12.232  0.4166  0.1702  0.0377
 9250TIP3    H149165   4.459   0.107  12.152  1.8661 -1.1459  0.2150
 9250TIP3    H249166   4.490   0.063  12.293 -0.7611  2.1678  1.9625
 9251TIP3   OH249167   3.406   1.723  17.239 -0.2013  0.3420  0.0921
 9251TIP3    H149168   3.488   1.686  17.207 -0.4915 -1.5303  1.3282
 9251TIP3    H249169   3.431   1.804  17.283  0.5460  1.4045 -2.1330
 9252TIP3   OH249170   1.904   6.580  10.914  0.1895  0.2795  0.5215
 9252TIP3    H149171   1.895   6.628  10.832 -0.4139 -1.0381 -0.2099
 9252TIP3    H249172   1.832   6.612  10.969 -1.0064 -0.6611 -0.4315
 9253TIP3   OH249173   3.467   5.834   2.123  0.3428 -0.1625  0.4876
 9253TIP3    H149174   3.423   5.897   2.065  0.7792 -0.4875 -0.2041
 9253TIP3    H249175   3.533   5.792   2.068 -0.6149 -1.9824  0.6496
 9254TIP3   OH249176   0.377   1.921   5.793  0.2757  0.1950  0.3448
 9254TIP3    H149177   0.406   2.001   5.750 -0.0816 -0.0027 -0.2940
 9254TIP3    H249178   0.398   1.933   5.885  1.7442  0.3369  0.0129
 9255TIP3   OH249179   4.674   2.559   4.148  0.1367 -0.4211 -0.3023
 9255TIP3    H149180   4.717   2.508   4.216  0.1387  1.9472  1.6201
 9255TIP3    H249181   4.744   2.578   4.085  0.8380 -0.3952  0.4573
 9256TIP3   OH249182   2.134   3.466  15.805  0.4805  0.4627  0.3274
 9256TIP3    H149183   2.196   3.537  15.825  0.5792  0.1805  1.0612
 9256TIP3    H249184   2.175   3.388  15.842  0.5615 -0.0618 -0.8308
 9257TIP3   OH249185   4.223   1.975  14.639 -0.3105 -0.0417 -0.5271
 9257TIP3    H149186   4.138   1.956  14.678 -0.6811  1.5105 -0.4912
 9257TIP3    H249187   4.207   1.974  14.544  0.0645 -1.5449 -0.5907
 9258TIP3   OH249188   4.708   3.861  14.816 -0.3640 -0.7163  0.1273
 9258TIP3    H149189   4.714   3.953  14.839 -1.1621 -0.5119 -0.4416
 9258TIP3    H249190   4.716   3.815  14.899  1.1390 -0.1979  0.3015
 9259TIP3   OH249191   1.460   6.305   4.743  0.2350 -0.3312 -0.1853
 9259TIP3    H149192   1.390   6.313   4.807  1.1063  1.2373  0.6390
 9259TIP3    H249193   1.474   6.211   4.735  0.0016 -0.5901  1.8595
 9260TIP3   OH249194   2.829   2.119   2.119 -0.6320  0.5918 -0.4833
 9260TIP3    H149195   2.779   2.037   2.118  1.7361 -0.9692 -0.3127
 9260TIP3    H249196   2.863   2.124   2.208  1.0458  0.5456 -1.0872
 9261TIP3   OH249197   3.123   1.861   3.823 -0.2340 -0.5359  0.1497
 9261TIP3    H149198   3.038   1.894   3.853  0.6815  0.6883  1.6308
 9261TIP3    H249199   3.135   1.900   3.737 -0.4158  0.8084  0.7012
 9262TIP3   OH249200   2.168   5.975  12.759 -0.0636 -0.6088 -0.1107
 9262TIP3    H149201   2.105   5.904  12.747 -1.0981  0.0831  0.9768
 9262TIP3    H249202   2.118   6.055  12.740  0.5211 -0.0617  0.5918
 9263TIP3   OH249203   3.316   4.860   5.445 -0.3306 -0.3538 -0.3377
 9263TIP3    H149204   3.410   4.866   5.428 -0.3937  1.4963 -0.1535
 9263TIP3    H249205   3.277   4.925   5.387 -1.3232  0.2238  0.9461
 9264TIP3   OH249206   6.322   4.586   1.079  0.1105  0.1942  0.0440
 9264TIP3    H149207   6.320   4.655   1.014  0.0185  0.6418  0.5117
 9264TIP3    H249208   6.257   4.522   1.049 -0.2939  0.6364 -0.0381
 9265TIP3   OH249209   0.786   1.751  15.174  0.1100 -0.4298 -0.5042
 9265TIP3    H149210   0.723   1.683  15.150  0.6388 -1.1100 -0.0222
 9265TIP3    H249211   0.823   1.721  15.257  1.4775 -0.3480 -1.0537
 9266TIP3   OH249212   2.015   4.829  11.487 -0.2075  0.2143  0.1326
 9266TIP3    H149213   1.954   4.757  11.504  0.5964 -0.8306 -1.1761
 9266TIP3    H249214   2.065   4.799  11.411 -0.1908  2.3804 -0.7600
 9267TIP3   OH249215   4.495   0.552  13.196 -0.2082  0.6223  0.0489
 9267TIP3    H149216   4.459   0.466  13.216 -0.8682  1.3213  2.2203
 9267TIP3    H249217   4.587   0.545  13.221 -0.5760  0.9007  1.6018
 9268TIP3   OH249218   1.029   0.879  12.110 -0.3159  0.1990 -0.0200
 9268TIP3    H149219   1.019   0.945  12.042 -1.4084  0.9451  0.8369
 9268TIP3    H249220   0.967   0.811  12.086  0.1987 -0.1397 -0.4320
 9269TIP3   OH249221   5.638   4.572  15.803  0.0152  0.5347  0.0187
 9269TIP3    H149222   5.581   4.635  15.759 -1.1743 -1.8070 -2.1063
 9269TIP3    H249223   5.577   4.510  15.844  0.9282 -1.6727 -1.7690
 9270TIP3   OH249224   3.596   4.728   2.642  0.0359 -0.4540  0.6279
 9270TIP3    H149225   3.652   4.672   2.588  0.0115 -0.1685  0.3084
 9270TIP3    H249226   3.655   4.762   2.710  0.5212  0.7236 -0.3407
 9271TIP3   OH249227   4.862   0.407   3.753 -0.0580 -0.4106  0.2155
 9271TIP3    H149228   4.775   0.367   3.749 -0.8855  1.1828  1.2839
 9271TIP3    H249229   4.893   0.387   3.842  0.7280 -1.0432 -0.1879
 9272TIP3   OH249230   4.210   5.671  15.861  0.1137 -0.4945 -0.2426
 9272TIP3    H149231   4.117   5.652  15.876 -0.1582  0.9809  0.0929
 9272TIP3    H249232   4.249   5.585  15.843 -0.8173 -1.5347  2.2161
 9273TIP3   OH249233   6.069   3.136  14.082 -0.8208  0.1196 -0.6044
 9273TIP3    H149234   6.109   3.167  14.163  1.4399 -0.9399 -1.2007
 9273TIP3    H249235   6.043   3.046  14.102 -0.7095  0.0218 -0.8945
 9274TIP3   OH249236   6.354   6.256   2.500  0.1702 -0.2739  0.1293
 9274TIP3    H149237   6.428   6.225   2.551  1.1066 -1.2767 -1.7315
 9274TIP3    H249238   6.366   6.217   2.414 -0.7786  2.1079 -1.1989
 9275TIP3   OH249239   0.916   1.245  16.474 -0.2305  0.1312 -0.2456
 9275TIP3    H149240   0.879   1.265  16.560  1.8720  1.7039  0.3773
 9275TIP3    H249241   0.901   1.151  16.463 -1.7484  0.1536  1.2183
 9276TIP3   OH249242   3.709   0.086  10.862  0.1378 -0.4096  0.0286
 9276TIP3    H149243   3.719   0.169  10.815 -0.1824 -0.6268 -0.4288
 9276TIP3    H249244   3.706   0.111  10.955  2.1883 -0.0906  0.0521
 9277TIP3   OH249245   2.820   6.183  11.715  0.7535 -0.2506 -0.1632
 9277TIP3    H149246   2.773   6.102  11.737 -0.6391  0.6058  0.1552
 9277TIP3    H249247   2.765   6.225  11.648  0.2585  1.4638  1.2258
 9278TIP3   OH249248   4.920   3.310   3.567  0.0347  0.1926 -0.0436
 9278TIP3    H149249   4.968   3.352   3.497  2.1731 -1.8559  0.0742
 9278TIP3    H249250   4.934   3.366   3.643  2.6653 -0.5153  0.0729
 9279TIP3   OH249251   4.846   2.447  16.423 -0.1473  0.5571  0.2628
 9279TIP3    H149252   4.860   2.541  16.408 -0.7051  1.0317  2.3417
 9279TIP3    H249253   4.883   2.431  16.510 -2.5104 -0.5009  1.1703
 9280TIP3   OH249254   4.134   0.635   1.111 -0.2224  0.0080 -0.0666
 9280TIP3    H149255   4.202   0.702   1.114 -0.8192  0.7929 -2.1869
 9280TIP3    H249256   4.123   0.607   1.202  1.4165  1.3725  0.5960
 9281TIP3   OH249257   3.574   0.975   1.117 -0.5830 -0.2814  0.4540
 9281TIP3    H149258   3.591   1.067   1.135  1.6427 -0.7242  0.9207
 9281TIP3    H249259   3.595   0.965   1.024 -1.3721 -0.2321  0.2599
 9282TIP3   OH249260   4.432   0.930   2.202  0.4691  0.3068  0.1200
 9282TIP3    H149261   4.408   1.021   2.214 -1.4811 -0.0051 -1.0011
 9282TIP3    H249262   4.353   0.881   2.225  0.6432 -0.9273 -1.6775
 9283TIP3   OH249263   0.529   5.276   0.898  0.0747  0.1401  0.0667
 9283TIP3    H149264   0.475   5.260   0.975 -0.7594  0.1735 -0.5058
 9283TIP3    H249265   0.487   5.350   0.854  2.0934  1.9529  1.0157
 9284TIP3   OH249266   0.013   2.853  12.051  0.0173  0.2270  0.1146
 9284TIP3    H149267   0.102   2.875  12.022  0.2879 -0.5692  0.3201
 9284TIP3    H249268   0.025   2.780  12.112 -0.5860  1.5593  1.9086
 9285TIP3   OH249269   6.732   1.176   6.411 -0.0162 -0.3413  0.2375
 9285TIP3    H149270   6.660   1.206   6.467  0.1860  1.2231 -0.2778
 9285TIP3    H249271   6.792   1.133   6.471  0.2699  1.4370  1.2919
 9286TIP3   OH249272   5.640   5.304  15.956  0.0483  0.1262 -0.6839
 9286TIP3    H149273   5.558   5.354  15.967  0.7489  1.0766  0.4328
 9286TIP3    H249274   5.707   5.359  15.996  1.1250 -0.9919 -0.8964
 9287TIP3   OH249275   1.287   4.536  12.257  0.0292  0.1429 -0.6586
 9287TIP3    H149276   1.244   4.453  12.238 -1.0261  0.6281 -0.4507
 9287TIP3    H249277   1.237   4.573  12.330  1.3196  0.3434  0.1631
 9288TIP3   OH249278   1.144   2.098  14.185 -0.8735  0.0643  0.4141
 9288TIP3    H149279   1.084   2.170  14.163  1.2516  1.9187  0.3018
 9288TIP3    H249280   1.204   2.136  14.249  0.6370 -1.4474 -0.0305
 9289TIP3   OH249281   3.765   3.475  12.110  0.3732  0.6568  0.2496
 9289TIP3    H149282   3.715   3.414  12.056 -0.1554  0.8265  0.5437
 9289TIP3    H249283   3.775   3.552  12.054 -0.0654  0.7844  0.3399
 9290TIP3   OH249284   5.387   5.774  12.673  0.2084  0.5796 -0.0473
 9290TIP3    H149285   5.413   5.802  12.585 -1.8640  0.1261 -0.8536
 9290TIP3    H249286   5.396   5.679  12.672  0.3957  0.5887  0.3383
 9291TIP3   OH249287   5.773   0.892   4.831 -0.3389  0.3358 -0.6954
 9291TIP3    H149288   5.813   0.950   4.896 -2.2654  0.8404  0.1321
 9291TIP3    H249289   5.782   0.939   4.748 -1.4774  1.6666 -0.1050
 9292TIP3   OH249290   6.250   3.981  15.591  0.3159 -0.3808  0.5113
 9292TIP3    H149291   6.183   3.980  15.523  0.1750  1.9287  0.5169
 9292TIP3    H249292   6.224   3.912  15.652 -1.0347 -0.7376 -0.4166
 9293TIP3   OH249293   4.411   4.316  11.405  0.4531  0.2260 -0.0643
 9293TIP3    H149294   4.373   4.375  11.471 -1.1537  0.3197 -1.0132
 9293TIP3    H249295   4.356   4.329  11.328  1.5769 -0.7481 -1.0565
 9294TIP3   OH249296   6.243   1.982  14.291 -0.1819 -0.8715  0.2027
 9294TIP3    H149297   6.294   1.921  14.344 -0.6698 -0.3486  1.3139
 9294TIP3    H249298   6.162   1.935  14.270 -1.3108 -0.1310  2.4616
 9295TIP3   OH249299   0.483   0.734   5.184 -0.1430  0.1947 -0.1538
 9295TIP3    H149300   0.416   0.675   5.217  1.6271 -0.8632  1.7412
 9295TIP3    H249301   0.467   0.817   5.229 -1.2495  0.5241 -1.1095
 9296TIP3   OH249302   5.461   3.553   0.226  0.3832 -0.2720 -0.2211
 9296TIP3    H149303   5.413   3.517   0.152 -0.9418  0.5290  0.2154
 9296TIP3    H249304   5.549   3.571   0.191 -0.1753 -0.0434 -1.5549
 9297TIP3   OH249305   6.106   4.034  10.938 -0.0368  0.5956  0.2981
 9297TIP3    H149306   6.119   3.962  10.875  0.4706  1.1512 -0.2438
 9297TIP3    H249307   6.011   4.043  10.944 -0.1146 -0.3037  0.5859
 9298TIP3   OH249308   2.505   3.370   4.739 -0.0707 -0.1332  0.2442
 9298TIP3    H149309   2.462   3.328   4.665 -0.5861 -2.7007  1.8463
 9298TIP3    H249310   2.598   3.346   4.729 -0.1017 -0.2799  0.3079
 9299TIP3   OH249311   6.461   5.554  14.362 -0.2217 -0.2135 -0.1533
 9299TIP3    H149312   6.551   5.523  14.368  0.7428  2.5706  3.4124
 9299TIP3    H249313   6.467   5.638  14.317 -0.7612  0.6511  1.3246
 9300TIP3   OH249314   0.221   0.323  13.867 -0.0983 -0.0721 -0.6243
 9300TIP3    H149315   0.139   0.279  13.887 -0.0378  0.2569  0.4167
 9300TIP3    H249316   0.255   0.350  13.952  0.0034  1.7137 -1.1845
 9301TIP3   OH249317   4.934   2.274   2.730 -0.1078 -0.4463  0.3314
 9301TIP3    H149318   4.867   2.205   2.731 -0.4654 -0.1545 -1.0712
 9301TIP3    H249319   4.926   2.313   2.643  1.3141  0.1747  0.4594
 9302TIP3   OH249320   6.007   2.412  16.491 -0.2783  0.4135 -0.0572
 9302TIP3    H149321   5.953   2.416  16.412 -2.0346  0.8862  1.1059
 9302TIP3    H249322   6.080   2.471  16.473 -0.6152  0.4729 -1.3394
 9303TIP3   OH249323   2.795   0.169  14.929  0.3521  0.6526 -0.2786
 9303TIP3    H149324   2.840   0.087  14.951  1.5358  1.2008 -0.5439
 9303TIP3    H249325   2.852   0.211  14.865  0.6938  2.4970  1.1340
 9304TIP3   OH249326   1.923   5.241  11.522 -0.4499  0.4021  0.2546
 9304TIP3    H149327   1.880   5.320  11.553 -1.4872  1.3026 -3.0870
 9304TIP3    H249328   1.870   5.212  11.447  1.6362 -1.6767 -0.5469
 9305TIP3   OH249329   4.279   3.879   0.960 -0.3793 -0.3502  0.6066
 9305TIP3    H149330   4.206   3.907   0.905 -1.1291 -2.0811  0.6474
 9305TIP3    H249331   4.273   3.935   1.037  0.3693  1.7619 -0.7642
 9306TIP3   OH249332   0.531   2.989  12.170 -0.4376  0.3058 -0.1686
 9306TIP3    H149333   0.512   2.897  12.187 -2.0211  0.5691 -0.4235
 9306TIP3    H249334   0.553   3.026  12.256  1.3045 -0.5088 -0.2085
 9307TIP3   OH249335   5.381   0.583   1.485  0.1307  0.0831 -0.0224
 9307TIP3    H149336   5.383   0.671   1.448 -1.5572  0.0770 -0.1931
 9307TIP3    H249337   5.472   0.566   1.510  0.4325  1.9916  0.3400
 9308TIP3   OH249338   6.653   2.055   4.702  0.2968 -0.4683  0.2444
 9308TIP3    H149339   6.648   1.964   4.673 -0.2939  0.1361 -1.7272
 9308TIP3    H249340   6.703   2.099   4.634 -1.3197  1.0945 -0.0012
 9309TIP3   OH249341   5.982   5.491  14.960 -0.1329 -0.2885  0.3237
 9309TIP3    H149342   6.034   5.414  14.940  0.4149  0.0626  0.3840
 9309TIP3    H249343   5.930   5.507  14.881  2.0681  1.1348 -0.9311
 9310TIP3   OH249344   4.867   4.752  17.048 -0.9453 -0.6910 -0.5139
 9310TIP3    H149345   4.810   4.744  17.125 -0.5384  0.3787 -0.0763
 9310TIP3    H249346   4.956   4.751  17.084 -0.7656  0.4900 -0.8868
 9311TIP3   OH249347   4.354   4.124  15.606  0.3760  0.0607  0.1454
 9311TIP3    H149348   4.380   4.041  15.566 -1.1642 -0.1791 -0.4228
 9311TIP3    H249349   4.318   4.100  15.692  1.4548  0.3267  0.6854
 9312TIP3   OH249350   2.157   5.916  10.361 -0.3983  0.0498 -0.3911
 9312TIP3    H149351   2.233   5.973  10.370 -0.2084  0.0908 -1.9898
 9312TIP3    H249352   2.094   5.950  10.424  1.2734 -0.6835  1.8065
 9313TIP3   OH249353   4.313   5.336  13.053  0.3078  0.1783 -0.1348
 9313TIP3    H149354   4.394   5.322  13.004  1.2980  0.5405  1.3304
 9313TIP3    H249355   4.311   5.430  13.071  0.6985 -0.1265  1.6863
 9314TIP3   OH249356   1.409   0.005  11.450  0.1542 -0.4601  0.1671
 9314TIP3    H149357   1.458   0.039  11.374  0.6011 -0.9355  0.2360
 9314TIP3    H249358   1.335  -0.041  11.412  0.7286 -1.2553 -0.0188
 9315TIP3   OH249359   1.391   3.977  13.410  0.6369 -0.3388 -0.2204
 9315TIP3    H149360   1.465   3.944  13.359  1.3276 -1.9386  1.6972
 9315TIP3    H249361   1.317   3.972  13.350  1.6543 -0.7620 -1.5040
 9316TIP3   OH249362   1.662   2.622   1.222 -0.4234  0.2596 -0.6476
 9316TIP3    H149363   1.708   2.670   1.153  0.1673 -0.9716 -1.1428
 9316TIP3    H249364   1.653   2.533   1.187 -1.6068  0.0345  0.1844
 9317TIP3   OH249365   1.413   2.744   1.719  0.5713  0.0403 -0.0931
 9317TIP3    H149366   1.372   2.667   1.680  2.3312 -1.8972  1.6094
 9317TIP3    H249367   1.401   2.814   1.654 -1.3485 -1.5734 -1.5746
 9318TIP3   OH249368   6.318   4.163  17.369  0.2934 -0.3686 -0.0466
 9318TIP3    H149369   6.255   4.235  17.364 -0.4850 -0.9001  1.6109
 9318TIP3    H249370   6.374   4.184  17.444  2.2172  0.1345 -1.5226
 9319TIP3   OH249371   3.251   1.468  11.616  0.3151 -0.0461  0.2682
 9319TIP3    H149372   3.162   1.504  11.613 -0.1484 -1.1926 -1.1683
 9319TIP3    H249373   3.307   1.540  11.587 -0.3469  0.2114 -0.4238
 9320TIP3   OH249374   2.579   3.419   2.001  0.0360 -0.2477  0.8179
 9320TIP3    H149375   2.671   3.394   1.989  0.4625  1.2102  0.7572
 9320TIP3    H249376   2.542   3.416   1.913  0.2781  0.0108  0.7033
 9321TIP3   OH249377   5.476   3.037  16.634 -0.3157 -0.3985 -0.6914
 9321TIP3    H149378   5.520   3.102  16.578  2.5778 -1.4063  0.2413
 9321TIP3    H249379   5.456   2.964  16.575  3.5776 -1.8659 -0.5008
 9322TIP3   OH249380   2.465   0.078   6.487 -0.1026 -0.1555 -0.0787
 9322TIP3    H149381   2.372   0.057   6.481 -0.1162 -0.1451  0.0778
 9322TIP3    H249382   2.467   0.166   6.526 -0.0334 -0.0663 -0.2826
 9323TIP3   OH249383   4.902   1.995   3.921  0.1893  0.3869 -0.0814
 9323TIP3    H149384   4.893   1.923   3.983 -1.4732  0.7307  0.1391
 9323TIP3    H249385   4.869   1.960   3.838  1.1870  0.3214 -0.4594
 9324TIP3   OH249386   2.389   0.290  13.770  0.2235 -0.0161 -0.1444
 9324TIP3    H149387   2.299   0.323  13.766  0.2573  0.0267 -0.6861
 9324TIP3    H249388   2.399   0.240  13.689  0.6521 -0.1115 -0.0332
 9325TIP3   OH249389   2.815   1.374  15.105  0.5249  0.0463  0.6032
 9325TIP3    H149390   2.754   1.447  15.099  1.9750  1.3707  1.1824
 9325TIP3    H249391   2.777   1.315  15.169 -0.9591 -0.0133 -0.2986
 9326TIP3   OH249392   0.686   2.187   4.504 -0.1145  0.3965 -0.2331
 9326TIP3    H149393   0.598   2.159   4.527 -0.4781  0.8870 -0.9549
 9326TIP3    H249394   0.732   2.195   4.587 -1.6467  3.0719  0.4888
 9327TIP3   OH249395   2.861   1.348  13.068 -0.3193 -0.6293 -0.4066
 9327TIP3    H149396   2.797   1.306  13.010 -2.0653  0.2624  0.7864
 9327TIP3    H249397   2.818   1.429  13.096  0.6915 -0.7612  1.6752
 9328TIP3   OH249398   4.881   1.559   5.516 -0.1473 -0.0345  0.1873
 9328TIP3    H149399   4.901   1.632   5.574  0.5482 -0.3961  0.4255
 9328TIP3    H249400   4.886   1.596   5.428 -1.2632  0.5293  0.3446
 9329TIP3   OH249401   1.604   5.636   3.043 -0.0527  0.4831  0.1458
 9329TIP3    H149402   1.520   5.609   3.082 -0.6096  0.6233 -0.9222
 9329TIP3    H249403   1.670   5.590   3.094 -0.8232 -0.2583  0.4968
 9330TIP3   OH249404   1.585   1.176   3.384 -0.0211 -0.2680 -0.3216
 9330TIP3    H149405   1.596   1.137   3.471  0.7338 -1.2084 -0.8213
 9330TIP3    H249406   1.546   1.107   3.331  1.4961 -0.4321 -1.2712
 9331TIP3   OH249407   5.263   4.576   4.627 -0.2604 -0.3568  0.6015
 9331TIP3    H149408   5.222   4.608   4.708 -0.1577  0.2481  0.4238
 9331TIP3    H249409   5.348   4.542   4.655 -0.1568  0.0018  0.7282
 9332TIP3   OH249410   1.465   0.802  12.318  0.5215  0.5737  0.5444
 9332TIP3    H149411   1.529   0.868  12.345  1.0787 -0.6673  2.5656
 9332TIP3    H249412   1.382   0.850  12.310  0.8014  1.4658  2.4395
 9333TIP3   OH249413   2.425   5.506   0.170  0.2481 -0.1520  0.2164
 9333TIP3    H149414   2.427   5.552   0.254 -1.1935  1.4312 -0.5593
 9333TIP3    H249415   2.462   5.568   0.107  0.8308 -1.1135 -0.4245
 9334TIP3   OH249416   5.074   4.076  11.401  0.0958  0.0407 -0.5158
 9334TIP3    H149417   5.089   4.046  11.491  1.5990  1.6807 -0.1636
 9334TIP3    H249418   4.984   4.110  11.402  0.7333  1.8894  0.9887
 9335TIP3   OH249419   3.132   2.309   4.484 -0.6907 -0.3462 -0.1177
 9335TIP3    H149420   3.103   2.265   4.404  1.1700 -1.5300 -0.1924
 9335TIP3    H249421   3.190   2.246   4.526 -2.6021 -0.3200  2.8833
 9336TIP3   OH249422   0.040   6.104   4.361 -0.1514  0.0864 -0.4050
 9336TIP3    H149423   0.105   6.058   4.307  0.6523 -1.3699  1.6855
 9336TIP3    H249424   0.071   6.093   4.451 -1.7508  1.9151  0.4382
 9337TIP3   OH249425   4.000   5.384  12.495  0.3962  0.7609  0.2657
 9337TIP3    H149426   4.052   5.335  12.432 -0.7163 -0.6670  0.4086
 9337TIP3    H249427   4.064   5.438  12.542  1.6422 -0.3863 -0.0492
 9338TIP3   OH249428   2.352   5.341  15.783 -0.0253  0.2005  0.5603
 9338TIP3    H149429   2.415   5.310  15.848 -0.8112 -1.2179  0.6828
 9338TIP3    H249430   2.404   5.398  15.725  0.8204  0.9949  2.0337
 9339TIP3   OH249431   1.275   1.236   4.328 -0.3210 -0.0509 -0.1938
 9339TIP3    H149432   1.344   1.276   4.274 -1.1388  2.2127  0.3180
 9339TIP3    H249433   1.290   1.271   4.416 -1.1047 -0.8791  0.2813
 9340TIP3   OH249434   2.156   2.005  14.777 -0.5800 -0.2167 -0.7010
 9340TIP3    H149435   2.173   2.020  14.870  0.0417 -1.0375 -0.6680
 9340TIP3    H249436   2.063   1.985  14.772 -0.8781  1.0311 -0.4208
 9341TIP3   OH249437   0.017   1.418  11.391 -0.1031 -0.2815 -0.0864
 9341TIP3    H149438   0.067   1.344  11.357  0.2353 -0.3738  0.5980
 9341TIP3    H249439   0.065   1.446  11.468 -1.1230 -0.3908  0.6061
 9342TIP3   OH249440   0.714   2.296  16.896 -0.3891  0.4026  0.3414
 9342TIP3    H149441   0.655   2.242  16.949 -1.4239  0.1099 -1.0379
 9342TIP3    H249442   0.766   2.233  16.846 -2.5491  0.5315 -2.3155
 9343TIP3   OH249443   5.698   5.018  17.242  0.1160 -0.0372 -0.4902
 9343TIP3    H149444   5.724   4.950  17.179  1.0749  1.3412 -1.6607
 9343TIP3    H249445   5.781   5.052  17.277 -0.3607  0.2518  0.3925
 9344TIP3   OH249446   2.343   0.800  17.139  0.1368 -0.2378 -0.1314
 9344TIP3    H149447   2.428   0.843  17.127 -0.0757 -0.2508 -1.9710
 9344TIP3    H249448   2.300   0.851  17.207  1.3068  0.2596  0.2550
 9345TIP3   OH249449   1.270   0.362   3.997  0.2389 -0.8324 -0.3094
 9345TIP3    H149450   1.228   0.391   4.079  0.9912 -3.9335  1.3131
 9345TIP3    H249451   1.343   0.423   3.985 -0.6010  0.4288  0.6023
 9346TIP3   OH249452   1.073   6.554  13.919 -0.4622 -0.3549 -0.7461
 9346TIP3    H149453   1.140   6.566  13.851  1.1790  0.2655  0.8683
 9346TIP3    H249454   1.094   6.470  13.959 -0.2913  0.0599  0.0832
 9347TIP3   OH249455   2.123   4.985  15.087 -0.0703 -0.1759 -0.0147
 9347TIP3    H149456   2.105   4.999  15.180  1.4739 -0.6453  0.3843
 9347TIP3    H249457   2.037   4.988  15.045 -0.9973 -1.7045  1.6467
 9348TIP3   OH249458   3.975   2.707  13.034 -0.0277  0.6431 -0.1257
 9348TIP3    H149459   3.964   2.802  13.024 -1.9794  0.3052 -1.7262
 9348TIP3    H249460   4.020   2.679  12.954 -1.0350  0.0101 -0.4852
 9349TIP3   OH249461   3.025   2.711   3.630 -0.0524 -0.3343  0.4511
 9349TIP3    H149462   3.116   2.729   3.654 -0.5207  2.1991  0.5584
 9349TIP3    H249463   3.025   2.712   3.535 -0.4562  3.0583  0.3793
 9350TIP3   OH249464   4.444   1.925  12.819 -0.5649  0.6857 -0.4485
 9350TIP3    H149465   4.413   1.894  12.904 -0.9231  1.6160 -0.2294
 9350TIP3    H249466   4.517   1.984  12.840 -1.0928  1.4553 -0.7355
 9351TIP3   OH249467   5.886   2.878  13.772 -0.3969  0.1742  0.0517
 9351TIP3    H149468   5.937   2.855  13.849 -0.0793  2.7427  0.7080
 9351TIP3    H249469   5.866   2.971  13.783 -0.0142  0.7619 -3.1075
 9352TIP3   OH249470   0.526   3.057   1.188 -0.1543  0.0910  0.2160
 9352TIP3    H149471   0.497   3.032   1.100  1.5893  0.2672 -0.4355
 9352TIP3    H249472   0.525   2.976   1.238 -0.7169 -0.0917 -0.0839
 9353TIP3   OH249473   0.819   0.015   4.617 -0.0747  0.0493  0.7342
 9353TIP3    H149474   0.724   0.015   4.609 -0.1341 -2.3364  0.6089
 9353TIP3    H249475   0.836   0.054   4.703 -1.1766  0.2705  0.8608
 9354TIP3   OH249476   0.183   5.248  10.495 -0.3956  0.0893 -0.0331
 9354TIP3    H149477   0.204   5.154  10.490 -1.9745 -0.2344 -2.0126
 9354TIP3    H249478   0.111   5.253  10.557 -0.0807  0.0486  0.3381
 9355TIP3   OH249479   6.413   4.778  12.633  0.0081 -0.2795  0.6014
 9355TIP3    H149480   6.417   4.873  12.618 -0.3614 -0.0285  1.9199
 9355TIP3    H249481   6.499   4.746  12.607  0.4460  0.5590  0.9764
 9356TIP3   OH249482   6.341   2.579   4.011  0.3421  0.1102  0.0476
 9356TIP3    H149483   6.305   2.643   4.073  2.6965  1.8616 -0.2418
 9356TIP3    H249484   6.316   2.612   3.925  1.4034  0.5817 -0.0964
 9357TIP3   OH249485   5.485   0.131  11.630 -0.2440  0.5103  0.4689
 9357TIP3    H149486   5.570   0.111  11.670  1.0384  0.2383 -2.1557
 9357TIP3    H249487   5.478   0.226  11.636  1.2651  0.7756 -0.9885
 9358TIP3   OH249488   3.067   4.891   2.658  0.0853  0.1146 -0.1474
 9358TIP3    H149489   3.134   4.941   2.612  0.9777  0.1969  1.1885
 9358TIP3    H249490   3.082   4.800   2.632 -0.5853  0.3378 -1.4045
 9359TIP3   OH249491   3.247   0.735   0.166 -0.3785  1.2339  0.5848
 9359TIP3    H149492   3.284   0.784   0.093  1.9188 -1.6206 -0.3460
 9359TIP3    H249493   3.190   0.670   0.125  1.4712 -0.8618  1.1302
 9360TIP3   OH249494   2.082   3.818  10.588 -0.4878 -0.2727  0.2858
 9360TIP3    H149495   2.095   3.797  10.496 -2.2033 -1.5487  0.2857
 9360TIP3    H249496   2.171   3.822  10.624  0.4526  3.4518 -1.9816
 9361TIP3   OH249497   0.423   3.726   0.243 -0.4810 -0.0222  0.5859
 9361TIP3    H149498   0.334   3.732   0.279 -1.1797 -1.0508 -0.8607
 9361TIP3    H249499   0.466   3.660   0.298 -0.6412  0.3992  1.2294
 9362TIP3   OH249500   0.807   3.832  14.388 -0.5568  0.2899 -0.0829
 9362TIP3    H149501   0.895   3.868  14.393 -0.0271 -1.0966  2.1948
 9362TIP3    H249502   0.819   3.738  14.406 -2.4134 -0.0794 -0.5563
 9363TIP3   OH249503   2.614   4.711  15.525  0.3713  0.0514 -0.3082
 9363TIP3    H149504   2.687   4.694  15.585 -0.5346  0.0780  0.8409
 9363TIP3    H249505   2.628   4.801  15.496 -0.1894  0.7540  1.4138
 9364TIP3   OH249506   1.087   1.813   3.776 -0.0361  0.0012  0.4881
 9364TIP3    H149507   1.113   1.788   3.687  1.9462 -1.6354  1.4314
 9364TIP3    H249508   1.155   1.776   3.832 -1.0074  1.3234  2.6856
 9365TIP3   OH249509   1.639   1.695   0.550  0.2088  0.0204  0.2205
 9365TIP3    H149510   1.616   1.640   0.625 -1.2355  2.0912  1.4070
 9365TIP3    H249511   1.728   1.724   0.569 -0.2624  0.8054  1.3836
 9366TIP3   OH249512   5.201   6.436   5.485  0.0375  0.1401  0.6641
 9366TIP3    H149513   5.157   6.408   5.565 -0.4100  0.0636  0.4014
 9366TIP3    H249514   5.198   6.358   5.429 -1.0794  0.6365 -0.0174
 9367TIP3   OH249515   0.913   1.867  13.455 -0.7303 -0.1665  0.1711
 9367TIP3    H149516   0.972   1.805  13.497  0.3472 -0.6765 -1.9247
 9367TIP3    H249517   0.878   1.818  13.380 -1.0311  1.2712 -0.6560
 9368TIP3   OH249518   0.953   1.966  17.324 -0.1889  0.2493 -0.0419
 9368TIP3    H149519   1.023   1.933  17.268  0.0387 -0.0813  0.4367
 9368TIP3    H249520   0.997   2.019  17.389 -0.2430 -0.9431  1.0033
 9369TIP3   OH249521   2.208   1.582   3.800  0.0089 -0.5747 -0.2192
 9369TIP3    H149522   2.221   1.614   3.711 -1.4247 -0.3737 -0.3837
 9369TIP3    H249523   2.148   1.508   3.791  0.6878 -1.2399  0.4889
 9370TIP3   OH249524   6.632   5.051   0.622 -0.0201  0.3536  0.0068
 9370TIP3    H149525   6.575   5.056   0.545  1.4468  0.2947 -1.1369
 9370TIP3    H249526   6.677   4.967   0.613  2.9019  1.8986 -1.1750
 9371TIP3   OH249527   2.438   2.342   2.698  0.0308  0.2503 -0.4008
 9371TIP3    H149528   2.350   2.306   2.685  0.4713 -1.9050  1.8887
 9371TIP3    H249529   2.431   2.398   2.775  0.4231  1.1124 -0.9732
 9372TIP3   OH249530   0.480   5.072  15.256 -0.1173 -0.1120 -0.0687
 9372TIP3    H149531   0.478   5.001  15.192 -0.0074 -0.3770  0.2180
 9372TIP3    H249532   0.425   5.041  15.328  0.6106 -0.2731  0.4288
 9373TIP3   OH249533   1.413   1.991   3.125  0.3318  0.4198  0.3694
 9373TIP3    H149534   1.491   1.961   3.078  0.1223  0.4601 -0.0032
 9373TIP3    H249535   1.377   2.060   3.070 -0.3910 -0.1097  0.1692
 9374TIP3   OH249536   4.128   5.627   3.504 -0.2332  0.1777  0.1819
 9374TIP3    H149537   4.184   5.704   3.490 -0.2444  0.0287 -0.7145
 9374TIP3    H249538   4.074   5.621   3.425  0.4708 -1.3408 -0.2223
 9375TIP3   OH249539   3.280   2.772   4.431 -0.3296 -0.4974 -0.0816
 9375TIP3    H149540   3.353   2.787   4.491 -0.8406  1.0462  0.1959
 9375TIP3    H249541   3.237   2.694   4.465 -0.5183  0.2617  1.5130
 9376TIP3   OH249542   3.470   2.506   4.601  0.1952  0.1516 -0.0838
 9376TIP3    H149543   3.483   2.557   4.521  0.4014  0.4914  0.1607
 9376TIP3    H249544   3.464   2.415   4.572  0.5909  0.2420 -0.4501
 9377TIP3   OH249545   5.781   0.124  15.104 -0.3379 -0.1763 -0.0684
 9377TIP3    H149546   5.711   0.093  15.162 -1.1789  0.8728 -0.4835
 9377TIP3    H249547   5.790   0.217  15.127  1.2269 -0.3955  0.2747
 9378TIP3   OH249548   5.071   2.112  13.692 -0.4714  0.3871  0.3522
 9378TIP3    H149549   5.142   2.176  13.697 -0.8832  0.9193 -0.3330
 9378TIP3    H249550   5.100   2.049  13.626 -0.1966  0.0267  0.8109
 9379TIP3   OH249551   3.967   5.309   1.442  0.0087  0.3401  0.2379
 9379TIP3    H149552   3.961   5.404   1.452  0.4062  0.3862  0.0480
 9379TIP3    H249553   3.985   5.276   1.530  0.1722  0.4662  0.2514
 9380TIP3   OH249554   4.878   6.348  12.587  0.1168  0.3654  0.3753
 9380TIP3    H149555   4.812   6.326  12.651 -2.3362 -0.6038 -2.2607
 9380TIP3    H249556   4.883   6.444  12.588 -1.7829  0.4980  0.2591
 9381TIP3   OH249557   2.893   0.621   1.671  0.0427  0.3682  0.3699
 9381TIP3    H149558   2.905   0.699   1.618  0.5292  0.1682  0.1741
 9381TIP3    H249559   2.964   0.625   1.736  1.3937 -0.9499 -0.9335
 9382TIP3   OH249560   6.594   2.629   0.984 -0.0852 -0.0032  0.3158
 9382TIP3    H149561   6.505   2.616   0.951  0.2045  1.0287 -0.9285
 9382TIP3    H249562   6.629   2.700   0.931  2.3702 -2.0439 -1.0022
 9383TIP3   OH249563   6.193   2.266  14.277 -0.1511 -0.1489 -0.0749
 9383TIP3    H149564   6.135   2.301  14.344 -0.7650 -0.1838 -0.5763
 9383TIP3    H249565   6.190   2.171  14.289  0.1514 -0.1289  0.1772
 9384TIP3   OH249566   3.665   2.037  14.914  0.4769  0.1178 -0.0131
 9384TIP3    H149567   3.718   2.110  14.947  1.4191 -0.5043 -0.1091
 9384TIP3    H249568   3.611   2.011  14.989  1.6091 -0.3934  0.6541
 9385TIP3   OH249569   2.147   2.708   1.557 -0.1431 -0.2253  0.5968
 9385TIP3    H149570   2.192   2.630   1.591  0.1359  0.3609  1.5981
 9385TIP3    H249571   2.213   2.754   1.506  0.2744  0.3889  1.6732
 9386TIP3   OH249572   5.578   3.662   2.600  0.3660 -0.2804 -0.0853
 9386TIP3    H149573   5.492   3.652   2.559 -0.0541 -0.4249  0.8172
 9386TIP3    H249574   5.559   3.688   2.690  1.2840  0.5276 -0.1068
 9387TIP3   OH249575   3.785   4.616  12.377 -0.4088 -0.3191 -0.3441
 9387TIP3    H149576   3.829   4.665  12.308 -0.1683  1.0186  0.7052
 9387TIP3    H249577   3.832   4.640  12.457 -1.9979 -0.1103  0.5726
 9388TIP3   OH249578   3.018   4.197   4.370  0.4418  0.4530 -0.1309
 9388TIP3    H149579   2.932   4.226   4.341  0.3569 -0.7276 -1.1641
 9388TIP3    H249580   3.050   4.267   4.427 -0.7616  1.3688 -0.5548
 9389TIP3   OH249581   0.558   3.455   2.680 -0.4481  0.3417 -0.4064
 9389TIP3    H149582   0.492   3.438   2.613 -0.0633 -1.8095 -0.2992
 9389TIP3    H249583   0.639   3.417   2.645 -0.0350  0.0017  0.8551
 9390TIP3   OH249584   1.397   0.161  13.946 -0.0178 -0.1154  0.0776
 9390TIP3    H149585   1.448   0.080  13.953  1.6603  0.6951 -1.7607
 9390TIP3    H249586   1.351   0.154  13.862  1.5017  1.4860 -0.9644
 9391TIP3   OH249587   1.703   1.292   3.735 -0.5518  0.3687  0.3563
 9391TIP3    H149588   1.786   1.248   3.715 -0.6962  1.1093 -2.1926
 9391TIP3    H249589   1.730   1.375   3.775 -0.1357 -0.0329  0.9315
 9392TIP3   OH249590   4.468   4.336  14.092  0.2442  0.2223  0.3225
 9392TIP3    H149591   4.384   4.299  14.063  0.0578 -0.3258  1.4811
 9392TIP3    H249592   4.530   4.264  14.084  1.0743  1.1089 -2.2557
 9393TIP3   OH249593   6.174   6.191  16.391 -0.2582 -0.0237  0.3583
 9393TIP3    H149594   6.144   6.140  16.467  0.1328  1.4597  1.5441
 9393TIP3    H249595   6.232   6.257  16.428  1.2341 -0.2654 -1.4398
 9394TIP3   OH249596   0.679   1.001   0.196 -0.4076 -0.6136  0.0241
 9394TIP3    H149597   0.681   1.065   0.268 -0.9643 -0.6701  0.0921
 9394TIP3    H249598   0.693   1.054   0.117 -1.5104 -0.3056  0.0213
 9395TIP3   OH249599   4.291   2.731   2.529  0.1994  0.0690 -0.0519
 9395TIP3    H149600   4.275   2.766   2.441  2.2201  1.7221  0.1726
 9395TIP3    H249601   4.375   2.686   2.522  0.7027  0.7699  1.1456
 9396TIP3   OH249602   0.518   1.216   3.789  0.0369 -0.2442  0.4664
 9396TIP3    H149603   0.486   1.138   3.835  0.0246 -1.5307 -1.5982
 9396TIP3    H249604   0.456   1.285   3.813 -1.3953 -1.4680  0.4711
 9397TIP3   OH249605   5.298   5.861   3.547 -0.5397  0.0743  0.2226
 9397TIP3    H149606   5.283   5.812   3.466 -3.5584  0.3260  0.5064
 9397TIP3    H249607   5.321   5.794   3.611  1.2315 -0.1981 -0.6332
 9398TIP3   OH249608   1.935   3.971  16.720  0.2253  0.3015  0.7370
 9398TIP3    H149609   1.939   3.911  16.794  1.1593 -0.0329  0.4347
 9398TIP3    H249610   2.024   3.969  16.683 -0.7796 -1.5619 -1.9562
 9399TIP3   OH249611   3.085   0.156   3.091 -0.0071  0.3866  0.5946
 9399TIP3    H149612   3.028   0.233   3.081  0.8676  1.0339  0.5127
 9399TIP3    H249613   3.143   0.159   3.015 -0.7514 -1.0648 -0.0802
 9400TIP3   OH249614   5.139   0.385   5.327  0.0313  0.0481  0.1330
 9400TIP3    H149615   5.190   0.319   5.281  1.0216  0.6155  0.3829
 9400TIP3    H249616   5.205   0.445   5.363 -0.8733  1.9218 -1.1972
 9401TIP3   OH249617   4.510   1.683  15.378  0.0645 -0.2566 -0.3475
 9401TIP3    H149618   4.419   1.659  15.361  0.0190  0.6080 -1.3853
 9401TIP3    H249619   4.525   1.762  15.326  0.9909  0.4458  0.9168
 9402TIP3   OH249620   6.684   3.411   3.856 -0.5999 -0.2725  0.4446
 9402TIP3    H149621   6.755   3.349   3.874  0.9511  1.5224  0.8084
 9402TIP3    H249622   6.673   3.409   3.761 -0.1989 -0.7099  0.4058
 9403TIP3   OH249623   2.999   4.449   0.614  0.9916  0.2498 -0.3692
 9403TIP3    H149624   3.042   4.364   0.609  0.9755  0.2660 -0.7768
 9403TIP3    H249625   3.062   4.506   0.657  1.3600  0.2632 -0.9251
 9404TIP3   OH249626   4.816   0.566   4.927 -0.5088 -0.0228 -0.2914
 9404TIP3    H149627   4.904   0.553   4.962 -0.2271 -0.9768 -1.3075
 9404TIP3    H249628   4.828   0.566   4.832 -1.3311  1.9800 -0.4507
 9405TIP3   OH249629   4.586   6.269   0.792 -0.1074  0.0903 -0.2827
 9405TIP3    H149630   4.593   6.318   0.874 -1.1953  0.1054 -0.1926
 9405TIP3    H249631   4.675   6.269   0.757 -0.0849  2.2100 -0.3298
 9406TIP3   OH249632   1.056   5.166   3.401  0.7114 -0.3167 -0.3023
 9406TIP3    H149633   1.031   5.150   3.492 -0.3285 -0.9360 -0.6769
 9406TIP3    H249634   0.979   5.209   3.363  0.6302 -1.2249 -1.2006
 9407TIP3   OH249635   1.143   3.858  14.660 -0.5171 -0.3226  0.8782
 9407TIP3    H149636   1.225   3.845  14.706  0.1054 -0.1007 -0.1323
 9407TIP3    H249637   1.106   3.771  14.649  0.2877 -0.5806  0.1045
 9408TIP3   OH249638   5.472   6.119  12.679 -0.2263  0.1430 -0.0084
 9408TIP3    H149639   5.493   6.028  12.661 -0.0624  0.2089 -0.1572
 9408TIP3    H249640   5.525   6.141  12.756  0.0454  0.2311 -0.2204
 9409TIP3   OH249641   1.187   3.837  11.193 -0.1698  0.1606  0.5531
 9409TIP3    H149642   1.182   3.750  11.153 -0.3458  0.5104 -0.2138
 9409TIP3    H249643   1.102   3.849  11.235 -0.2281  0.0496  0.4655
 9410TIP3   OH249644   5.641   3.123  14.919 -0.1721  0.0393 -0.2438
 9410TIP3    H149645   5.553   3.092  14.938  0.9137 -3.3539 -0.0857
 9410TIP3    H249646   5.629   3.196  14.858 -3.0794  0.4805  0.7404
 9411TIP3   OH249647   2.065   1.282  17.212  0.3615 -0.5048  0.4236
 9411TIP3    H149648   2.007   1.206  17.217  0.4753 -0.5148  2.3945
 9411TIP3    H249649   2.089   1.300  17.303  2.2563  0.4279 -0.2117
 9412TIP3   OH249650   5.330   1.693   1.930  0.3820 -0.0760 -0.1101
 9412TIP3    H149651   5.345   1.748   2.007 -1.0473  1.1663 -0.6617
 9412TIP3    H249652   5.413   1.697   1.882  0.2960  1.7908 -0.2088
 9413TIP3   OH249653   3.630   5.430   3.871 -0.3008 -0.3493  1.0512
 9413TIP3    H149654   3.576   5.397   3.799 -0.1299 -0.5920  1.0326
 9413TIP3    H249655   3.680   5.354   3.899  1.2810  0.2406 -0.0392
 9414TIP3   OH249656   5.243   1.249   4.624 -0.0763  0.4845  0.3873
 9414TIP3    H149657   5.189   1.186   4.576  0.0206  0.8247 -0.1697
 9414TIP3    H249658   5.185   1.322   4.642  0.1828  0.8329 -0.1755
 9415TIP3   OH249659   0.724   5.421  15.026  0.2445  0.0761  0.8682
 9415TIP3    H149660   0.642   5.468  15.038 -0.8887 -1.4774 -0.4020
 9415TIP3    H249661   0.704   5.331  15.050  1.1570 -0.6083 -0.7602
 9416TIP3   OH249662   0.805   4.274   4.502  0.2178 -0.8511  0.7038
 9416TIP3    H149663   0.747   4.275   4.427 -0.4728 -0.8140  1.2266
 9416TIP3    H249664   0.820   4.180   4.519 -0.7515 -0.9045  1.3562
 9417TIP3   OH249665   2.386   2.600   1.293 -0.3767 -0.7119 -0.8859
 9417TIP3    H149666   2.446   2.526   1.280  1.0181  0.6759 -2.9364
 9417TIP3    H249667   2.299   2.563   1.276  0.2665 -1.9418 -1.6261
 9418TIP3   OH249668   5.631   2.657   4.796  0.1044  0.0738  1.0683
 9418TIP3    H149669   5.554   2.651   4.853  1.3746 -1.3516  2.7004
 9418TIP3    H249670   5.665   2.568   4.790  1.3296  0.5780 -0.0939
 9419TIP3   OH249671   0.038   1.857   0.791  0.6395 -0.0192  0.2344
 9419TIP3    H149672   0.121   1.842   0.836 -0.4346 -0.6180  2.1320
 9419TIP3    H249673   0.027   1.781   0.734  2.9416  1.6474 -2.7631
 9420TIP3   OH249674   0.837   6.393   2.110 -0.2509 -0.6759 -0.2968
 9420TIP3    H149675   0.807   6.453   2.179 -0.5673 -1.2057  0.0287
 9420TIP3    H249676   0.931   6.407   2.106 -0.3241 -0.1404 -0.2338
 9421TIP3   OH249677   3.576   4.402  12.874 -0.0701 -0.1883  0.2290
 9421TIP3    H149678   3.603   4.491  12.851 -1.0364  0.0919  0.1442
 9421TIP3    H249679   3.483   4.399  12.851  0.0406 -1.3330 -0.1046
 9422TIP3   OH249680   3.401   2.918   1.183 -0.0583  0.0109 -0.1366
 9422TIP3    H149681   3.487   2.950   1.157 -0.7758  0.1794 -2.5587
 9422TIP3    H249682   3.347   2.997   1.191 -0.7538 -0.2339 -1.8761
 9423TIP3   OH249683   6.692   0.288   4.894 -0.3974  0.0303  0.0403
 9423TIP3    H149684   6.771   0.235   4.909 -0.7956 -0.1154  1.8584
 9423TIP3    H249685   6.676   0.282   4.800  0.6524 -1.5247 -0.0671
 9424TIP3   OH249686   1.613   6.342  16.689  0.0017  0.3259  0.0002
 9424TIP3    H149687   1.545   6.409  16.692 -0.7071 -0.3663  2.9875
 9424TIP3    H249688   1.631   6.330  16.596 -3.6799  0.8557 -0.9500
 9425TIP3   OH249689   3.046   1.816  11.325  0.2496  0.3053 -0.4919
 9425TIP3    H149690   3.024   1.755  11.255  0.0918 -1.2349  0.8332
 9425TIP3    H249691   3.076   1.895  11.280  0.6526 -0.8074 -2.2770
 9426TIP3   OH249692   2.376   5.532  16.648 -0.1960 -0.5451 -0.4657
 9426TIP3    H149693   2.442   5.463  16.644 -0.6280 -1.0455  0.6020
 9426TIP3    H249694   2.312   5.508  16.580  0.5799 -0.1944 -1.3315
 9427TIP3   OH249695   4.908   3.287   0.273 -0.3195 -0.0200  0.5775
 9427TIP3    H149696   4.962   3.321   0.344  0.7225 -1.8630  0.7376
 9427TIP3    H249697   4.910   3.356   0.206  0.2667  0.9380  1.5490
 9428TIP3   OH249698   1.308   3.980   5.573  0.0166  0.4230  0.1779
 9428TIP3    H149699   1.276   3.957   5.660  0.0794 -2.1692 -0.4063
 9428TIP3    H249700   1.360   3.904   5.546 -0.5308  0.8720 -2.3754
 9429TIP3   OH249701   4.376   0.129   3.216  0.1064  0.3929 -0.5656
 9429TIP3    H149702   4.436   0.142   3.143  0.4321  0.3866 -0.3006
 9429TIP3    H249703   4.338   0.215   3.232  2.3746  1.1323  1.2919
 9430TIP3   OH249704   6.723   3.930   6.142 -0.0852  0.3179 -0.2611
 9430TIP3    H149705   6.816   3.941   6.122  0.3088 -0.1817  1.1885
 9430TIP3    H249706   6.710   3.835   6.144  0.0063  0.3078  2.1352
 9431TIP3   OH249707   2.480   4.345   5.059 -0.3780 -0.1304 -0.1292
 9431TIP3    H149708   2.500   4.438   5.053 -0.7872  0.1350  1.8560
 9431TIP3    H249709   2.485   4.325   5.153 -2.4734 -1.5891 -0.2482
 9432TIP3   OH249710   3.188   3.895  13.400 -0.4712 -0.5110 -0.1669
 9432TIP3    H149711   3.188   3.826  13.467 -2.9515 -0.6932 -0.2820
 9432TIP3    H249712   3.117   3.954  13.426  0.2877  0.9045 -1.1934
 9433TIP3   OH249713   4.966   6.075  16.687  0.2335 -0.0846 -0.3967
 9433TIP3    H149714   4.937   6.000  16.634 -0.3828 -1.3929  1.6824
 9433TIP3    H249715   5.059   6.060  16.701 -0.1529 -1.3103  1.1907
 9434TIP3   OH249716   5.935   6.536   4.594 -0.0379 -0.2282 -0.2742
 9434TIP3    H149717   5.939   6.460   4.536  1.1020 -1.2821  1.1210
 9434TIP3    H249718   6.026   6.553   4.617 -0.4893 -0.1017  1.5309
 9435TIP3   OH249719   2.333   2.190  13.931 -0.4146  0.2517 -0.5745
 9435TIP3    H149720   2.390   2.118  13.957  0.3674  1.0352 -0.0833
 9435TIP3    H249721   2.251   2.147  13.907 -1.3936 -0.6104  3.5095
 9436TIP3   OH249722   3.164   2.326  13.830  0.0655  0.6438 -0.3336
 9436TIP3    H149723   3.198   2.382  13.900 -1.8640 -1.5350  2.5939
 9436TIP3    H249724   3.077   2.301  13.861  0.0502 -2.3284 -2.4391
 9437TIP3   OH249725   4.203   4.589   1.785 -0.5380 -0.0194 -0.0456
 9437TIP3    H149726   4.154   4.519   1.829  0.2482  0.4388  1.6674
 9437TIP3    H249727   4.205   4.660   1.849  1.5292  0.3276 -0.4218
 9438TIP3   OH249728   4.488   1.734   4.742 -0.3782  0.5762  0.0590
 9438TIP3    H149729   4.538   1.736   4.824 -0.5249 -1.7930  0.2610
 9438TIP3    H249730   4.398   1.754   4.769 -0.5314 -0.7660  0.5852
 9439TIP3   OH249731   6.749   6.117  14.583 -0.1784 -0.1312  0.0284
 9439TIP3    H149732   6.759   6.022  14.579 -0.9008 -0.2258  0.3002
 9439TIP3    H249733   6.839   6.151  14.588  0.0894 -0.9471  2.8313
 9440TIP3   OH249734   1.713   5.007  15.131 -0.8504  0.2956 -0.3199
 9440TIP3    H149735   1.688   4.967  15.048  1.0240  0.3431 -0.9480
 9440TIP3    H249736   1.723   4.933  15.191 -1.1066  0.1660 -0.4349
 9441TIP3   OH249737   1.277   1.313  12.619 -0.2141 -0.5555  0.6048
 9441TIP3    H149738   1.267   1.219  12.608 -1.2857 -0.3298 -0.6509
 9441TIP3    H249739   1.225   1.351  12.548  0.8117  0.9683  0.6117
 9442TIP3   OH249740   0.019   1.406  15.811  0.1007 -0.0067  0.2383
 9442TIP3    H149741   0.048   1.495  15.828  0.9542  0.7410 -4.0844
 9442TIP3    H249742  -0.058   1.415  15.756  0.6037 -1.8655 -0.8758
 9443TIP3   OH249743   0.194   1.299  12.457 -0.0702 -0.2652 -0.9087
 9443TIP3    H149744   0.210   1.341  12.373 -0.6829 -0.0720 -0.9387
 9443TIP3    H249745   0.279   1.297  12.501 -0.4729  3.9712  0.5002
 9444TIP3   OH249746   2.254   0.154   2.675 -0.1412  0.6149  0.2100
 9444TIP3    H149747   2.299   0.080   2.633  1.2136  1.0140  0.8947
 9444TIP3    H249748   2.175   0.167   2.622 -0.4885 -1.3908  0.1471
 9445TIP3   OH249749   5.778   1.546   5.422 -0.2694 -0.3730  0.3626
 9445TIP3    H149750   5.859   1.581   5.386  0.3390  0.2633  2.2046
 9445TIP3    H249751   5.766   1.462   5.378  0.5793  0.1988 -1.0100
 9446TIP3   OH249752   0.682   1.802   5.171  0.4635  0.3139 -0.5851
 9446TIP3    H149753   0.712   1.887   5.201  0.3466  0.6033 -1.2723
 9446TIP3    H249754   0.601   1.820   5.123  0.1383 -0.2492 -0.2607
 9447TIP3   OH249755   6.418   4.494   4.413 -0.1779 -0.1981 -0.3869
 9447TIP3    H149756   6.439   4.405   4.439 -0.7454 -0.1106  0.3898
 9447TIP3    H249757   6.499   4.543   4.429  0.3134 -0.6662 -1.3433
 9448TIP3   OH249758   1.230   0.925  12.287 -0.5737 -0.7977 -0.1694
 9448TIP3    H149759   1.265   1.013  12.275  0.7679 -1.1582  0.8060
 9448TIP3    H249760   1.155   0.920  12.227 -0.6419  0.9675 -0.2815
 9449TIP3   OH249761   5.825   2.355  16.288  0.0091 -0.3636  0.2940
 9449TIP3    H149762   5.771   2.339  16.365  1.3763  0.3438  1.4413
 9449TIP3    H249763   5.785   2.431  16.246 -0.5955 -0.5974  0.4400
 9450TIP3   OH249764   5.874   2.416   1.583 -0.7358 -0.1421 -0.7929
 9450TIP3    H149765   5.936   2.429   1.655 -0.1369  1.7632 -1.5937
 9450TIP3    H249766   5.905   2.337   1.539  0.7139  0.3721 -0.7499
 9451TIP3   OH249767   4.628   4.317   5.671  0.3401  0.1951  0.5374
 9451TIP3    H149768   4.585   4.322   5.586  0.0548  1.7275  0.7406
 9451TIP3    H249769   4.628   4.408   5.703 -0.5066 -0.4815  2.6346
 9452TIP3   OH249770   0.481   4.944  11.918 -0.0609  0.1599  0.1617
 9452TIP3    H149771   0.535   4.922  11.842  0.9383 -0.2617  0.9633
 9452TIP3    H249772   0.481   5.040  11.920 -0.1069  0.1729 -0.3772
 9453TIP3   OH249773   5.427   2.553   1.961 -0.2383  0.1302 -0.5378
 9453TIP3    H149774   5.448   2.547   2.054 -2.3700  1.1485  0.0624
 9453TIP3    H249775   5.442   2.464   1.927  0.4632 -0.2756  0.7742
 9454TIP3   OH249776   2.189   3.394  16.168 -0.0586 -0.0999 -0.1890
 9454TIP3    H149777   2.132   3.326  16.204  0.2691  0.4418  1.4601
 9454TIP3    H249778   2.160   3.475  16.211  1.7164  0.2405  0.4729
 9455TIP3   OH249779   5.435   1.767  16.881  0.6708  0.2280 -0.5080
 9455TIP3    H149780   5.441   1.704  16.954  1.9866  0.9216  0.0351
 9455TIP3    H249781   5.475   1.847  16.916 -0.8605  1.3509 -1.2170
 9456TIP3   OH249782   4.949   1.840   1.194 -0.4306 -0.0872  0.3121
 9456TIP3    H149783   4.958   1.760   1.246  0.8589  0.0092  0.2898
 9456TIP3    H249784   4.893   1.897   1.246 -0.2261 -0.4930  0.9913
 9457TIP3   OH249785   2.706   0.758   2.332 -0.1001 -0.4445 -0.1600
 9457TIP3    H149786   2.655   0.766   2.251 -1.7593  0.1639  0.8898
 9457TIP3    H249787   2.660   0.814   2.394  1.9470  0.2029  0.8376
 9458TIP3   OH249788   6.610   6.508  17.049 -0.0159 -0.2972 -0.0185
 9458TIP3    H149789   6.683   6.450  17.070 -0.4949 -0.8332  0.2237
 9458TIP3    H249790   6.650   6.591  17.026  0.6143 -0.1768  1.4216
 9459TIP3   OH249791   0.917   3.049  11.699 -0.3476  0.2839  0.2925
 9459TIP3    H149792   0.873   3.130  11.725 -1.4821 -0.6361  1.3524
 9459TIP3    H249793   0.928   3.056  11.604 -0.6163  1.5759  0.3452
 9460TIP3   OH249794   5.928   1.787   2.684  0.4594 -0.3171 -0.3872
 9460TIP3    H149795   5.990   1.842   2.732  0.7726  0.4571 -1.6112
 9460TIP3    H249796   5.980   1.713   2.654  0.3751 -0.5601  0.0663
 9461TIP3   OH249797   3.185   5.371  12.431  0.3665  0.1189 -0.4520
 9461TIP3    H149798   3.211   5.345  12.343 -0.1236  1.4572 -1.0282
 9461TIP3    H249799   3.096   5.336  12.441  0.8006 -0.9076 -0.0800
 9462TIP3   OH249800   0.017   1.065   0.709 -0.1234  0.2927  0.2575
 9462TIP3    H149801   0.059   1.001   0.651  1.8838  1.3329  0.4791
 9462TIP3    H249802   0.068   1.061   0.790 -0.6941  1.3632  0.6846
 9463TIP3   OH249803   4.586   5.755  10.656  0.6383  0.3514  0.4724
 9463TIP3    H149804   4.576   5.666  10.688  0.4835  0.0108 -0.4873
 9463TIP3    H249805   4.518   5.805  10.701 -0.1181 -0.2816  0.0405
 9464TIP3   OH249806   3.371   4.762  14.128  0.2569 -0.9073 -0.2228
 9464TIP3    H149807   3.303   4.796  14.070  0.9098 -0.3643 -0.6812
 9464TIP3    H249808   3.421   4.839  14.154  0.2827 -1.2120  0.6651
 9465TIP3   OH249809   6.329   3.316  15.303  0.0229  0.3585  0.4499
 9465TIP3    H149810   6.291   3.250  15.246 -0.7923  2.0007 -0.9972
 9465TIP3    H249811   6.254   3.355  15.347  0.4383  0.7193  0.8468
 9466TIP3   OH249812   0.235   1.156   3.890  0.1779  0.2445  0.1841
 9466TIP3    H149813   0.166   1.166   3.825 -0.8885  0.8667  1.3690
 9466TIP3    H249814   0.266   1.066   3.880 -0.7407 -0.0100 -0.4250
 9467TIP3   OH249815   2.923   1.270   2.054  0.2201 -0.5065 -0.3212
 9467TIP3    H149816   2.991   1.222   2.101 -0.3263 -1.1675 -0.1993
 9467TIP3    H249817   2.854   1.283   2.119 -0.5442 -1.4353 -0.9343
 9468TIP3   OH249818   3.556   2.257  12.403  0.3083 -0.0416  0.8257
 9468TIP3    H149819   3.554   2.163  12.382 -1.8075 -0.2773  1.7737
 9468TIP3    H249820   3.554   2.260  12.498  1.6115  1.0047  0.8498
 9469TIP3   OH249821   4.949   4.293  15.839  0.1329  0.1910 -0.7600
 9469TIP3    H149822   4.880   4.227  15.832 -1.1732  1.3661  0.2637
 9469TIP3    H249823   5.010   4.258  15.904 -0.4022 -0.1156 -0.4188
 9470TIP3   OH249824   4.051   4.945  12.024  0.0224 -0.3475 -0.3186
 9470TIP3    H149825   4.127   4.893  11.997 -1.0342 -1.1934 -1.7899
 9470TIP3    H249826   4.070   4.970  12.115  1.8519 -0.8903 -0.5153
 9471TIP3   OH249827   5.534   4.607   6.237  0.5195 -0.1994  0.2164
 9471TIP3    H149828   5.544   4.590   6.331  0.5307  0.4534  0.3426
 9471TIP3    H249829   5.588   4.541   6.194 -0.0420 -0.9492  0.6406
 9472TIP3   OH249830   6.360   2.723  14.675  0.0543  0.1191 -0.0076
 9472TIP3    H149831   6.340   2.811  14.644  1.4166  0.1599 -0.8932
 9472TIP3    H249832   6.348   2.668  14.597 -0.1224 -0.3742  0.3664
 9473TIP3   OH249833   4.677   5.004   1.722 -0.0831  0.4718  0.7655
 9473TIP3    H149834   4.635   5.088   1.704 -1.2820 -0.6117 -1.9809
 9473TIP3    H249835   4.725   4.983   1.642  0.2424 -1.4349  1.4116
 9474TIP3   OH249836   4.897   2.705   1.875  0.3793 -0.1158 -0.0220
 9474TIP3    H149837   4.968   2.654   1.914  1.8908  1.3555 -0.7434
 9474TIP3    H249838   4.891   2.783   1.929  1.7510  1.4173 -1.9518
 9475TIP3   OH249839   1.401   5.021   0.794 -0.0320  0.1047  0.0972
 9475TIP3    H149840   1.354   4.940   0.778 -1.0060  0.3489  1.5483
 9475TIP3    H249841   1.433   5.014   0.884  0.8814  0.8478 -0.1440
 9476TIP3   OH249842   6.487   6.396   3.348  0.6218  0.2479 -0.2579
 9476TIP3    H149843   6.467   6.363   3.261  0.2460 -0.1685 -0.0176
 9476TIP3    H249844   6.547   6.469   3.333 -0.2083  0.8050 -0.9229
 9477TIP3   OH249845   5.067   1.958   1.803 -0.1154 -0.3240  0.5228
 9477TIP3    H149846   5.127   1.997   1.739  1.0784 -1.0559  1.1571
 9477TIP3    H249847   4.982   1.958   1.759  0.3707  0.5691 -0.4772
 9478TIP3   OH249848   5.130   5.555   4.357 -0.2895 -0.0832 -0.0623
 9478TIP3    H149849   5.199   5.491   4.338 -0.9962 -1.0795  0.6203
 9478TIP3    H249850   5.137   5.620   4.287 -0.1383 -1.3981 -1.3035
 9479TIP3   OH249851   0.214   2.639   4.802 -0.3878 -0.0925  0.2397
 9479TIP3    H149852   0.274   2.577   4.759  1.4578  2.3673 -0.9907
 9479TIP3    H249853   0.177   2.589   4.875 -0.1234 -3.0420 -1.4631
 9480TIP3   OH249854   6.529   3.552  16.144 -0.6750 -0.3609  0.0953
 9480TIP3    H149855   6.451   3.605  16.131 -0.4590  0.2343  1.0992
 9480TIP3    H249856   6.516   3.509  16.228  0.1928 -0.0189  0.4212
 9481TIP3   OH249857   3.020   2.594  13.218 -0.5749  0.4959 -0.2098
 9481TIP3    H149858   3.031   2.502  13.244  3.3401  0.7911 -0.2172
 9481TIP3    H249859   3.002   2.590  13.124  1.5589 -0.3320 -0.6440
 9482TIP3   OH249860   5.082   1.288  13.830  0.6057 -0.2097  0.1775
 9482TIP3    H149861   5.076   1.318  13.921 -2.2785 -0.4190  0.1249
 9482TIP3    H249862   5.164   1.327  13.798  4.0592 -3.3882  3.9578
 9483TIP3   OH249863   1.099   0.883   5.541  0.2388  0.6454  0.0619
 9483TIP3    H149864   1.164   0.858   5.608 -1.8056  2.0587  2.7783
 9483TIP3    H249865   1.048   0.803   5.528  0.0538  0.5932  0.9862
 9484TIP3   OH249866   2.731   2.290  12.453 -0.2081 -0.0754 -0.7984
 9484TIP3    H149867   2.756   2.337  12.532  1.1454 -0.4667 -0.9723
 9484TIP3    H249868   2.789   2.323  12.385 -1.1406  0.0279 -1.5693
 9485TIP3   OH249869   4.271   2.084   3.541 -0.5195  0.1865  0.6568
 9485TIP3    H149870   4.342   2.028   3.509 -0.5123 -0.4166  1.6562
 9485TIP3    H249871   4.263   2.060   3.634 -1.1178  1.2251  0.8818
 9486TIP3   OH249872   2.972   6.418  13.617  0.6329  0.0563 -0.3861
 9486TIP3    H149873   2.971   6.511  13.597 -0.5291 -0.4926 -3.3300
 9486TIP3    H249874   3.035   6.410  13.689  1.3674  2.9630 -0.5672
 9487TIP3   OH249875   1.106   4.773   6.428 -0.2813  0.3302 -0.0638
 9487TIP3    H149876   1.182   4.716   6.420 -1.3284 -1.0806 -0.4177
 9487TIP3    H249877   1.138   4.849   6.477  0.9217 -1.0499  1.4081
 9488TIP3   OH249878   1.152   6.164   6.523 -0.2633 -0.0889 -0.0385
 9488TIP3    H149879   1.238   6.201   6.541 -0.1609  0.6759 -1.8667
 9488TIP3    H249880   1.170   6.074   6.496 -0.2509 -0.5974  1.5870
 9489TIP3   OH249881   3.476   4.249   1.976 -0.7113  0.2954  1.1063
 9489TIP3    H149882   3.525   4.307   1.917  2.9453 -1.0135  2.5880
 9489TIP3    H249883   3.452   4.304   2.050 -3.1366  1.3299 -0.3053
 9490TIP3   OH249884   2.503   2.563  17.209 -0.4209 -0.1361  0.0026
 9490TIP3    H149885   2.424   2.575  17.156 -1.9467 -1.8911  1.7086
 9490TIP3    H249886   2.497   2.631  17.276 -0.1009  0.1753 -0.2837
 9491TIP3   OH249887   5.900   4.315   2.190 -0.3691  0.2452 -0.1569
 9491TIP3    H149888   5.847   4.272   2.123  0.1531 -1.4088  0.4387
 9491TIP3    H249889   5.851   4.393   2.214 -1.1600  0.2095 -1.5848
 9492TIP3   OH249890   4.188   3.194  12.563 -0.6016  0.3376 -0.0284
 9492TIP3    H149891   4.180   3.108  12.605 -1.7814  1.5080  2.3901
 9492TIP3    H249892   4.149   3.182  12.476 -2.6614 -1.1212  1.0171
 9493TIP3   OH249893   3.301   0.963  15.439  0.6416  0.0618 -0.0996
 9493TIP3    H149894   3.219   0.919  15.415  1.1931  0.4332 -2.9780
 9493TIP3    H249895   3.353   0.894  15.482  0.3876 -1.3587 -1.9615
 9494TIP3   OH249896   3.654   2.228  13.481 -0.1368 -0.0136  0.1054
 9494TIP3    H149897   3.703   2.288  13.538  0.4914  0.1940 -0.6398
 9494TIP3    H249898   3.705   2.225  13.400 -0.1986 -1.5146  0.1059
 9495TIP3   OH249899   0.090   2.714   0.860  0.6380  0.0180 -0.3538
 9495TIP3    H149900   0.139   2.717   0.778  0.3089 -1.4256 -0.6272
 9495TIP3    H249901   0.094   2.622   0.887  0.4648  0.4090  1.0865
 9496TIP3   OH249902   1.064   4.379   1.680 -0.1723 -0.6326  0.0601
 9496TIP3    H149903   1.033   4.383   1.770 -0.9732  0.0211 -0.2362
 9496TIP3    H249904   1.160   4.381   1.687 -0.2231 -1.0164  0.9062
 9497TIP3   OH249905   5.419   1.446  13.240  0.6406 -0.0695  0.6486
 9497TIP3    H149906   5.394   1.501  13.314 -0.1439 -1.3553  1.3858
 9497TIP3    H249907   5.376   1.485  13.164  0.0335  0.2915  1.1731
 9498TIP3   OH249908   5.067   4.116  14.261 -0.1399  0.3809 -0.1647
 9498TIP3    H149909   4.988   4.167  14.244 -0.4260  0.8655  2.2012
 9498TIP3    H249910   5.138   4.180  14.257 -0.5025  1.1399  2.8461
 9499TIP3   OH249911   5.263   0.035  16.257  0.5871 -0.1456  0.4157
 9499TIP3    H149912   5.189   0.067  16.204  1.1981  1.1340  0.2978
 9499TIP3    H249913   5.234  -0.050  16.289  0.1384 -0.9702 -1.9155
 9500TIP3   OH249914   3.414   1.359   2.723 -0.5127 -0.5260 -0.5371
 9500TIP3    H149915   3.389   1.451   2.720  0.0173 -0.3183  0.7579
 9500TIP3    H249916   3.418   1.338   2.816 -0.6225 -1.8612 -0.8111
 9501TIP3   OH249917   5.324   4.635   3.631 -0.6111  0.2943 -0.0274
 9501TIP3    H149918   5.296   4.584   3.707 -1.9464  1.2727  0.1902
 9501TIP3    H249919   5.414   4.660   3.650 -0.0153 -1.7312 -0.0310
 9502TIP3   OH249920   5.577   0.467   4.244 -0.5161 -0.5644 -0.3501
 9502TIP3    H149921   5.621   0.520   4.311 -0.0143 -1.5300  0.1029
 9502TIP3    H249922   5.622   0.383   4.247 -1.6059 -1.1743 -0.7429
 9503TIP3   OH249923   5.885   2.167  10.561 -0.1339  0.5783 -0.0212
 9503TIP3    H149924   5.806   2.222  10.552 -1.2630 -0.3984  2.8382
 9503TIP3    H249925   5.852   2.082  10.588  1.8397 -0.3132 -0.2752
 9504TIP3   OH249926   1.624   1.656   5.393 -0.0872 -0.2981  0.0858
 9504TIP3    H149927   1.671   1.651   5.310 -2.5497 -2.4108 -1.3152
 9504TIP3    H249928   1.607   1.750   5.405  0.9570  0.1164 -1.4076
 9505TIP3   OH249929   6.319   3.701   1.973 -0.6728  0.2577  0.6663
 9505TIP3    H149930   6.348   3.625   1.923  0.7259  0.6791  0.7949
 9505TIP3    H249931   6.281   3.665   2.053  0.2601 -0.2924  0.8615
 9506TIP3   OH249932   1.613   0.463  15.475  0.5012  0.4987 -0.2823
 9506TIP3    H149933   1.642   0.386  15.525 -0.6798  0.8622  1.0132
 9506TIP3    H249934   1.653   0.537  15.520 -1.4985  0.9217  0.8844
 9507TIP3   OH249935   2.080   3.105   5.745  0.0849  0.0277  0.4280
 9507TIP3    H149936   2.050   3.088   5.834  1.9472  0.5905  1.1954
 9507TIP3    H249937   2.094   3.019   5.707 -3.3569 -0.3453 -0.3617
 9508TIP3   OH249938   2.525   5.022  16.330  0.0941  0.5936 -0.3337
 9508TIP3    H149939   2.555   4.997  16.417 -2.9862 -1.5412  0.2775
 9508TIP3    H249940   2.529   4.941  16.279 -0.5467  1.2147 -1.4090
 9509TIP3   OH249941   4.390   4.597  12.419 -0.3216  0.6843  0.1834
 9509TIP3    H149942   4.439   4.519  12.391 -0.1024  0.3790  1.3614
 9509TIP3    H249943   4.428   4.620  12.504 -0.6379  1.8646  0.0301
 9510TIP3   OH249944   0.842   4.806  12.854 -0.2784 -0.1046  0.9395
 9510TIP3    H149945   0.818   4.753  12.778  1.0343 -1.9239  1.7266
 9510TIP3    H249946   0.869   4.890  12.817 -0.3597 -0.6941 -0.5307
 9511TIP3   OH249947   4.852   6.663  17.235  0.1280  0.4409 -0.2230
 9511TIP3    H149948   4.836   6.755  17.259  0.2104  0.5159 -0.4561
 9511TIP3    H249949   4.786   6.614  17.284 -0.0214  0.6396 -0.2229
 9512TIP3   OH249950   2.609   2.895   3.849 -0.4957 -0.4039  0.1801
 9512TIP3    H149951   2.648   2.949   3.918 -0.1650 -0.9328  0.4172
 9512TIP3    H249952   2.678   2.832   3.826 -0.6593 -0.3341 -0.5256
 9513TIP3   OH249953   2.776   5.992   1.385  0.2771  0.4084  0.5409
 9513TIP3    H149954   2.694   6.011   1.430  0.4931 -0.3833  1.3023
 9513TIP3    H249955   2.839   5.975   1.455  0.6332 -0.8255 -0.0443
 9514TIP3   OH249956   6.601   5.797   2.278 -0.1721 -0.3258  0.2323
 9514TIP3    H149957   6.575   5.782   2.187 -1.0735 -2.3969  0.7645
 9514TIP3    H249958   6.593   5.711   2.319 -0.0775  0.6167  2.3456
 9515TIP3   OH249959   0.783   1.101   0.821 -0.3241  0.0234  0.6282
 9515TIP3    H149960   0.859   1.126   0.874 -1.3841 -1.1036  2.8506
 9515TIP3    H249961   0.817   1.038   0.758  0.7018  0.0474  1.1374
 9516TIP3   OH249962   5.495   5.264   3.457  0.2678  0.3809  0.5295
 9516TIP3    H149963   5.578   5.279   3.501  0.2547  2.0883  0.0431
 9516TIP3    H249964   5.439   5.225   3.524  0.5362  2.0364  1.7609
 9517TIP3   OH249965   1.022   0.548   5.808 -0.0789  0.2826 -0.3192
 9517TIP3    H149966   1.029   0.474   5.868 -1.4681 -1.2281 -1.9136
 9517TIP3    H249967   1.076   0.617   5.848 -1.9638 -0.1337  3.3438
 9518TIP3   OH249968   5.351   3.772  11.869 -0.2266 -0.8493 -0.1789
 9518TIP3    H149969   5.364   3.858  11.830  1.0735 -0.9697 -0.0588
 9518TIP3    H249970   5.260   3.773  11.901  0.3405  1.2178  1.6097
 9519TIP3   OH249971   0.493   4.424  13.282 -0.0908  0.0747  0.0756
 9519TIP3    H149972   0.474   4.357  13.348  0.5636  2.2356  2.6272
 9519TIP3    H249973   0.550   4.380  13.219 -1.2510 -2.2640  0.5416
 9520TIP3   OH249974   5.822   5.542  16.103  0.8178 -0.8318 -0.6505
 9520TIP3    H149975   5.838   5.471  16.164 -0.1041  0.0824  0.7236
 9520TIP3    H249976   5.906   5.588  16.097  0.1372  1.3353  3.0542
 9521TIP3   OH249977   4.327   5.596   3.828  0.1685  0.3239 -0.0248
 9521TIP3    H149978   4.327   5.598   3.732 -1.4613  0.8642 -0.0445
 9521TIP3    H249979   4.385   5.668   3.853  0.8326  0.0015 -0.5949
 9522TIP3   OH249980   3.023   2.030   5.911  0.4655 -0.4103 -0.2902
 9522TIP3    H149981   3.049   1.956   5.966 -1.8921 -0.5154  0.8313
 9522TIP3    H249982   3.058   2.010   5.825  0.9832 -2.2038  0.2943
 9523TIP3   OH249983   1.445   0.015   2.218 -0.6331 -0.4461  0.0377
 9523TIP3    H149984   1.378   0.069   2.259  0.2286  0.5068  0.2329
 9523TIP3    H249985   1.494  -0.023   2.292  0.0885  0.2148 -0.0850
 9524TIP3   OH249986   3.198   1.407   3.089  0.0290  0.4865 -0.4818
 9524TIP3    H149987   3.147   1.476   3.048 -0.8090 -0.2147 -0.6553
 9524TIP3    H249988   3.259   1.452   3.146  0.8678  1.4713 -2.0879
 9525TIP3   OH249989   4.144   5.970  16.637  0.2609 -0.9230 -0.0002
 9525TIP3    H149990   4.092   5.892  16.659 -0.1080 -0.6949 -0.0463
 9525TIP3    H249991   4.168   6.007  16.722  1.8375 -1.9874  0.0498
 9526TIP3   OH249992   5.625   6.610  12.087 -0.5746 -0.1491  0.0093
 9526TIP3    H149993   5.614   6.678  12.153 -1.4831  0.2059 -0.5020
 9526TIP3    H249994   5.551   6.551  12.100 -0.7505 -0.0906 -0.6649
 9527TIP3   OH249995   0.808   4.369  11.458 -0.3992 -0.3630  0.1410
 9527TIP3    H149996   0.784   4.458  11.434 -0.1076 -0.6609 -1.3367
 9527TIP3    H249997   0.794   4.365  11.553 -1.2831  0.9689  0.0869
 9528TIP3   OH249998   5.608   2.068  11.841  0.0145 -0.4593  0.0603
 9528TIP3    H149999   5.685   2.121  11.861 -0.7362  0.1405  1.5070
 9528TIP3    H250000   5.636   1.977  11.855  1.1170 -0.4403 -1.7810
 9529TIP3   OH250001   2.756   2.373   2.712 -0.3366 -0.1734  0.0941
 9529TIP3    H150002   2.713   2.300   2.757 -0.1468 -0.2710  0.1171
 9529TIP3    H250003   2.688   2.410   2.655  0.2619 -2.0388 -1.9750
 9530TIP3   OH250004   3.434   3.280   1.802  0.1290  0.5896  0.4860
 9530TIP3    H150005   3.357   3.309   1.752  0.3673  2.5618  1.1775
 9530TIP3    H250006   3.506   3.332   1.767  1.0492 -0.7344  0.3338
 9531TIP3   OH250007   3.727   2.371  11.828  0.4726  0.6550 -0.6537
 9531TIP3    H150008   3.740   2.407  11.741 -0.4552  1.2279 -0.5686
 9531TIP3    H250009   3.654   2.310  11.819  0.5084  0.5556 -0.3106
 9532TIP3   OH250010   3.799   6.336  16.049 -0.5405  0.1859  0.5206
 9532TIP3    H150011   3.862   6.344  15.977 -0.4760  0.7959  0.6369
 9532TIP3    H250012   3.731   6.278  16.015  0.1275 -0.5708  0.4288
 9533TIP3   OH250013   5.214   5.594  15.283 -0.6436 -0.3599  0.3785
 9533TIP3    H150014   5.148   5.647  15.328 -0.8228 -1.2145  1.1408
 9533TIP3    H250015   5.222   5.515  15.336  0.2639 -0.7147 -0.2617
 9534TIP3   OH250016   0.286   0.710  14.744 -0.8286 -0.1185 -0.2188
 9534TIP3    H150017   0.358   0.736  14.685  0.3850 -0.5262  1.0334
 9534TIP3    H250018   0.285   0.778  14.811 -0.6060 -0.9009  0.5983
 9535TIP3   OH250019   1.423   4.366   4.601  0.1245  0.8422  0.4360
 9535TIP3    H150020   1.379   4.290   4.640  1.5616  0.7149  1.9004
 9535TIP3    H250021   1.492   4.328   4.546  1.0264  1.0572  1.3900
 9536TIP3   OH250022   4.761   5.285  13.055  0.1721  0.0169  0.2618
 9536TIP3    H150023   4.704   5.351  13.095  0.6882 -0.2009  1.3725
 9536TIP3    H250024   4.849   5.321  13.063  0.1483  1.1949 -3.0331
 9537TIP3   OH250025   1.412   3.145   5.169  0.1681 -0.0508  0.3383
 9537TIP3    H150026   1.368   3.188   5.241 -0.2433 -1.6436  1.0717
 9537TIP3    H250027   1.497   3.118   5.205  0.4285  0.1388 -0.1178
 9538TIP3   OH250028   2.180   3.328  15.546  0.0316 -0.0516 -0.4802
 9538TIP3    H150029   2.092   3.345  15.512  0.0501 -1.2578 -1.1856
 9538TIP3    H250030   2.176   3.352  15.638 -0.4972  1.7146 -0.9290
 9539TIP3   OH250031   0.246   3.236   0.434  0.5169  0.2908 -0.0977
 9539TIP3    H150032   0.325   3.220   0.383  1.6274  0.3523  1.5234
 9539TIP3    H250033   0.211   3.149   0.452 -1.5056  0.2870 -3.2189
 9540TIP3   OH250034   6.692   0.402  15.812 -0.4001 -0.4539  0.4707
 9540TIP3    H150035   6.617   0.452  15.843  0.8075  0.7634  1.5776
 9540TIP3    H250036   6.685   0.406  15.716 -0.4610  1.7488  0.5027
 9541TIP3   OH250037   5.585   3.963   0.856 -0.0579 -0.3444 -0.3167
 9541TIP3    H150038   5.506   3.966   0.803 -0.0723  1.7422 -0.2604
 9541TIP3    H250039   5.572   4.029   0.924  0.8429 -1.4834  1.0379
 9542TIP3   OH250040   1.520   1.485  11.442  0.2107  0.2835  0.0398
 9542TIP3    H150041   1.583   1.415  11.453  0.0083  0.3271  1.9200
 9542TIP3    H250042   1.565   1.551  11.390  1.6834  0.2360  1.1821
 9543TIP3   OH250043   1.629   1.430   1.562  0.2663  0.1510 -0.1199
 9543TIP3    H150044   1.591   1.390   1.640 -2.9978  0.6984 -1.2577
 9543TIP3    H250045   1.653   1.356   1.507 -2.1259 -0.3547 -0.5965
 9544TIP3   OH250046   0.277   6.301  14.056  0.1459 -0.5125 -0.0772
 9544TIP3    H150047   0.338   6.229  14.045  1.3977  0.3735  0.7691
 9544TIP3    H250048   0.309   6.370  13.998 -1.2425 -0.7231 -1.1583
 9545TIP3   OH250049   1.512   2.014   6.292 -0.3616  0.3653 -0.3349
 9545TIP3    H150050   1.533   1.966   6.372  0.0184  0.4493 -0.3833
 9545TIP3    H250051   1.416   2.009   6.286 -0.2231 -2.5265 -1.6367
 9546TIP3   OH250052   4.321   6.613  13.794  0.4104 -0.6406  0.3066
 9546TIP3    H150053   4.287   6.664  13.868  0.0702  1.0946 -0.9921
 9546TIP3    H250054   4.269   6.640  13.719  1.9087 -1.0242 -0.9340
 9547TIP3   OH250055   1.540   1.550  16.556 -0.1898 -0.2635  0.0646
 9547TIP3    H150056   1.545   1.493  16.479 -0.8491 -0.7952  0.4009
 9547TIP3    H250057   1.515   1.635  16.521  2.0181  0.1772 -0.5959
 9548TIP3   OH250058   2.858   1.104   6.746  0.0325  0.5677 -0.1407
 9548TIP3    H150059   2.943   1.064   6.725 -0.7492 -0.7118 -0.9897
 9548TIP3    H250060   2.844   1.082   6.838  0.7132  0.9720  0.0675
 9549TIP3   OH250061   5.521   0.039   1.931  0.5265 -0.3526  0.0629
 9549TIP3    H150062   5.509   0.063   1.839 -1.2263 -0.4108  0.2382
 9549TIP3    H250063   5.511  -0.057   1.932  1.6655 -0.4895  0.1842
 9550TIP3   OH250064   4.652   5.773  14.823  0.0989  0.3720 -0.1647
 9550TIP3    H150065   4.667   5.811  14.910 -3.0274  2.0755 -0.2121
 9550TIP3    H250066   4.613   5.688  14.840  0.6751  0.1481  0.0585
 9551TIP3   OH250067   4.819   6.656  16.842  1.4524 -0.1605  0.0553
 9551TIP3    H150068   4.791   6.679  16.753  0.8083 -1.6809 -0.1556
 9551TIP3    H250069   4.911   6.681  16.845  1.1515  1.1514 -0.5740
 9552TIP3   OH250070   1.756   3.036   6.168 -0.0330  0.6971 -0.2520
 9552TIP3    H150071   1.744   2.957   6.222  0.2947  1.0184  0.2957
 9552TIP3    H250072   1.785   3.103   6.230  1.8377  0.6925 -1.0676
 9553TIP3   OH250073   2.236   3.170  13.832  0.1383 -0.7850  0.2916
 9553TIP3    H150074   2.215   3.235  13.765 -1.5424 -1.1932  0.3683
 9553TIP3    H250075   2.280   3.220  13.901 -0.8506  0.2274  0.2144
 9554TIP3   OH250076   3.956   4.874   2.408 -0.5183 -0.3722  0.4167
 9554TIP3    H150077   3.918   4.806   2.464 -0.2124 -0.3474  0.6556
 9554TIP3    H250078   4.027   4.830   2.362  0.7875  0.1836  1.8255
 9555TIP3   OH250079   0.255   4.920  15.401 -0.0962  0.0267  0.2796
 9555TIP3    H150080   0.199   4.931  15.324  1.0647  0.9821 -0.4641
 9555TIP3    H250081   0.241   4.999  15.453 -1.7657 -1.1306  1.7030
 9556TIP3   OH250082   0.876   5.688  11.975  0.6078 -0.4917 -0.0058
 9556TIP3    H150083   0.873   5.676  12.070 -1.4319  0.5853  0.1195
 9556TIP3    H250084   0.947   5.750  11.961 -1.7223  2.7309  1.3344
 9557TIP3   OH250085   6.133   4.525   3.775  0.0226  0.9765  0.6156
 9557TIP3    H150086   6.186   4.558   3.702  0.9667  1.0991  1.3464
 9557TIP3    H250087   6.051   4.497   3.734  0.7148  0.6111 -0.5738
 9558TIP3   OH250088   5.159   6.169   3.060 -0.3715  0.4382  0.6339
 9558TIP3    H150089   5.250   6.183   3.035  0.3511  0.6325  3.0488
 9558TIP3    H250090   5.134   6.089   3.015 -0.1579  2.0458 -2.6801
 9559TIP3   OH250091   4.461   6.186  12.092 -0.1037 -0.3107  0.3118
 9559TIP3    H150092   4.482   6.263  12.144 -1.8341 -0.2416  0.9759
 9559TIP3    H250093   4.516   6.116  12.129  3.5135  1.0447 -2.0099
 9560TIP3   OH250094   3.058   3.939  12.272  0.4104 -0.1067 -0.2782
 9560TIP3    H150095   2.999   4.013  12.259  0.7493 -0.0114 -1.3962
 9560TIP3    H250096   3.074   3.905  12.184  0.3825 -1.4233  0.1981
 9561TIP3   OH250097   6.060   6.254   3.335  0.0492 -0.2832  0.0179
 9561TIP3    H150098   6.085   6.320   3.400 -0.6342 -0.3478  0.3544
 9561TIP3    H250099   5.971   6.279   3.309 -0.2783 -1.1662  0.2730
 9562TIP3   OH250100   1.066   1.202  14.654 -0.0777 -0.6840 -0.2596
 9562TIP3    H150101   1.054   1.280  14.708 -1.2162  0.0487 -1.5105
 9562TIP3    H250102   1.109   1.234  14.575  2.0606 -1.8310  0.3696
 9563TIP3   OH250103   3.797   0.232   5.628  0.1659  0.0513 -0.1228
 9563TIP3    H150104   3.717   0.181   5.640  0.3680 -1.1272 -2.9730
 9563TIP3    H250105   3.790   0.303   5.692 -2.3679 -0.8968  0.7846
 9564TIP3   OH250106   3.034   3.000   0.029 -0.2726 -0.0957  0.2043
 9564TIP3    H150107   3.087   2.998   0.108 -1.6786 -1.7708  1.2000
 9564TIP3    H250108   2.980   3.079   0.037  2.2173  1.8499 -1.0225
 9565TIP3   OH250109   1.644   5.418   0.427 -0.1947 -0.5663 -0.2273
 9565TIP3    H150110   1.556   5.383   0.438 -1.7232  2.9091  0.1616
 9565TIP3    H250111   1.650   5.438   0.333 -0.2824  0.1484 -0.0904
 9566TIP3   OH250112   4.581   0.079   3.881  0.3758 -0.0059 -0.2727
 9566TIP3    H150113   4.606   0.089   3.973  0.0335  0.3702 -0.2205
 9566TIP3    H250114   4.648   0.021   3.845  0.6811  0.0847  0.1381
 9567TIP3   OH250115   6.482   4.307  16.462 -0.0891  0.2162 -0.5410
 9567TIP3    H150116   6.402   4.341  16.503 -0.0340  0.3149 -0.5165
 9567TIP3    H250117   6.455   4.285  16.373 -0.8317 -2.2702  0.2057
 9568TIP3   OH250118   2.167   4.687  13.055 -0.5294  0.2158 -0.6279
 9568TIP3    H150119   2.262   4.695  13.049 -0.4498 -0.3898 -0.3014
 9568TIP3    H250120   2.139   4.670  12.965  0.0286 -2.8501 -0.3494
 9569TIP3   OH250121   4.019   0.078  14.831 -0.1157 -0.8531 -0.0292
 9569TIP3    H150122   4.013   0.172  14.849 -0.5667 -1.2102  1.9485
 9569TIP3    H250123   4.111   0.065  14.808 -0.2881  0.2154 -1.5025
 9570TIP3   OH250124   1.304   3.440  13.731  0.3645 -0.1446  0.3733
 9570TIP3    H150125   1.253   3.413  13.655  0.6960  1.3787 -0.4490
 9570TIP3    H250126   1.394   3.446  13.699  0.4509  0.8984  0.7465
 9571TIP3   OH250127   1.525   2.374  12.854 -0.1557 -0.3607 -0.3998
 9571TIP3    H150128   1.457   2.415  12.909  0.2686 -3.1537  2.4687
 9571TIP3    H250129   1.580   2.447  12.827 -3.1032  1.7668 -1.2234
 9572TIP3   OH250130   0.235   5.731  12.466 -0.8260  0.6981 -0.3040
 9572TIP3    H150131   0.271   5.763  12.383 -0.6773  3.0259  0.5568
 9572TIP3    H250132   0.140   5.738  12.456 -0.8107  0.8917 -0.3251
 9573TIP3   OH250133   5.826   0.973   2.139 -0.0820 -0.1167  0.3683
 9573TIP3    H150134   5.895   0.909   2.122 -0.7985 -0.6150 -0.7594
 9573TIP3    H250135   5.845   1.006   2.227  1.2251 -0.6921  0.3243
 9574TIP3   OH250136   2.806   0.215  14.377  0.1047 -0.3305 -0.5158
 9574TIP3    H150137   2.738   0.193  14.440  1.1724  1.0845  1.2117
 9574TIP3    H250138   2.849   0.132  14.358 -0.1126 -0.7489  0.7762
 9575TIP3   OH250139   1.662   6.398  17.009 -0.3572  0.2759  0.2310
 9575TIP3    H150140   1.649   6.413  16.915  0.1857  0.6043  0.2021
 9575TIP3    H250141   1.583   6.352  17.037 -1.2070  1.4967 -0.0720
 9576TIP3   OH250142   0.009   2.654  12.223 -0.0817 -0.5088  0.3990
 9576TIP3    H150143  -0.073   2.654  12.272 -1.6249 -4.3358 -1.8168
 9576TIP3    H250144   0.074   2.624  12.287 -0.9405 -0.2937  1.4194
 9577TIP3   OH250145   2.105   1.627   2.730  0.1066 -0.0940 -0.3030
 9577TIP3    H150146   2.013   1.643   2.751  0.5480 -0.0346  1.7837
 9577TIP3    H250147   2.108   1.535   2.705 -0.6964  0.2304 -1.7320
 9578TIP3   OH250148   1.798   5.877  13.981 -0.4032 -0.2209 -0.8548
 9578TIP3    H150149   1.730   5.809  13.987 -0.0143 -0.6323 -1.0302
 9578TIP3    H250150   1.879   5.828  13.968  0.3993  0.0652  2.2468
 9579TIP3   OH250151   5.031   4.144  16.098  0.0460  0.5828 -0.1851
 9579TIP3    H150152   5.050   4.053  16.078 -0.9066  0.2830  0.2007
 9579TIP3    H250153   5.115   4.182  16.124  0.2242 -0.5237  0.9277
 9580TIP3   OH250154   1.954   3.640   2.763 -0.2051  0.5858 -0.5026
 9580TIP3    H150155   1.983   3.687   2.685 -0.4145  0.7339 -0.4925
 9580TIP3    H250156   2.034   3.626   2.813  0.2526 -1.1988 -1.6299
 9581TIP3   OH250157   0.399   6.339  12.156  0.3643  0.1070  0.4020
 9581TIP3    H150158   0.467   6.272  12.165 -0.0310 -0.1146  2.0164
 9581TIP3    H250159   0.439   6.406  12.101  1.6051 -0.4019  0.6458
 9582TIP3   OH250160   5.932   6.016  16.873 -0.0787 -0.3075  0.4183
 9582TIP3    H150161   5.903   6.053  16.790 -2.1306 -0.5705  0.9775
 9582TIP3    H250162   6.026   6.001  16.861  0.1262  1.7744 -1.0448
 9583TIP3   OH250163   3.125   0.368   5.602 -0.2528  0.0400 -0.1063
 9583TIP3    H150164   3.176   0.410   5.532 -0.2577 -0.9439 -0.7226
 9583TIP3    H250165   3.038   0.407   5.595 -0.0500  0.4848 -0.1674
 9584TIP3   OH250166   6.424   4.235   6.373  0.4183  0.0290  0.0447
 9584TIP3    H150167   6.515   4.248   6.399  0.8104  2.5080 -2.1763
 9584TIP3    H250168   6.429   4.191   6.288 -0.6070 -2.0537  0.9926
 9585TIP3   OH250169   3.821   0.123  12.303  0.0386 -0.4195 -0.2042
 9585TIP3    H150170   3.802   0.057  12.370 -0.3040 -1.8571 -1.6563
 9585TIP3    H250171   3.832   0.073  12.223 -0.4695  1.3344 -1.4223
 9586TIP3   OH250172   4.348   3.436   4.437 -0.0084  0.5450 -0.3678
 9586TIP3    H150173   4.277   3.464   4.379  1.0736 -0.3977 -2.2174
 9586TIP3    H250174   4.375   3.351   4.404  0.2383 -0.3533  1.9535
 9587TIP3   OH250175   5.097   4.672   1.380 -0.3767  0.0875 -0.3955
 9587TIP3    H150176   5.172   4.704   1.430 -0.3380 -0.4284 -0.1163
 9587TIP3    H250177   5.050   4.615   1.441  0.0040 -1.0346 -1.1301
 9588TIP3   OH250178   4.202   2.283   4.488  0.1449 -0.0439 -0.2530
 9588TIP3    H150179   4.224   2.352   4.549 -1.0842  0.1952 -0.0475
 9588TIP3    H250180   4.180   2.328   4.407 -1.7618 -0.0595  0.2020
 9589TIP3   OH250181   6.060   6.469   5.239 -0.2936 -0.2227 -0.2339
 9589TIP3    H150182   6.003   6.542   5.264  0.7311  0.5579 -0.0919
 9589TIP3    H250183   6.010   6.391   5.262 -1.5656  0.4114 -0.6990
 9590TIP3   OH250184   0.317   6.432   3.172 -0.3866  0.0172 -0.2304
 9590TIP3    H150185   0.241   6.448   3.228 -0.5963  2.0136 -1.0126
 9590TIP3    H250186   0.381   6.390   3.230 -1.2071  0.4793  1.0503
 9591TIP3   OH250187   2.345   3.609   1.899 -0.1857  0.6319 -0.1142
 9591TIP3    H150188   2.345   3.600   1.803 -0.8498  1.6370 -0.2282
 9591TIP3    H250189   2.310   3.526   1.931 -1.6333  0.9181 -0.8425
 9592TIP3   OH250190   4.331   4.049   3.422  0.0306  0.0052  0.3962
 9592TIP3    H150191   4.259   4.081   3.475 -0.9809  1.2244 -1.5917
 9592TIP3    H250192   4.289   4.015   3.343  1.5710 -0.1925 -0.3721
 9593TIP3   OH250193   3.477   0.287   5.731 -0.3333  0.0261 -0.1612
 9593TIP3    H150194   3.483   0.220   5.799 -0.6701  0.6085  0.4525
 9593TIP3    H250195   3.387   0.281   5.699  0.4116 -1.7907 -2.1977
 9594TIP3   OH250196   0.777   1.823   3.298  0.1162  0.0240 -0.3737
 9594TIP3    H150197   0.813   1.765   3.366 -1.7495 -2.6369 -1.4880
 9594TIP3    H250198   0.682   1.821   3.313 -0.1052  1.9468 -1.1901
 9595TIP3   OH250199   6.598   6.601   1.046  0.1828 -0.0234  0.1112
 9595TIP3    H150200   6.655   6.527   1.025 -0.0139  0.1988 -1.3047
 9595TIP3    H250201   6.510   6.562   1.053  0.2857 -0.1458  0.9455
 9596TIP3   OH250202   3.533   1.283   1.963  0.2710  0.1406  0.1850
 9596TIP3    H150203   3.627   1.300   1.960  0.3985 -0.6290 -0.5391
 9596TIP3    H250204   3.508   1.269   1.872 -0.9070  2.1092  0.1601
 9597TIP3   OH250205   6.057   6.722  13.234 -0.0679  0.1771  0.1778
 9597TIP3    H150206   6.014   6.639  13.211 -0.8802  1.0886 -1.8099
 9597TIP3    H250207   6.146   6.713  13.201  0.0295 -0.1295  0.5185
 9598TIP3   OH250208   3.789   3.739   1.508  0.1917  0.6147 -1.1143
 9598TIP3    H150209   3.753   3.743   1.596  1.5526  2.0202 -0.5880
 9598TIP3    H250210   3.844   3.660   1.508  0.8016  1.0259 -0.4347
 9599TIP3   OH250211   0.122   3.821   4.855 -0.5461  0.2164 -0.3359
 9599TIP3    H150212   0.047   3.880   4.850 -2.3903 -2.0137 -0.5708
 9599TIP3    H250213   0.129   3.799   4.948 -1.4289 -1.0599 -0.5595
 9600TIP3   OH250214   4.397   6.096  11.518 -0.1116 -0.0547  0.4970
 9600TIP3    H150215   4.327   6.037  11.545 -0.6823 -0.1792 -1.1392
 9600TIP3    H250216   4.374   6.121  11.428  2.0551 -0.2888 -0.1790
 9601TIP3   OH250217   1.766   6.596  14.672 -0.1234  0.7446  0.1620
 9601TIP3    H150218   1.845   6.543  14.670 -0.9841 -0.5949  0.3244
 9601TIP3    H250219   1.761   6.628  14.762 -0.5371 -0.4198  0.5736
 9602TIP3   OH250220   2.837   1.889   2.684 -0.2656  0.0004 -0.1707
 9602TIP3    H150221   2.855   1.871   2.592 -2.1685 -1.6284 -0.3015
 9602TIP3    H250222   2.810   1.804   2.720 -1.0016  0.8917  1.5078
 9603TIP3   OH250223   2.930   4.796  12.778 -0.2908  0.4681  0.1705
 9603TIP3    H150224   2.905   4.882  12.811 -2.0015 -0.5940  1.8830
 9603TIP3    H250225   2.953   4.746  12.857  1.9274 -0.2941 -0.8908
 9604TIP3   OH250226   2.542   5.581   3.683  0.2747  0.7501  0.0280
 9604TIP3    H150227   2.595   5.642   3.634  0.5241 -0.9144 -1.9079
 9604TIP3    H250228   2.552   5.497   3.637 -2.4566 -0.0765  0.7126
 9605TIP3   OH250229   1.966   0.203  10.888  0.0333  0.4927  0.3672
 9605TIP3    H150230   1.973   0.286  10.841 -1.2263  0.4894  0.1478
 9605TIP3    H250231   1.873   0.184  10.891  0.3271 -1.3380 -0.2985
 9606TIP3   OH250232   4.331   5.388  15.757 -0.3725  0.5601 -0.0337
 9606TIP3    H150233   4.425   5.408  15.757 -0.3252  0.3453 -0.3814
 9606TIP3    H250234   4.302   5.408  15.668 -0.4486 -0.3331 -0.2203
 9607TIP3   OH250235   0.680   1.678  14.559  0.1865  0.1133  0.2542
 9607TIP3    H150236   0.628   1.664  14.638 -0.4584  1.1910  0.0495
 9607TIP3    H250237   0.619   1.720  14.498  0.4196 -1.5013 -1.1539
 9608TIP3   OH250238   5.173   0.965   0.506  0.0092  0.2115 -0.5358
 9608TIP3    H150239   5.168   0.942   0.413 -0.1762  0.5413 -0.6093
 9608TIP3    H250240   5.232   0.900   0.544  0.5497  0.4254 -0.9974
 9609TIP3   OH250241   4.672   0.055  14.455 -0.0280  0.4632 -0.3225
 9609TIP3    H150242   4.767   0.061  14.467  0.1766 -1.8998 -0.1896
 9609TIP3    H250243   4.635   0.106  14.526  1.1846 -0.9141  1.3926
 9610TIP3   OH250244   3.440   2.705  13.834  0.2947  0.0384 -0.3218
 9610TIP3    H150245   3.393   2.782  13.801  0.0440 -0.6369 -1.5871
 9610TIP3    H250246   3.473   2.732  13.920 -1.8549  0.7422  0.3368
 9611TIP3   OH250247   2.909   2.598  11.905 -0.1285 -0.2555 -0.2216
 9611TIP3    H150248   2.923   2.593  11.999 -0.8752  0.7083 -0.0468
 9611TIP3    H250249   2.815   2.611  11.895 -0.0669 -0.4136 -1.1054
 9612TIP3   OH250250   2.534   1.430   2.394  0.0785 -0.3213  0.0765
 9612TIP3    H150251   2.531   1.371   2.318 -0.4482  0.1036 -0.2399
 9612TIP3    H250252   2.442   1.447   2.414  0.1522 -1.5708  1.7234
 9613TIP3   OH250253   0.446   6.599   6.157  0.0937 -0.9123 -0.0240
 9613TIP3    H150254   0.454   6.585   6.062 -0.9780  1.3423 -0.5283
 9613TIP3    H250255   0.486   6.685   6.172 -2.3074  0.1116  1.0265
 9614TIP3   OH250256   1.037   5.057  13.811  0.3405 -0.2575 -0.1432
 9614TIP3    H150257   1.037   5.087  13.720  1.3266 -0.1147 -0.1073
 9614TIP3    H250258   0.994   5.128  13.859  0.2350 -0.1234 -0.4304
 9615TIP3   OH250259   0.219   6.339  11.229 -0.0659 -0.6090  0.0593
 9615TIP3    H150260   0.250   6.356  11.140  1.9719 -1.1802  0.6076
 9615TIP3    H250261   0.268   6.401  11.284 -0.1198 -1.3333  0.9472
 9616TIP3   OH250262   4.703   4.715   6.092 -0.4893 -0.4688  0.3231
 9616TIP3    H150263   4.778   4.735   6.148  0.7520 -0.5784 -1.2049
 9616TIP3    H250264   4.627   4.723   6.149  0.6610 -0.0837  1.8717
 9617TIP3   OH250265   5.320   6.439  11.610  0.2676 -0.5470  0.0783
 9617TIP3    H150266   5.239   6.488  11.621 -0.2467 -1.0358 -1.2319
 9617TIP3    H250267   5.368   6.452  11.691 -0.6421  0.6443  0.4496
 9618TIP3   OH250268   3.482   4.617   1.022 -0.0062  0.4130  0.1567
 9618TIP3    H150269   3.459   4.710   1.023  0.3928  0.5370  2.5374
 9618TIP3    H250270   3.397   4.572   1.018 -0.2253  0.8596 -0.4101
 9619TIP3   OH250271   2.876   6.268   0.456  0.3258 -0.2147 -0.6323
 9619TIP3    H150272   2.872   6.207   0.382  1.5501 -0.7167 -0.2940
 9619TIP3    H250273   2.969   6.283   0.471  0.0683  1.0189 -0.1063
 9620TIP3   OH250274   5.539   0.687   4.067 -0.3190  0.1950 -0.3004
 9620TIP3    H150275   5.630   0.685   4.036 -0.0572  0.1571  0.4610
 9620TIP3    H250276   5.530   0.607   4.119 -0.6320  0.4816  0.0840
 9621TIP3   OH250277   4.460   1.799  14.069  0.2001 -0.7293  0.0204
 9621TIP3    H150278   4.547   1.760  14.078 -0.2827 -2.5149 -2.1102
 9621TIP3    H250279   4.418   1.784  14.154  1.4622 -1.1497  0.5975
 9622TIP3   OH250280   6.050   4.907   4.431 -0.1542  0.2249  0.8828
 9622TIP3    H150281   6.129   4.866   4.466  0.1964  0.2887  0.1961
 9622TIP3    H250282   6.061   4.901   4.336 -0.9436  0.3047  0.7837
 9623TIP3   OH250283   0.218   5.819   5.138  0.2106  0.4852  0.5337
 9623TIP3    H150284   0.273   5.883   5.093  1.2619 -1.7288 -1.5604
 9623TIP3    H250285   0.279   5.753   5.170 -0.7871  0.7037  3.1080
 9624TIP3   OH250286   4.170   1.230   6.277  0.2074  0.2177 -0.0746
 9624TIP3    H150287   4.221   1.162   6.321  3.0600  2.1018 -0.2369
 9624TIP3    H250288   4.195   1.311   6.321  0.1069  1.6857 -2.5663
 9625TIP3   OH250289   3.571   1.236   4.171  0.2325 -0.9684  0.2437
 9625TIP3    H150290   3.552   1.154   4.216 -0.1322 -0.5943  0.7836
 9625TIP3    H250291   3.629   1.211   4.099 -0.1641 -1.7505  0.1808
 9626TIP3   OH250292   4.163   1.192  12.836  0.1503 -0.2463  0.1807
 9626TIP3    H150293   4.253   1.164  12.850 -0.0512 -2.0280 -1.5653
 9626TIP3    H250294   4.113   1.111  12.830 -1.1103  0.5865 -1.5302
 9627TIP3   OH250295   5.558   4.129  12.368  0.7209 -0.1999 -0.4057
 9627TIP3    H150296   5.612   4.118  12.446 -0.0056  1.5062  0.4052
 9627TIP3    H250297   5.514   4.214  12.381  0.6930  0.2218 -2.7379
 9628TIP3   OH250298   0.763   3.451   1.245 -0.0802  0.8268 -0.4098
 9628TIP3    H150299   0.748   3.375   1.188 -1.4675  1.6967 -1.2623
 9628TIP3    H250300   0.795   3.412   1.327 -0.5308 -0.6753 -0.8969
 9629TIP3   OH250301   4.330   6.691   5.463 -0.3556 -0.1437 -0.2923
 9629TIP3    H150302   4.249   6.742   5.467 -0.5738 -0.2624 -2.2855
 9629TIP3    H250303   4.399   6.754   5.482 -0.7024  0.6988 -1.7293
 9630TIP3   OH250304   2.457   1.745   1.069  0.7737  0.0368 -0.4423
 9630TIP3    H150305   2.433   1.820   1.124  1.6332 -0.4059  0.5782
 9630TIP3    H250306   2.392   1.678   1.089 -1.1268  1.0783 -2.7419
 9631TIP3   OH250307   0.678   6.228   5.662 -0.6317  0.0682 -0.2042
 9631TIP3    H150308   0.669   6.227   5.757 -0.2785 -2.0708 -0.1281
 9631TIP3    H250309   0.773   6.217   5.647 -0.6867  0.3482 -0.7933
 9632TIP3   OH250310   3.746   3.172   1.333  0.4111  0.6215  0.4362
 9632TIP3    H150311   3.751   3.076   1.326  1.4613  0.3708  3.4215
 9632TIP3    H250312   3.661   3.194   1.295  0.0247 -1.5035 -0.0767
 9633TIP3   OH250313   3.758   5.177   5.562  0.1888 -0.1386 -0.2910
 9633TIP3    H150314   3.742   5.085   5.581  1.9498 -0.5984 -0.8845
 9633TIP3    H250315   3.853   5.187   5.568 -0.0194  1.8376  0.5631
 9634TIP3   OH250316   4.643   6.108  13.746  0.1009 -0.8024  0.0612
 9634TIP3    H150317   4.608   6.197  13.749  0.6532 -0.6008  1.5883
 9634TIP3    H250318   4.566   6.052  13.736 -0.4061 -0.2311  0.7046
 9635TIP3   OH250319   4.678   0.571  16.213  0.5227 -0.6708 -0.5488
 9635TIP3    H150320   4.749   0.630  16.191 -0.5092 -0.0540 -2.4456
 9635TIP3    H250321   4.711   0.519  16.286  1.6667  1.8549  0.8519
 9636TIP3   OH250322   2.309   1.971  15.783 -0.5405  0.1890  0.2271
 9636TIP3    H150323   2.226   2.002  15.819  0.3104  0.0325  2.5048
 9636TIP3    H250324   2.376   2.011  15.838  0.8101 -1.3241 -0.2223
 9637TIP3   OH250325   0.097   1.592   5.258 -0.5479  0.3201 -0.2652
 9637TIP3    H150326   0.186   1.560   5.242 -1.2465 -1.6600 -0.4741
 9637TIP3    H250327   0.091   1.673   5.207  1.2961  0.8189  0.2296
 9638TIP3   OH250328   2.889   2.481   4.287  0.6598 -0.5467 -0.2381
 9638TIP3    H150329   2.898   2.388   4.310 -2.6641 -1.4439 -1.9868
 9638TIP3    H250330   2.809   2.509   4.332  2.2603  1.9298  1.2936
 9639TIP3   OH250331   5.797   0.377  15.169 -0.1309  0.4012 -0.5005
 9639TIP3    H150332   5.751   0.443  15.221  0.4973 -0.2689  0.9599
 9639TIP3    H250333   5.878   0.420  15.142  0.4721  0.1312  0.8024
 9640TIP3   OH250334   2.451   5.563  12.242  0.7287  0.2284 -0.1521
 9640TIP3    H150335   2.394   5.500  12.198 -0.6514  1.6444 -0.4766
 9640TIP3    H250336   2.391   5.621  12.288  1.8801  2.0782 -0.8953
 9641TIP3   OH250337   5.597   0.387  11.704  0.1864 -0.4477 -0.0687
 9641TIP3    H150338   5.617   0.382  11.798  1.2709  1.1974 -0.1694
 9641TIP3    H250339   5.594   0.481  11.686 -0.6963 -0.7368 -1.5639
 9642TIP3   OH250340   4.015   3.926   0.056 -0.0772  0.5298 -0.0811
 9642TIP3    H150341   3.920   3.935   0.043 -0.1612  0.0435  0.1788
 9642TIP3    H250342   4.041   4.007   0.100 -0.2548  0.9607 -0.7365
 9643TIP3   OH250343   1.656   3.952   0.672 -0.7627  0.0413  0.0788
 9643TIP3    H150344   1.724   3.898   0.712 -1.5890 -0.8647  0.3048
 9643TIP3    H250345   1.579   3.937   0.726 -1.1448  1.0701 -0.1593
 9644TIP3   OH250346   1.875   4.636   2.062 -0.5626 -0.2162 -0.2166
 9644TIP3    H150347   1.806   4.572   2.045  1.1491 -1.8376 -1.3250
 9644TIP3    H250348   1.956   4.587   2.057  0.8178  1.9803 -0.7845
 9645TIP3   OH250349   1.824   5.344  14.695 -0.1673 -0.1959  0.4517
 9645TIP3    H150350   1.759   5.292  14.743 -1.4625 -0.0855 -1.1097
 9645TIP3    H250351   1.908   5.311  14.725 -0.9550 -2.0280  0.7517
 9646TIP3   OH250352   3.844   5.970   0.656 -0.6946 -0.7850 -0.3368
 9646TIP3    H150353   3.902   6.042   0.682 -3.0907  1.7489 -1.4795
 9646TIP3    H250354   3.797   5.946   0.736 -1.3042  0.3667 -0.3305
 9647TIP3   OH250355   3.203   6.512  11.884 -0.2592 -0.1254 -0.1800
 9647TIP3    H150356   3.122   6.562  11.893 -0.0913 -0.0080  0.8668
 9647TIP3    H250357   3.177   6.421  11.898 -0.3509 -0.1860 -0.7386
 9648TIP3   OH250358   2.247   2.591   3.487 -0.0313 -0.6492  0.0526
 9648TIP3    H150359   2.310   2.660   3.507  0.2034 -1.0778  0.8272
 9648TIP3    H250360   2.292   2.535   3.424  1.0434 -1.8864  1.8293
 9649TIP3   OH250361   0.973   0.008  16.879 -0.4368  0.1563  0.8473
 9649TIP3    H150362   0.897   0.047  16.836 -2.0348 -1.9639  1.6140
 9649TIP3    H250363   0.941  -0.074  16.916  1.7696  0.0944  2.8799
 9650TIP3   OH250364   0.160   1.884  11.465  0.2551  0.0026  0.0859
 9650TIP3    H150365   0.148   1.930  11.382 -0.5445  0.0442  0.2106
 9650TIP3    H250366   0.079   1.901  11.513  1.6969  2.0742  1.9123
 9651TIP3   OH250367   3.803   1.500  12.895  0.2257 -0.2089  0.2392
 9651TIP3    H150368   3.841   1.441  12.960  1.2531 -0.2966 -0.4126
 9651TIP3    H250369   3.864   1.574  12.891  0.5742 -0.5414 -1.1295
 9652TIP3   OH250370   4.887   1.239   3.576 -0.3967 -0.6831 -0.2559
 9652TIP3    H150371   4.914   1.177   3.643 -0.6652  1.0496  1.5594
 9652TIP3    H250372   4.956   1.305   3.573 -1.4120  0.4476 -0.0438
 9653TIP3   OH250373   3.750   1.929   1.262 -0.5458  0.4398 -0.4303
 9653TIP3    H150374   3.696   1.975   1.197 -0.9344  1.0366  0.3033
 9653TIP3    H250375   3.722   1.838   1.257  1.0159 -0.0248 -2.7292
 9654TIP3   OH250376   4.609   1.560   0.562  0.7552 -0.9852  0.1946
 9654TIP3    H150377   4.663   1.519   0.494 -0.0898 -0.0662 -1.0906
 9654TIP3    H250378   4.539   1.604   0.513 -0.5096 -1.1937  1.7458
 9655TIP3   OH250379   2.076   6.201   3.668 -0.6218  0.0987  0.4057
 9655TIP3    H150380   2.027   6.282   3.682  1.0138  1.2911 -0.4810
 9655TIP3    H250381   2.166   6.229   3.655  0.1467 -1.9493  0.9053
 9656TIP3   OH250382   2.158   2.263   2.991  0.5144  0.2452 -0.2073
 9656TIP3    H150383   2.121   2.188   2.943  0.5079  1.5128 -2.3047
 9656TIP3    H250384   2.095   2.333   2.978  1.9822  1.4803 -0.9322
 9657TIP3   OH250385   0.560   2.432   6.395  0.2508 -0.4227  0.1384
 9657TIP3    H150386   0.560   2.469   6.483 -1.3565  1.2486 -0.4989
 9657TIP3    H250387   0.467   2.425   6.372  0.4553 -4.1533 -0.1559
 9658TIP3   OH250388   0.465   4.478   4.495  0.1280 -0.6203 -0.2659
 9658TIP3    H150389   0.432   4.534   4.564 -2.0117 -1.9791 -0.0947
 9658TIP3    H250390   0.504   4.403   4.541  1.4596 -0.1301 -0.5282
 9659TIP3   OH250391   3.732   3.937  17.033 -0.2268  0.2568  0.1091
 9659TIP3    H150392   3.688   3.933  17.118  0.5901  0.5000  0.5591
 9659TIP3    H250393   3.735   4.030  17.012  0.6856  0.3010  0.4191
 9660TIP3   OH250394   5.629   0.375  13.374 -0.2089  0.0928 -0.6510
 9660TIP3    H150395   5.604   0.316  13.304 -0.0187  0.0081 -0.6491
 9660TIP3    H250396   5.682   0.443  13.332 -0.6207  0.3924 -0.6907
 9661TIP3   OH250397   1.311   2.873  13.782 -0.3807 -0.0535  0.2683
 9661TIP3    H150398   1.364   2.828  13.716  0.0559  0.3637  0.3321
 9661TIP3    H250399   1.262   2.939  13.733 -0.7626 -0.3675  0.2254
 9662TIP3   OH250400   1.229   2.039   4.988  0.0917 -0.4124  0.0132
 9662TIP3    H150401   1.148   2.089   4.985 -0.2548 -0.9513  0.2165
 9662TIP3    H250402   1.262   2.040   4.898  0.2525  0.4368  0.0785
 9663TIP3   OH250403   4.035   2.658   3.458 -0.0431  0.1511  0.4236
 9663TIP3    H150404   3.965   2.611   3.413 -0.2713  0.7334  0.1724
 9663TIP3    H250405   4.102   2.674   3.391 -0.2034  0.6593  0.3826
 9664TIP3   OH250406   3.568   3.198   3.994 -0.5995  0.2153  0.0742
 9664TIP3    H150407   3.527   3.147   3.924 -0.1159  0.1922 -0.2004
 9664TIP3    H250408   3.498   3.216   4.056 -0.7445 -0.9277  0.2572
 9665TIP3   OH250409   4.513   0.047   2.849  0.2182  0.5681  0.3034
 9665TIP3    H150410   4.557   0.092   2.921  2.2676 -0.5749 -0.1772
 9665TIP3    H250411   4.583   0.022   2.789 -1.3086  0.4078 -1.5143
 9666TIP3   OH250412   6.289   1.270   2.639  0.3052 -0.0575 -0.1503
 9666TIP3    H150413   6.321   1.193   2.592  0.6131  0.3947 -0.6852
 9666TIP3    H250414   6.210   1.296   2.592 -0.5338 -0.7977  0.7949
 9667TIP3   OH250415   5.305   4.986  12.359 -0.3127 -0.4496  0.0341
 9667TIP3    H150416   5.241   5.049  12.326  0.4442  0.6592  0.6282
 9667TIP3    H250417   5.328   5.018  12.446 -0.2461 -1.8175  0.5401
 9668TIP3   OH250418   5.553   1.902   1.878 -0.3487  0.5468 -0.1910
 9668TIP3    H150419   5.607   1.870   1.806 -0.8863  0.5225 -0.5943
 9668TIP3    H250420   5.496   1.967   1.837  0.4519  1.7407  0.5304
 9669TIP3   OH250421   1.894   2.503  14.827  0.1793  0.0353  0.5813
 9669TIP3    H150422   1.826   2.439  14.805 -2.1196  2.4699  0.1549
 9669TIP3    H250423   1.940   2.519  14.745  0.1501 -0.3590  0.4857
 9670TIP3   OH250424   5.308   2.572  13.642  0.0689  0.7839  0.4586
 9670TIP3    H150425   5.323   2.664  13.666 -2.4630  1.4186 -0.0883
 9670TIP3    H250426   5.286   2.575  13.549 -0.7792 -0.2781  0.6072
 9671TIP3   OH250427   5.553   6.584   3.958 -0.1322  0.1738 -0.1197
 9671TIP3    H150428   5.620   6.651   3.945  0.9492 -0.8159  0.2409
 9671TIP3    H250429   5.568   6.552   4.047  0.8028 -2.0902 -1.0206
 9672TIP3   OH250430   4.122   0.765   2.308 -0.2121  0.1818 -0.6721
 9672TIP3    H150431   4.113   0.733   2.218  0.8773 -1.4793 -0.2270
 9672TIP3    H250432   4.111   0.688   2.363  0.1457  0.9912  0.5860
 9673TIP3   OH250433   5.459   5.484  12.736  0.7496  0.1251 -0.6810
 9673TIP3    H150434   5.507   5.488  12.653  0.9833  1.3778 -0.5079
 9673TIP3    H250435   5.521   5.449  12.799  0.9768  0.3691 -0.7681
 9674TIP3   OH250436   2.584   6.132   2.221  0.0984  0.5212 -0.2967
 9674TIP3    H150437   2.596   6.112   2.313  1.9777  0.4783 -0.5182
 9674TIP3    H250438   2.521   6.205   2.220  1.2099  1.5586  1.1086
 9675TIP3   OH250439   3.494   3.635   3.821  0.2484 -0.1909  0.1139
 9675TIP3    H150440   3.514   3.570   3.754 -1.3682 -1.3124  0.6414
 9675TIP3    H250441   3.517   3.591   3.903  0.0184  0.2644  0.4233
 9676TIP3   OH250442   6.128   4.506  14.435 -0.3841  0.2424  0.0047
 9676TIP3    H150443   6.035   4.522  14.416 -0.4232 -0.1879 -0.1628
 9676TIP3    H250444   6.134   4.513  14.531 -0.2994  1.7872 -0.0741
 9677TIP3   OH250445   0.358   5.558  13.483  0.1178 -0.4585  0.5765
 9677TIP3    H150446   0.276   5.596  13.511 -0.5761 -1.4994  0.0268
 9677TIP3    H250447   0.357   5.565  13.387  1.7549  1.6596  0.6611
 9678TIP3   OH250448   1.189   0.479   4.227 -0.1928 -0.0250 -0.5971
 9678TIP3    H150449   1.159   0.569   4.216  0.1836  0.0100 -1.4931
 9678TIP3    H250450   1.164   0.455   4.316  2.3334  1.9774  0.7760
 9679TIP3   OH250451   0.396   3.097   4.107 -0.7443  0.1601  0.2096
 9679TIP3    H150452   0.310   3.135   4.123 -0.2035  1.5741 -0.1205
 9679TIP3    H250453   0.381   3.002   4.107 -2.2993  0.3905  0.0821
 9680TIP3   OH250454   1.082   4.248   1.950 -0.4166 -0.2037  0.5473
 9680TIP3    H150455   1.172   4.233   1.976 -0.1544 -0.5315 -0.5079
 9680TIP3    H250456   1.052   4.319   2.007  1.9840  3.2594 -2.0717
 9681TIP3   OH250457   6.308   3.627  16.273 -0.1506  0.4111  0.3981
 9681TIP3    H150458   6.261   3.544  16.272  0.5244  0.0230  0.5888
 9681TIP3    H250459   6.306   3.655  16.365 -0.1902  0.4993  0.3706
 9682TIP3   OH250460   2.729   0.122  17.053  0.0681 -0.3715  1.1970
 9682TIP3    H150461   2.748   0.215  17.039  0.5892 -0.5112  0.9632
 9682TIP3    H250462   2.669   0.099  16.982 -0.0546 -0.2177  1.2502
 9683TIP3   OH250463   0.626   2.483   0.439  0.1763 -0.0618  0.3473
 9683TIP3    H150464   0.642   2.426   0.514 -0.8281  0.6209  1.1103
 9683TIP3    H250465   0.700   2.544   0.438  0.9351 -0.9673 -0.1034
 9684TIP3   OH250466   6.060   5.634  17.298  0.0152 -0.7865 -0.1528
 9684TIP3    H150467   5.984   5.578  17.280 -1.6582  0.1923  3.0656
 9684TIP3    H250468   6.118   5.580  17.351 -0.9991 -0.0375  1.8479
 9685TIP3   OH250469   1.890   0.964  16.372  0.4067  0.2602  0.2994
 9685TIP3    H150470   1.819   0.922  16.420  0.9726 -0.5582  0.4632
 9685TIP3    H250471   1.909   1.044  16.421 -0.4946  0.5622  0.1663
 9686TIP3   OH250472   3.633   1.390  15.718 -0.9368  0.0473 -0.8986
 9686TIP3    H150473   3.663   1.355  15.634  0.8014 -0.4901 -0.1008
 9686TIP3    H250474   3.591   1.316  15.761  1.4959 -0.7658  0.2084
 9687TIP3   OH250475   6.196   3.770  17.166  0.2256 -0.2884 -0.3045
 9687TIP3    H150476   6.103   3.750  17.180 -0.2259  1.0459 -1.1689
 9687TIP3    H250477   6.236   3.687  17.141 -1.0807 -0.5644 -1.5703
 9688TIP3   OH250478   0.419   3.308  13.481 -0.3933  0.6068  0.1876
 9688TIP3    H150479   0.359   3.332  13.552 -0.0827  0.3413  0.5477
 9688TIP3    H250480   0.441   3.391  13.439 -0.2352  0.8271  0.6876
 9689TIP3   OH250481   2.284   5.815  17.353 -0.0888 -0.3000 -0.5025
 9689TIP3    H150482   2.333   5.763  17.288  0.8473  0.7997 -0.6994
 9689TIP3    H250483   2.318   5.904  17.343 -0.6630  0.0822  0.8064
 9690TIP3   OH250484   6.331   1.717   5.387 -0.1310 -0.1977  0.0811
 9690TIP3    H150485   6.283   1.680   5.460  3.4843 -3.4976  1.0944
 9690TIP3    H250486   6.291   1.678   5.309 -0.4625 -1.1983  0.7354
 9691TIP3   OH250487   2.061   0.071  16.536 -0.2007  0.2229 -0.6668
 9691TIP3    H150488   2.104  -0.011  16.512  0.7695  0.8058 -0.9538
 9691TIP3    H250489   2.090   0.088  16.626  0.4362  0.7827 -0.9731
 9692TIP3   OH250490   6.305   6.450   0.076  0.3103  0.3118 -0.2088
 9692TIP3    H150491   6.270   6.361   0.078  1.0753  0.0032  0.1755
 9692TIP3    H250492   6.336   6.462  -0.014 -0.8695  0.6415 -0.5916
 9693TIP3   OH250493   5.874   3.691   4.734  0.5463  0.0969  0.1575
 9693TIP3    H150494   5.795   3.707   4.682 -0.5685 -2.2164  0.9866
 9693TIP3    H250495   5.875   3.596   4.747  2.1568  0.3309  2.2206
 9694TIP3   OH250496   0.276   5.584   0.382  0.9330  0.0070 -0.0534
 9694TIP3    H150497   0.246   5.658   0.329  1.5328  1.1215  1.1131
 9694TIP3    H250498   0.291   5.513   0.319 -0.9290  0.4426 -1.0393
 9695TIP3   OH250499   1.345   3.567  16.576  0.3425 -0.3491  0.2567
 9695TIP3    H150500   1.266   3.610  16.608 -0.9092 -0.9837 -1.7957
 9695TIP3    H250501   1.393   3.544  16.655 -0.3157  2.2017  1.5045
 9696TIP3   OH250502   2.158   4.473   3.615  0.0314 -0.0511 -0.3125
 9696TIP3    H150503   2.213   4.399   3.639 -1.7205 -2.0082 -1.8396
 9696TIP3    H250504   2.177   4.487   3.522  1.3947  2.4695  0.2741
 9697TIP3   OH250505   3.007   6.193   1.665 -0.5613 -0.0657  0.4008
 9697TIP3    H150506   2.939   6.227   1.606  1.4515  0.7360 -1.6474
 9697TIP3    H250507   3.024   6.105   1.633 -0.8463 -0.3827  1.1159
 9698TIP3   OH250508   0.803   4.271   3.691 -0.3723 -0.2807  0.1904
 9698TIP3    H150509   0.813   4.212   3.617 -2.6012  0.3643 -0.7089
 9698TIP3    H250510   0.752   4.221   3.755 -1.4869  0.3022 -0.2068
 9699TIP3   OH250511   3.229   3.440   1.631 -0.3837  0.6096  0.6329
 9699TIP3    H150512   3.138   3.411   1.643  0.0844 -1.2533  0.0926
 9699TIP3    H250513   3.225   3.499   1.556 -0.8822 -1.1430 -0.7803
 9700TIP3   OH250514   3.116   2.612  14.487  0.4114  0.2620 -0.0881
 9700TIP3    H150515   3.108   2.619  14.392  0.9568 -0.7234 -0.2180
 9700TIP3    H250516   3.206   2.585  14.502  0.2122 -0.0014  0.6840
 9701TIP3   OH250517   3.347   5.175  13.738  0.0699 -0.1995  0.5866
 9701TIP3    H150518   3.405   5.234  13.786 -0.2927  0.1674  0.5756
 9701TIP3    H250519   3.265   5.175  13.788 -0.5351  0.6881 -0.3597
 9702TIP3   OH250520   5.982   5.365  16.478  0.2100 -0.7939 -0.0898
 9702TIP3    H150521   5.968   5.455  16.449  0.1879 -0.4782  0.8646
 9702TIP3    H250522   5.993   5.372  16.573 -1.6336 -1.9963  0.2586
 9703TIP3   OH250523   4.379   1.487   6.117  0.1615  0.0296 -0.3997
 9703TIP3    H150524   4.348   1.473   6.206 -0.7045  0.8075 -0.5687
 9703TIP3    H250525   4.474   1.498   6.126 -0.0371  1.1029  0.5494
 9704TIP3   OH250526   0.880   1.391   3.557 -0.3576  0.2484  0.2851
 9704TIP3    H150527   0.870   1.380   3.463 -0.8690  0.9740  0.2448
 9704TIP3    H250528   0.876   1.302   3.592  0.3474 -0.0737 -0.4101
 9705TIP3   OH250529   4.532   3.819  13.353 -0.1207  0.1587 -0.1260
 9705TIP3    H150530   4.591   3.811  13.278 -1.6475 -2.0297 -1.1961
 9705TIP3    H250531   4.572   3.762  13.420 -0.9851 -1.4111 -0.8885
 9706TIP3   OH250532   1.511   3.960   0.180  0.1377 -0.2812  0.9540
 9706TIP3    H150533   1.527   4.046   0.141  1.5875 -0.3006  1.4757
 9706TIP3    H250534   1.449   3.918   0.119 -0.3166  0.9770  0.5091
 9707TIP3   OH250535   3.611   0.786  14.647  0.1123 -0.3901  0.5781
 9707TIP3    H150536   3.678   0.759  14.709  2.8713  1.8571 -1.1648
 9707TIP3    H250537   3.542   0.826  14.700  1.1190 -0.9125  2.3296
 9708TIP3   OH250538   3.365   6.737   4.354  0.0729 -0.2151 -0.3223
 9708TIP3    H150539   3.380   6.720   4.447  0.6397  0.4354 -0.2874
 9708TIP3    H250540   3.452   6.756   4.318 -0.2504  0.4168 -0.7959
 9709TIP3   OH250541   2.388   2.703   2.005 -0.0756 -0.5061 -0.5603
 9709TIP3    H150542   2.359   2.622   1.965 -1.2227  0.8876 -2.7336
 9709TIP3    H250543   2.320   2.767   1.983  1.9975  1.6514 -1.2020
 9710TIP3   OH250544   2.068   1.708  11.692  0.7321  0.2600  0.1497
 9710TIP3    H150545   1.974   1.697  11.683  0.4105  2.1835  0.6559
 9710TIP3    H250546   2.094   1.758  11.615  1.0465  1.0766  0.7663
 9711TIP3   OH250547   3.279   4.988  16.773 -0.3991  0.0846 -0.0804
 9711TIP3    H150548   3.348   5.052  16.788 -0.6068  0.6264 -1.2575
 9711TIP3    H250549   3.298   4.916  16.832  0.8106  0.5046  0.0531
 9712TIP3   OH250550   3.565   4.007   0.395  0.3302 -0.6553  0.3323
 9712TIP3    H150551   3.569   4.098   0.364  2.3646 -0.5765  0.6831
 9712TIP3    H250552   3.479   3.975   0.366 -0.4169  1.3630  0.1966
 9713TIP3   OH250553   5.518   2.150  15.712  0.2577 -0.6662  0.0040
 9713TIP3    H150554   5.463   2.189  15.644  1.3322 -0.1062 -0.5889
 9713TIP3    H250555   5.462   2.144  15.789 -1.4153 -2.5320 -1.2541
 9714TIP3   OH250556   4.371   4.576  13.933  0.3029 -0.0745 -0.7376
 9714TIP3    H150557   4.377   4.569  13.837 -0.6219  0.2851 -0.8357
 9714TIP3    H250558   4.278   4.591  13.950  0.0967 -2.2069  0.3640
 9715TIP3   OH250559   4.374   6.095  14.789  0.3765  0.8939  0.0145
 9715TIP3    H150560   4.307   6.124  14.727 -0.7776  0.3323  0.9562
 9715TIP3    H250561   4.421   6.025  14.744 -0.1510  0.8002 -0.3947
 9716TIP3   OH250562   1.214   5.848   2.470 -0.7374  0.2265  0.0191
 9716TIP3    H150563   1.139   5.822   2.417 -0.1991  0.3944 -0.8445
 9716TIP3    H250564   1.199   5.805   2.555 -0.7489 -1.4995 -0.7978
 9717TIP3   OH250565   1.952   0.326  12.649 -0.1780  0.2322  0.5612
 9717TIP3    H150566   1.859   0.339  12.668  0.0880  1.1911  1.2517
 9717TIP3    H250567   1.986   0.280  12.726  0.2080  1.1474  0.9449
 9718TIP3   OH250568   4.995   0.789  11.413  0.2099  0.2542  0.3510
 9718TIP3    H150569   5.012   0.700  11.383 -3.7745  0.4826 -3.8372
 9718TIP3    H250570   5.068   0.841  11.379  0.6103 -0.9588 -0.7150
 9719TIP3   OH250571   4.842   1.250   6.818  0.1226 -0.0481 -0.0278
 9719TIP3    H150572   4.835   1.304   6.739 -0.6725 -0.3628 -0.1904
 9719TIP3    H250573   4.868   1.164   6.786  0.5889  0.0289  0.1425
 9720TIP3   OH250574   0.267   3.578  13.339  0.3817 -0.2157 -0.2402
 9720TIP3    H150575   0.343   3.576  13.280  1.2041 -0.3785  0.7884
 9720TIP3    H250576   0.284   3.653  13.396 -0.1007 -0.4150  0.1640
 9721TIP3   OH250577   4.041   1.166  11.175 -0.6484 -0.3328 -0.0198
 9721TIP3    H150578   4.131   1.136  11.184 -0.5129  0.0021 -0.2457
 9721TIP3    H250579   4.046   1.241  11.116 -0.8875  0.6101  1.1318
 9722TIP3   OH250580   0.802   3.314   2.012  0.1922  0.0304  0.0372
 9722TIP3    H150581   0.870   3.378   2.030 -0.8886  0.6716  2.2383
 9722TIP3    H250582   0.837   3.232   2.047  1.6978 -0.7988 -3.0380
 9723TIP3   OH250583   4.353   2.712  12.759 -0.2709  0.1085 -0.1573
 9723TIP3    H150584   4.357   2.726  12.854 -1.5164  0.0425 -0.0708
 9723TIP3    H250585   4.265   2.676  12.744 -0.3077  0.6607 -1.4071
 9724TIP3   OH250586   3.163   3.403   0.525  0.3210 -0.6096 -0.5256
 9724TIP3    H150587   3.194   3.370   0.441  1.0609 -0.9911 -0.1081
 9724TIP3    H250588   3.238   3.393   0.584 -0.5446 -1.4373  0.4687
 9725TIP3   OH250589   1.456   0.650   4.953  0.3329 -0.1381  0.0368
 9725TIP3    H150590   1.506   0.670   5.032  1.7604  0.9285 -1.1022
 9725TIP3    H250591   1.400   0.726   4.940  0.0621 -0.3367  0.0123
 9726TIP3   OH250592   0.657   1.712   5.444 -0.0875 -0.5510  0.1336
 9726TIP3    H150593   0.728   1.648   5.452  1.5056  1.1532  0.3724
 9726TIP3    H250594   0.643   1.721   5.349 -0.7685 -1.6763  0.1124
 9727TIP3   OH250595   4.369   1.957   0.825  0.5269  0.0614  0.1380
 9727TIP3    H150596   4.416   2.006   0.758 -1.3246  1.0898 -0.4656
 9727TIP3    H250597   4.282   1.996   0.828 -0.3718 -1.8433  1.1149
 9728TIP3   OH250598   4.378   1.121   4.973 -0.3407 -0.1589 -0.4627
 9728TIP3    H150599   4.306   1.161   4.924  0.3561  0.9785 -0.5661
 9728TIP3    H250600   4.434   1.082   4.907 -1.0185 -1.3637 -0.3623
 9729TIP3   OH250601   3.930   0.568   0.050 -0.3323  0.1189 -0.2224
 9729TIP3    H150602   3.943   0.631  -0.021  1.8000  1.4393  1.2384
 9729TIP3    H250603   3.879   0.617   0.115 -0.7120 -0.4902 -0.0540
 9730TIP3   OH250604   1.256   0.510   1.932 -0.0967  0.8278  0.2657
 9730TIP3    H150605   1.176   0.515   1.984 -1.3805  0.9165 -1.6257
 9730TIP3    H250606   1.279   0.417   1.933  0.3317  0.9263  1.5605
 9731TIP3   OH250607   2.904   2.628  12.194  0.5931 -0.1990  0.3434
 9731TIP3    H150608   2.826   2.642  12.247  0.9579  0.7638  0.6491
 9731TIP3    H250609   2.944   2.550  12.232 -0.1570 -0.6341  0.2565
 9732TIP3   OH250610   3.543   6.452   5.586  0.8489 -0.0619 -0.1724
 9732TIP3    H150611   3.474   6.386   5.578  0.2443  0.5455 -0.0707
 9732TIP3    H250612   3.621   6.410   5.549  0.1956 -0.4025 -1.2128
 9733TIP3   OH250613   1.035   3.526   0.713  0.3572  0.5384 -0.3275
 9733TIP3    H150614   1.052   3.450   0.768  0.8846  0.1747 -0.9710
 9733TIP3    H250615   1.002   3.592   0.773 -1.1074 -0.5178  0.0759
 9734TIP3   OH250616   3.819   2.206  17.292 -0.7233  0.9770  0.0156
 9734TIP3    H150617   3.874   2.282  17.273  2.1648 -0.8714  0.3342
 9734TIP3    H250618   3.803   2.167  17.207 -2.4013  1.9812 -0.1725
 9735TIP3   OH250619   0.285   6.524   5.394 -0.2398  0.0574 -0.2140
 9735TIP3    H150620   0.325   6.551   5.477 -1.3281  0.5814  0.1657
 9735TIP3    H250621   0.206   6.477   5.421  0.5228 -1.6968 -0.9152
 9736TIP3   OH250622   5.703   5.352   5.009  0.3181  0.2882  0.6555
 9736TIP3    H150623   5.633   5.307   4.963  0.1610  0.0068  1.1644
 9736TIP3    H250624   5.783   5.324   4.965  0.0905  0.9206 -0.1831
 9737TIP3   OH250625   6.324   4.107   1.569  0.2163  0.1956  0.1063
 9737TIP3    H150626   6.387   4.103   1.497  1.7295 -0.4777  1.4036
 9737TIP3    H250627   6.328   4.020   1.609  1.3081  1.2692  2.5024
 9738TIP3   OH250628   3.448   4.137   0.007 -0.4751 -0.0850 -0.1382
 9738TIP3    H150629   3.493   4.154  -0.076 -0.6888 -0.9093 -0.4334
 9738TIP3    H250630   3.518   4.140   0.073  0.2587 -2.4277 -0.7130
 9739TIP3   OH250631   0.094   6.704   1.730  0.4848  0.3589 -0.4291
 9739TIP3    H150632   0.065   6.642   1.797  0.8107 -0.2370 -0.8316
 9739TIP3    H250633   0.142   6.771   1.778 -0.8560  0.9490  0.1585
 9740TIP3   OH250634   2.652   6.040   0.352  0.5791  0.4615 -0.3838
 9740TIP3    H150635   2.740   6.019   0.386 -0.1267 -1.9860  0.1618
 9740TIP3    H250636   2.638   5.976   0.282 -1.7129 -0.9486  1.2298
 9741TIP3   OH250637   6.677   0.101   2.145  0.2254 -0.1571 -0.4167
 9741TIP3    H150638   6.593   0.059   2.160 -0.5499  0.8274 -1.8223
 9741TIP3    H250639   6.742   0.032   2.158 -0.8778 -1.2397 -0.6125
 9742TIP3   OH250640   5.944   1.047  12.860 -0.1546  0.5075 -0.2598
 9742TIP3    H150641   5.924   1.121  12.918  0.0408  1.0055 -0.8224
 9742TIP3    H250642   6.031   1.066  12.826  0.0505 -0.1722 -0.1242
 9743TIP3   OH250643   2.934   2.799   1.515 -0.7058 -0.4421  0.1067
 9743TIP3    H150644   2.979   2.764   1.591 -0.5556  3.2849  1.9574
 9743TIP3    H250645   2.987   2.770   1.440  1.6103 -0.7623  1.7596
 9744TIP3   OH250646   1.596   3.174   3.889 -0.6665 -0.1935  0.2629
 9744TIP3    H150647   1.610   3.189   3.983 -0.7188 -0.4044  0.3043
 9744TIP3    H250648   1.537   3.244   3.862  0.1393  0.4667  0.1737
 9745TIP3   OH250649   2.805   4.985   0.015 -0.2684  0.2285 -0.4576
 9745TIP3    H150650   2.876   4.921   0.013  0.0057  0.5345 -0.9186
 9745TIP3    H250651   2.725   4.932   0.013 -0.0710 -0.1397  0.8489
 9746TIP3   OH250652   5.112   0.790  14.383 -0.1596 -0.4950 -0.2782
 9746TIP3    H150653   5.144   0.880  14.399  0.4236 -0.6422 -0.5930
 9746TIP3    H250654   5.026   0.788  14.424 -0.4895  0.4348 -0.9052
 9747TIP3   OH250655   4.218   6.344   4.901 -0.2783 -0.2660  0.4024
 9747TIP3    H150656   4.124   6.350   4.880 -0.3452 -3.7398 -0.9729
 9747TIP3    H250657   4.223   6.275   4.968  1.3840 -1.5751 -0.9853
 9748TIP3   OH250658   5.249   5.256  16.741 -0.1848 -0.1197  0.8989
 9748TIP3    H150659   5.223   5.342  16.773  1.7910  1.6527 -1.7717
 9748TIP3    H250660   5.176   5.226  16.688  1.0316  2.7235 -2.8510
 9749TIP3   OH250661   3.859   5.049   1.618  0.0922  0.4540  0.2255
 9749TIP3    H150662   3.946   5.073   1.589 -0.4911  1.2372 -0.9105
 9749TIP3    H250663   3.819   5.131   1.648 -0.0738  0.0152  1.2584
 9750TIP3   OH250664   1.197   3.701  16.776 -0.3338 -0.2454 -0.2479
 9750TIP3    H150665   1.152   3.782  16.751  1.4121  0.8375  0.0261
 9750TIP3    H250666   1.197   3.702  16.871  2.1299  0.8989 -0.1958
 9751TIP3   OH250667   2.764   0.035  17.341  0.1105  0.3289 -0.1448
 9751TIP3    H150668   2.682   0.024  17.293  0.3065  0.7631 -0.5837
 9751TIP3    H250669   2.824   0.073  17.277  0.5151  0.4651  0.3133
 9752TIP3   OH250670   4.770   1.183   1.106 -0.0173 -0.0359 -0.3383
 9752TIP3    H150671   4.747   1.106   1.055  0.9756 -0.7778  0.2975
 9752TIP3    H250672   4.727   1.256   1.061  0.1632 -0.7701 -1.7491
 9753TIP3   OH250673   1.678   6.093  15.972 -0.3027  0.2462 -0.0037
 9753TIP3    H150674   1.599   6.049  15.940 -0.6424 -0.6554  1.9437
 9753TIP3    H250675   1.749   6.032  15.952 -0.4534 -0.0988  0.4774
 9754TIP3   OH250676   3.915   2.690   5.087  0.0863  0.5933 -0.1578
 9754TIP3    H150677   3.873   2.659   5.167 -0.7116 -0.6451 -1.0247
 9754TIP3    H250678   3.845   2.734   5.038  0.6710  1.7488 -0.0013
 9755TIP3   OH250679   3.987   4.416   2.448 -0.0250 -0.2751  0.1671
 9755TIP3    H150680   3.931   4.414   2.371  1.6888 -1.3923 -1.1249
 9755TIP3    H250681   3.993   4.325   2.476 -0.0699  0.0310  1.2169
 9756TIP3   OH250682   4.399   1.249   0.516 -0.4422 -0.0778 -0.0117
 9756TIP3    H150683   4.325   1.276   0.463 -0.6479 -1.2076 -0.3389
 9756TIP3    H250684   4.472   1.244   0.455 -0.1170  0.8756  0.2784
 9757TIP3   OH250685   5.396   3.254  14.403 -0.0377 -0.7810 -0.1809
 9757TIP3    H150686   5.336   3.319  14.440 -0.9338 -2.0145  0.6253
 9757TIP3    H250687   5.374   3.252  14.310 -1.7452 -1.6688  0.2068
 9758TIP3   OH250688   3.691   1.607   3.564 -0.4637  0.2490  0.2210
 9758TIP3    H150689   3.650   1.613   3.650  0.9060  0.3516  0.8844
 9758TIP3    H250690   3.783   1.590   3.582 -0.5798 -2.4079 -1.2542
 9759TIP3   OH250691   6.582   2.927   0.428  0.4311 -0.7686  0.4278
 9759TIP3    H150692   6.640   2.914   0.353  1.2778  0.8838  0.7508
 9759TIP3    H250693   6.615   3.006   0.470 -2.2157  0.3991  0.4806
 9760TIP3   OH250694   5.295   0.072  17.207  0.2188 -0.6393  0.9317
 9760TIP3    H150695   5.284  -0.009  17.157  1.0825  0.2226 -0.7019
 9760TIP3    H250696   5.211   0.117  17.199  0.1890 -0.7387  0.6815
 9761TIP3   OH250697   0.462   4.683   3.631 -0.3184 -0.0643  0.5414
 9761TIP3    H150698   0.485   4.591   3.637 -1.0997 -0.4466 -1.5341
 9761TIP3    H250699   0.368   4.685   3.649 -0.5295  0.1521 -0.5365
 9762TIP3   OH250700   2.224   0.339  12.366  0.0986  0.0617 -0.0214
 9762TIP3    H150701   2.152   0.276  12.373 -0.1162 -0.0015 -2.0188
 9762TIP3    H250702   2.288   0.310  12.431 -1.1948 -0.5309  1.0371
 9763TIP3   OH250703   2.754   5.461   0.767 -0.0491  0.6784  0.0717
 9763TIP3    H150704   2.738   5.457   0.673  2.1385  1.0687 -0.3878
 9763TIP3    H250705   2.760   5.554   0.786  1.5930  0.5875  0.1406
 9764TIP3   OH250706   2.118   0.074  11.911 -0.1752  0.3407  0.3236
 9764TIP3    H150707   2.080   0.161  11.927  0.4401  0.3354  2.1130
 9764TIP3    H250708   2.182   0.064  11.981  0.0980 -1.3773 -0.1401
 9765TIP3   OH250709   3.264   4.391  13.787 -0.1575 -0.0420  0.7707
 9765TIP3    H150710   3.351   4.409  13.752  0.5690 -4.2595 -0.1512
 9765TIP3    H250711   3.269   4.418  13.879  3.0351 -2.1974  1.3970
 9766TIP3   OH250712   6.280   0.458   5.317 -0.4242  0.7558  0.1359
 9766TIP3    H150713   6.308   0.533   5.368  3.0494 -0.4624  0.2772
 9766TIP3    H250714   6.336   0.386   5.346 -2.8221 -1.7007 -0.7517
 9767TIP3   OH250715   5.399   2.539  16.397  0.1063  0.4056  0.9273
 9767TIP3    H150716   5.365   2.627  16.416 -0.3120  0.0655  1.7810
 9767TIP3    H250717   5.322   2.486  16.379  0.4430  0.5558 -1.1903
 9768TIP3   OH250718   4.262   5.157   1.866  0.0430  0.2594  0.5636
 9768TIP3    H150719   4.333   5.214   1.839  1.5356 -1.3263  0.9583
 9768TIP3    H250720   4.293   5.118   1.948 -1.0083 -0.9473  0.4172
 9769TIP3   OH250721   0.549   1.548   3.650 -0.1674 -0.8381 -0.2299
 9769TIP3    H150722   0.559   1.471   3.594  0.9684 -0.9480  0.1086
 9769TIP3    H250723   0.481   1.523   3.713  1.2480 -2.1648  0.8482
 9770TIP3   OH250724   0.049   0.071  14.777  0.5781 -0.6112 -0.1749
 9770TIP3    H150725   0.109   0.017  14.726  0.2568 -0.6018 -0.5703
 9770TIP3    H250726  -0.029   0.016  14.789 -0.8841  0.6244 -2.8946
 9771TIP3   OH250727   2.741   1.294  14.211  0.0697  0.4724  0.2798
 9771TIP3    H150728   2.788   1.211  14.206 -0.5675  0.1084  0.2898
 9771TIP3    H250729   2.743   1.317  14.304  1.1817  1.0237  0.1401
 9772TIP3   OH250730   1.484   3.210  15.208 -0.6390  0.8869 -0.1726
 9772TIP3    H150731   1.500   3.202  15.302 -1.5603  0.1192 -0.0610
 9772TIP3    H250732   1.567   3.189  15.168 -0.7520 -0.8764  0.4273
 9773TIP3   OH250733   0.332   5.726  12.737  0.3420  0.4483 -0.0812
 9773TIP3    H150734   0.329   5.821  12.745  0.7637  0.4632 -0.0539
 9773TIP3    H250735   0.308   5.709  12.645 -0.0190  0.5612 -0.0086
 9774TIP3   OH250736   0.799   1.997  16.820 -0.1083  0.0530  0.8219
 9774TIP3    H150737   0.873   2.015  16.761 -0.4640  1.0837  0.6658
 9774TIP3    H250738   0.722   2.027  16.771 -0.3133  2.0264  2.2361
 9775TIP3   OH250739   0.841   1.032   5.727 -0.1254 -0.2411 -0.2602
 9775TIP3    H150740   0.748   1.012   5.733 -0.2375  0.4463  0.4366
 9775TIP3    H250741   0.847   1.126   5.745  0.9367 -0.7406  2.6130
 9776TIP3   OH250742   2.145   0.964   2.163 -0.2004  0.5890 -0.0597
 9776TIP3    H150743   2.093   1.038   2.131 -0.5514  0.3037 -0.1555
 9776TIP3    H250744   2.233   0.980   2.129 -0.4332  0.5991 -0.6826
 9777TIP3   OH250745   1.055   4.698  13.498  0.2282  0.4082 -0.0236
 9777TIP3    H150746   0.985   4.752  13.534 -0.2933  0.3708 -0.9496
 9777TIP3    H250747   1.033   4.688  13.406 -0.4878 -2.5497  0.3381
 9778TIP3   OH250748   1.861   0.265   5.386  0.3686  0.5786 -0.2108
 9778TIP3    H150749   1.903   0.241   5.468 -2.1160 -1.8705  0.5200
 9778TIP3    H250750   1.892   0.199   5.323 -0.5769  0.1276 -0.2259
 9779TIP3   OH250751   5.141   1.492   5.781  0.1682 -0.2475  0.2714
 9779TIP3    H150752   5.151   1.406   5.821  1.8967 -0.3123 -0.2061
 9779TIP3    H250753   5.169   1.479   5.690  2.7530  1.2385  0.7372
 9780TIP3   OH250754   6.283   1.461   3.962  0.0136 -0.4884 -0.1577
 9780TIP3    H150755   6.358   1.402   3.953 -1.1577 -1.9500 -0.5896
 9780TIP3    H250756   6.277   1.505   3.878  0.4772 -0.2402 -0.0664
 9781TIP3   OH250757   1.651   0.428   2.409  0.6837  0.0439 -0.0490
 9781TIP3    H150758   1.726   0.388   2.454  0.6552  0.2451  0.1828
 9781TIP3    H250759   1.644   0.515   2.449  0.2236 -0.0365  0.0411
 9782TIP3   OH250760   2.423   2.864  16.295 -0.1350  1.0009 -0.3672
 9782TIP3    H150761   2.390   2.950  16.320 -0.8342  0.6339 -0.0010
 9782TIP3    H250762   2.389   2.805  16.362 -0.5011  0.2803 -1.1696
 9783TIP3   OH250763   4.503   2.716   1.623  0.3487  0.2027  0.0910
 9783TIP3    H150764   4.549   2.691   1.703  1.2234  1.0033 -0.1367
 9783TIP3    H250765   4.428   2.656   1.618  0.0788  0.3797  1.6804
 9784TIP3   OH250766   2.538   2.760   0.976  0.2161 -0.1949 -0.3565
 9784TIP3    H150767   2.568   2.734   1.063 -1.2765 -0.2742  0.1649
 9784TIP3    H250768   2.597   2.831   0.951  1.4989 -1.0521  0.1380
 9785TIP3   OH250769   0.216   4.992  14.974 -0.0992 -0.1911  0.5330
 9785TIP3    H150770   0.196   5.061  14.910 -0.8807 -0.3976  0.5428
 9785TIP3    H250771   0.141   4.991  15.033 -0.7447 -1.9271 -0.2404
 9786TIP3   OH250772   3.204   1.352   4.267  0.4708  0.3949 -0.2121
 9786TIP3    H150773   3.148   1.429   4.263  1.1442  0.9084 -0.0029
 9786TIP3    H250774   3.230   1.347   4.359 -3.0715 -2.6688  0.8670
 9787TIP3   OH250775   5.062   2.445   4.598  0.6598  0.5847 -0.5496
 9787TIP3    H150776   5.019   2.450   4.683  1.3650  3.2707 -0.2605
 9787TIP3    H250777   5.095   2.355   4.593 -1.4408 -0.3438  0.9275
 9788TIP3   OH250778   1.494   0.254   6.385  0.3010  0.0291  0.0747
 9788TIP3    H150779   1.581   0.237   6.347  0.7233  1.7318  0.1797
 9788TIP3    H250780   1.495   0.348   6.405 -1.4605  0.0144  0.3763
 9789TIP3   OH250781   4.316   6.614  14.584 -0.0838 -0.6296  0.3885
 9789TIP3    H150782   4.244   6.677  14.584  1.0664  0.7209  0.7263
 9789TIP3    H250783   4.337   6.601  14.677  0.7522 -0.2484  0.2617
 9790TIP3   OH250784   6.531   5.101   3.013 -0.4095  1.0033  0.7970
 9790TIP3    H150785   6.466   5.122   3.080 -1.1627  1.5653 -0.0952
 9790TIP3    H250786   6.538   5.181   2.961 -0.0387  0.4744  0.0263
 9791TIP3   OH250787   1.113   1.146  16.262  0.2949  0.3360  0.4653
 9791TIP3    H150788   1.169   1.183  16.195 -1.2296 -0.1567 -1.1712
 9791TIP3    H250789   1.043   1.211  16.274 -0.3081 -0.2827  0.3815
 9792TIP3   OH250790   5.595   6.364  16.990 -0.2491 -0.3722 -0.2144
 9792TIP3    H150791   5.648   6.333  17.064  0.0866  2.3787  0.8131
 9792TIP3    H250792   5.505   6.357  17.022 -0.0793  1.3986  0.8064
 9793TIP3   OH250793   5.273   5.815   2.796 -0.5715  0.6632 -0.4871
 9793TIP3    H150794   5.209   5.753   2.831 -0.4281  1.0672  0.5093
 9793TIP3    H250795   5.318   5.850   2.873  0.7293  0.5242 -1.1479
 9794TIP3   OH250796   3.718   4.375   4.337  0.0806  0.0434 -0.3211
 9794TIP3    H150797   3.735   4.435   4.265 -1.0373 -1.3932 -1.8531
 9794TIP3    H250798   3.713   4.289   4.296  0.3805 -0.9558  1.6197
 9795TIP3   OH250799   0.302   3.930  11.499 -0.3496  0.0813  0.0317
 9795TIP3    H150800   0.346   3.845  11.503 -0.0124  0.1564 -1.5380
 9795TIP3    H250801   0.230   3.923  11.562 -0.3985 -1.4216 -0.1626
 9796TIP3   OH250802   0.962   6.137   4.206 -0.6913  0.1727 -0.1275
 9796TIP3    H150803   0.881   6.112   4.249 -0.8176 -1.0713 -1.0336
 9796TIP3    H250804   0.963   6.087   4.124 -0.3273  2.2370 -1.4675
 9797TIP3   OH250805   1.698   4.222   5.379  0.0794  0.3544 -0.4953
 9797TIP3    H150806   1.622   4.167   5.364 -0.0625 -0.2333  1.9527
 9797TIP3    H250807   1.662   4.311   5.384 -0.1826  0.2859 -1.0967
 9798TIP3   OH250808   5.818   2.723  14.437 -0.4060  0.4688  0.1649
 9798TIP3    H150809   5.773   2.692  14.359  0.0861 -0.6531  0.2976
 9798TIP3    H250810   5.855   2.807  14.412  0.9318 -0.4985 -1.2980
 9799TIP3   OH250811   4.589   1.583  12.906  0.2037 -0.2942 -0.4018
 9799TIP3    H150812   4.581   1.613  12.997  1.0774 -0.3652 -0.2882
 9799TIP3    H250813   4.503   1.597  12.868  0.4075  1.8578 -0.2009
 9800TIP3   OH250814   5.867   3.558   2.749  0.1861 -0.2861  0.6313
 9800TIP3    H150815   5.904   3.638   2.712  0.3950 -0.9881 -0.7470
 9800TIP3    H250816   5.937   3.521   2.803  0.1872  0.3001  1.0387
 9801TIP3   OH250817   5.356   2.947  16.248  0.1532  0.8470 -0.3483
 9801TIP3    H150818   5.336   3.027  16.297 -0.7736 -0.7897  2.1717
 9801TIP3    H250819   5.394   2.978  16.166  1.0196  3.8407  1.0290
 9802TIP3   OH250820   4.960   4.517   5.675 -0.2419  0.2849  0.0474
 9802TIP3    H150821   4.963   4.426   5.647  1.2622  0.2837  0.1544
 9802TIP3    H250822   4.912   4.514   5.758 -0.9296 -0.2755 -0.3497
 9803TIP3   OH250823   2.207   3.521   0.507  0.3075 -0.2168 -0.0507
 9803TIP3    H150824   2.233   3.465   0.581  1.2051 -0.1722 -0.3221
 9803TIP3    H250825   2.140   3.470   0.461 -0.1950 -0.2875  0.7325
 9804TIP3   OH250826   5.936   4.582  15.142  0.5743  0.4557  0.5982
 9804TIP3    H150827   5.927   4.505  15.199  0.3739  0.1989  0.2228
 9804TIP3    H250828   5.847   4.618  15.138  0.6093  0.5332  0.5296
 9805TIP3   OH250829   5.320   5.764   4.621 -0.2075 -0.0410  0.3307
 9805TIP3    H150830   5.388   5.818   4.580  0.7738 -1.8177 -0.4520
 9805TIP3    H250831   5.248   5.826   4.636  0.8413  1.4837 -0.5712
 9806TIP3   OH250832   6.593   2.384   1.547  0.7459 -0.5094  0.7705
 9806TIP3    H150833   6.516   2.416   1.500  1.0139  1.1025  1.3800
 9806TIP3    H250834   6.650   2.460   1.554  2.6426 -1.7893 -0.0865
 9807TIP3   OH250835   0.085   5.976   3.313  0.1546  0.4227 -1.1587
 9807TIP3    H150836   0.097   5.881   3.306  1.5782  0.6920 -3.3822
 9807TIP3    H250837  -0.008   5.990   3.296 -1.1048 -0.7990  3.4653
 9808TIP3   OH250838   3.404   2.012   5.426 -0.3070 -0.0126  0.4410
 9808TIP3    H150839   3.469   2.022   5.496 -1.0022 -0.7353  1.2139
 9808TIP3    H250840   3.452   1.970   5.355  0.1014 -0.4341  0.9580
 9809TIP3   OH250841   0.540   4.593   0.649  0.2585  0.6617  0.1576
 9809TIP3    H150842   0.524   4.595   0.743  0.2985 -2.9172  0.3651
 9809TIP3    H250843   0.636   4.586   0.641  0.3868  2.3581 -0.2868
 9810TIP3   OH250844   0.756   0.030   5.854  0.0355 -0.0520  0.6877
 9810TIP3    H150845   0.824   0.046   5.919  1.0463 -0.6745 -0.2000
 9810TIP3    H250846   0.754  -0.066   5.844 -0.5771 -0.0042  0.2784
 9811TIP3   OH250847   1.597   6.648  13.948  0.3410 -0.6516  0.2335
 9811TIP3    H150848   1.619   6.563  13.984 -0.9346 -1.5242 -0.9639
 9811TIP3    H250849   1.633   6.711  14.011  0.5742 -2.0577  1.5563
 9812TIP3   OH250850   3.173   3.499  16.143  0.7963 -0.5531  0.3434
 9812TIP3    H150851   3.201   3.540  16.225  1.2273 -0.2133  0.0368
 9812TIP3    H250852   3.253   3.459  16.108  1.1254  1.1164 -0.9411
 9813TIP3   OH250853   2.993   4.304  14.311  0.3995  0.5073  0.2600
 9813TIP3    H150854   2.904   4.332  14.290 -0.0915  0.3319  1.9437
 9813TIP3    H250855   3.004   4.221  14.265 -0.7496 -0.0443  0.9411
 9814TIP3   OH250856   3.650   4.778  17.327 -0.3053  0.3108 -1.0136
 9814TIP3    H150857   3.588   4.798  17.397 -0.3123  0.4489 -1.0586
 9814TIP3    H250858   3.727   4.831  17.347 -1.1021  2.0330 -2.2753
 9815TIP3   OH250859   0.718   6.136   6.724  0.2776  0.9025 -0.2556
 9815TIP3    H150860   0.769   6.204   6.681  1.8191 -0.7192 -1.1617
 9815TIP3    H250861   0.780   6.094   6.784  0.1276 -1.2044 -1.4660
 9816TIP3   OH250862   0.056   6.028   4.652  0.4282 -0.3118 -0.1810
 9816TIP3    H150863   0.020   5.946   4.686 -0.3003 -0.8119 -2.0027
 9816TIP3    H250864   0.150   6.013   4.644  0.4218 -0.6326  0.3720
 9817TIP3   OH250865   0.247   2.778   0.034 -0.6152  0.5557  0.2677
 9817TIP3    H150866   0.254   2.766   0.129 -0.9300  0.5894  0.2934
 9817TIP3    H250867   0.244   2.689  -0.001 -0.6689  0.5459  0.2986
 9818TIP3   OH250868   1.141   4.716  12.762 -0.0704 -0.2938  0.3851
 9818TIP3    H150869   1.081   4.665  12.817 -1.2524  1.7112  1.0853
 9818TIP3    H250870   1.146   4.801  12.806  0.6524  0.6689 -1.4784
 9819TIP3   OH250871   4.106   1.326   4.407 -0.1906 -0.2359 -0.1566
 9819TIP3    H150872   4.037   1.368   4.458  1.2081  0.8961  0.8890
 9819TIP3    H250873   4.064   1.251   4.366 -1.7063 -0.3461  1.5090
 9820TIP3   OH250874   2.803   0.523  15.167 -0.2526 -0.2352 -0.0134
 9820TIP3    H150875   2.884   0.540  15.119 -0.1393 -0.7777 -0.0258
 9820TIP3    H250876   2.831   0.516  15.259 -0.7081  2.6091  0.4453
 9821TIP3   OH250877   2.138   4.417  14.580 -0.4441 -0.2172  0.3996
 9821TIP3    H150878   2.090   4.356  14.524 -0.8131 -0.5344  1.0508
 9821TIP3    H250879   2.097   4.408  14.666 -0.5033  0.9413  0.5104
 9822TIP3   OH250880   3.160   0.515   5.241  0.9510  0.2560 -0.1513
 9822TIP3    H150881   3.240   0.543   5.197  0.7800  0.5362 -0.2901
 9822TIP3    H250882   3.181   0.517   5.334  0.9665  0.7746 -0.1624
 9823TIP3   OH250883   3.108   0.280  12.734  0.1302  0.4712 -0.5097
 9823TIP3    H150884   3.094   0.186  12.723 -0.1887  0.4106  0.3796
 9823TIP3    H250885   3.197   0.295  12.702 -0.2848  0.0993 -1.9014
 9824TIP3   OH250886   2.259   6.702  15.616  0.4234 -0.4795  0.3844
 9824TIP3    H150887   2.215   6.698  15.701  0.8497 -2.6153  0.5587
 9824TIP3    H250888   2.336   6.757  15.631  0.0936 -0.2297  1.1863
 9825TIP3   OH250889   2.700   4.794  14.279 -0.2487  0.3351  0.5008
 9825TIP3    H150890   2.639   4.784  14.352  2.0819  0.1017  2.5551
 9825TIP3    H250891   2.722   4.888  14.279  0.1506  0.2411  0.4244
 9826TIP3   OH250892   4.909   5.386  15.423 -0.1843 -0.2992  0.1215
 9826TIP3    H150893   4.853   5.374  15.499 -0.1837  0.2951  0.2171
 9826TIP3    H250894   4.978   5.321  15.434 -1.8571 -2.3984 -0.9822
 9827TIP3   OH250895   5.789   1.009  11.547  0.1710 -0.2534 -0.3396
 9827TIP3    H150896   5.789   0.915  11.529 -0.2394 -0.1508 -0.8906
 9827TIP3    H250897   5.753   1.049  11.468 -1.3840  0.2391  0.5769
 9828TIP3   OH250898   2.285   5.531   2.657  0.1392  0.4878  0.5727
 9828TIP3    H150899   2.212   5.580   2.619 -0.2028 -1.7567 -1.9949
 9828TIP3    H250900   2.305   5.464   2.591  3.3798 -0.0945  1.9732
 9829TIP3   OH250901   0.032   6.071  13.013 -0.3747  0.1376 -0.0436
 9829TIP3    H150902   0.104   6.129  13.037 -1.3562  0.5627  2.0896
 9829TIP3    H250903   0.057   5.986  13.049 -0.4784  0.0464 -0.1854
 9830TIP3   OH250904   1.597   0.027  15.426  0.0885  0.3089  0.0055
 9830TIP3    H150905   1.615   0.082  15.501  0.3281 -0.4675  0.5321
 9830TIP3    H250906   1.534  -0.038  15.458 -1.5046  1.2597 -1.0514
 9831TIP3   OH250907   3.202   0.150  13.685  0.3401  0.5843 -0.1492
 9831TIP3    H150908   3.273   0.151  13.750  1.5166 -0.9651 -1.3132
 9831TIP3    H250909   3.235   0.205  13.614 -0.4503  1.3644  0.0813
 9832TIP3   OH250910   6.333   0.754   4.672 -0.0697  0.1250  0.5004
 9832TIP3    H150911   6.319   0.763   4.766 -1.1893  1.1543  0.2617
 9832TIP3    H250912   6.264   0.807   4.632  1.8091  1.7239 -0.8745
 9833TIP3   OH250913   2.574   4.708  17.257  0.3843 -0.2162 -0.7834
 9833TIP3    H150914   2.592   4.788  17.207  2.3591 -0.7554 -1.0227
 9833TIP3    H250915   2.622   4.719  17.339  1.0508 -1.3347 -1.0036
 9834TIP3   OH250916   1.642   3.176   1.832  0.2450 -0.5645 -0.1112
 9834TIP3    H150917   1.647   3.080   1.833 -1.2316 -0.6910  2.0242
 9834TIP3    H250918   1.558   3.195   1.790 -1.8995 -0.5367  3.7563
 9835TIP3   OH250919   4.875   6.499   6.277  0.4851 -0.0354 -0.1331
 9835TIP3    H150920   4.836   6.430   6.224 -1.1191  0.4588  0.3617
 9835TIP3    H250921   4.864   6.469   6.367  0.4169  0.5441  0.0549
 9836TIP3   OH250922   0.703   0.315   0.284 -0.1313  0.2801 -0.4252
 9836TIP3    H150923   0.674   0.224   0.271  1.0859 -0.4280  1.3652
 9836TIP3    H250924   0.667   0.338   0.370  0.2447  1.2052 -0.5124
 9837TIP3   OH250925   0.944   0.651   5.148 -0.0019 -0.1790  0.1537
 9837TIP3    H150926   0.910   0.593   5.217 -1.5514 -0.6298 -0.9361
 9837TIP3    H250927   0.881   0.641   5.076  1.1078  0.9397 -1.0008
 9838TIP3   OH250928   6.487   1.705   4.795 -0.2854 -0.5530 -0.1377
 9838TIP3    H150929   6.483   1.611   4.777  1.5875 -0.6237 -0.4056
 9838TIP3    H250930   6.579   1.728   4.779 -0.4922  1.1267  0.8787
 9839TIP3   OH250931   2.755   3.304  14.560 -0.1671  0.2728  0.4513
 9839TIP3    H150932   2.752   3.400  14.565  0.5514  0.2439  3.8316
 9839TIP3    H250933   2.848   3.283  14.559 -0.2686 -0.4801 -2.0976
 9840TIP3   OH250934   5.867   2.209  12.664  0.7269  0.8178  0.2422
 9840TIP3    H150935   5.816   2.136  12.629 -1.6715  1.9804  1.1460
 9840TIP3    H250936   5.857   2.279  12.599  1.7666  0.8703  0.1138
 9841TIP3   OH250937   6.704   0.418   5.118 -0.5006 -0.0662  0.2401
 9841TIP3    H150938   6.697   0.361   5.042 -0.0214  0.4499 -0.1961
 9841TIP3    H250939   6.628   0.476   5.112 -1.4621 -1.1729  1.1404
 9842TIP3   OH250940   2.290   2.325   2.251  0.2471  0.1793 -0.0541
 9842TIP3    H150941   2.246   2.349   2.169 -0.0740 -0.8940 -0.2126
 9842TIP3    H250942   2.242   2.373   2.319  1.1696  1.9031 -0.5664
 9843TIP3   OH250943   5.364   2.945   5.932  0.2045 -0.2256 -0.5039
 9843TIP3    H150944   5.299   2.971   5.866  0.3664  0.0401 -0.5574
 9843TIP3    H250945   5.314   2.891   5.993  0.0133 -0.3252 -0.7464
 9844TIP3   OH250946   3.279   5.949   5.210 -0.2815  0.3941  0.5052
 9844TIP3    H150947   3.264   5.857   5.191 -0.7394  0.5825 -0.0872
 9844TIP3    H250948   3.369   5.953   5.242  0.2280 -0.0731 -0.7936
 9845TIP3   OH250949   0.761   3.620  11.803  0.2897 -0.3069 -0.0243
 9845TIP3    H150950   0.854   3.605  11.790  0.2723 -0.0197 -0.4896
 9845TIP3    H250951   0.720   3.594  11.720  0.0568  0.4299 -0.1493
 9846TIP3   OH250952   6.567   5.520   5.310  0.9486  0.3536  0.0007
 9846TIP3    H150953   6.654   5.541   5.274  0.4625  0.7842 -0.9564
 9846TIP3    H250954   6.529   5.605   5.332  0.4116  0.2391 -0.4582
 9847TIP3   OH250955   4.910   0.103  13.191  0.1220 -0.4606 -0.4225
 9847TIP3    H150956   4.838   0.040  13.188 -2.2942  2.1507 -0.9968
 9847TIP3    H250957   4.981   0.061  13.143 -0.6625 -3.4570  0.8205
 9848TIP3   OH250958   5.816   1.528   5.686 -0.0338 -0.0222 -0.0385
 9848TIP3    H150959   5.744   1.493   5.739  0.4466  0.3584  0.8787
 9848TIP3    H250960   5.792   1.505   5.596 -1.9929  1.2535  0.0916
 9849TIP3   OH250961   4.166   4.629  13.549 -0.4495  0.0215  0.3666
 9849TIP3    H150962   4.235   4.584  13.599 -0.6728 -0.9839 -0.2204
 9849TIP3    H250963   4.085   4.596  13.586 -0.6166 -0.2523 -0.2461
 9850TIP3   OH250964   5.860   5.299  16.226  0.1655 -0.5280 -0.6615
 9850TIP3    H150965   5.894   5.308  16.315  0.3765  2.0165 -0.9319
 9850TIP3    H250966   5.774   5.258  16.238 -0.4560  1.0940  0.8784
 9851TIP3   OH250967   1.122   3.115  14.935  0.2072 -0.0720 -0.3409
 9851TIP3    H150968   1.035   3.153  14.919 -0.8394 -2.7127 -1.4411
 9851TIP3    H250969   1.171   3.136  14.855  0.5329  1.1618  0.1564
 9852TIP3   OH250970   0.099   3.405  17.234  0.7475 -0.3765  0.3205
 9852TIP3    H150971   0.041   3.424  17.308 -0.0846  0.3315 -0.4841
 9852TIP3    H250972   0.043   3.414  17.156  1.7376 -0.5047 -0.4353
 9853TIP3   OH250973   0.309   1.391  11.153 -0.2186  0.2181 -0.3600
 9853TIP3    H150974   0.371   1.430  11.091  1.3176 -1.2036  0.1802
 9853TIP3    H250975   0.253   1.464  11.181 -0.0231  1.1720 -2.2992
 9854TIP3   OH250976   6.049   2.955   0.622 -0.2141  0.1436  0.2440
 9854TIP3    H150977   6.029   3.000   0.540 -0.1324 -0.2298  0.0176
 9854TIP3    H250978   5.978   2.979   0.681  0.8142  2.1371  0.7480
 9855TIP3   OH250979   2.363   6.085   0.024  0.3413 -0.1854  0.4672
 9855TIP3    H150980   2.330   6.107   0.111  1.7171 -1.5893  1.3938
 9855TIP3    H250981   2.451   6.122   0.022  0.4551 -0.4858 -0.1908
 9856TIP3   OH250982   2.530   1.204   1.476  0.1704  0.2710  0.1302
 9856TIP3    H150983   2.452   1.151   1.462 -0.2238  0.8787 -0.0067
 9856TIP3    H250984   2.528   1.226   1.570  1.3157 -1.4585  0.6190
 9857TIP3   OH250985   6.137   6.731   0.727 -0.1816 -0.4714 -0.5005
 9857TIP3    H150986   6.121   6.742   0.633 -0.3944  0.6943 -0.3421
 9857TIP3    H250987   6.231   6.714   0.734 -0.0120  0.2780 -0.8701
 9858TIP3   OH250988   1.740   6.501   4.980  0.0297  0.3732  0.2758
 9858TIP3    H150989   1.784   6.586   4.978  0.7251  0.0315  0.7083
 9858TIP3    H250990   1.718   6.483   4.888  0.0464  0.9310  0.1603
 9859TIP3   OH250991   1.445   0.985  11.038  0.2353  0.3430  0.0623
 9859TIP3    H150992   1.391   1.063  11.049  0.7975  0.5698  1.2499
 9859TIP3    H250993   1.382   0.913  11.034 -0.2667  0.8057 -0.7496
 9860TIP3   OH250994   1.906   4.577  11.169  0.4661 -0.1213  0.1525
 9860TIP3    H150995   1.955   4.544  11.094  1.2636 -0.9009  0.9845
 9860TIP3    H250996   1.882   4.666  11.145 -0.5925 -0.8354 -1.6256
 9861TIP3   OH250997   1.619   3.110   5.723  0.4313 -0.7726 -1.4960
 9861TIP3    H150998   1.534   3.110   5.677  0.1906 -2.4967 -1.1256
 9861TIP3    H250999   1.598   3.083   5.812  1.3337 -0.9176 -1.3199
 9862TIP3   OH251000   5.006   2.192   1.560  0.1677 -0.0163 -0.7843
 9862TIP3    H151001   4.983   2.282   1.536  0.0744  0.8127  2.1304
 9862TIP3    H251002   4.922   2.148   1.570  0.0105  0.6461  1.3560
 9863TIP3   OH251003   1.199   5.887  14.945 -0.1729  0.6467  0.0791
 9863TIP3    H151004   1.127   5.949  14.949 -0.6955  0.3105 -2.4418
 9863TIP3    H251005   1.158   5.803  14.928  0.6986  0.0843  0.6704
 9864TIP3   OH251006   1.120   2.220   6.127  0.0703 -0.3440 -0.0771
 9864TIP3    H151007   1.061   2.253   6.195 -0.5161  0.2573 -0.8559
 9864TIP3    H251008   1.120   2.125   6.139  0.2710 -0.2235  0.9859
 9865TIP3   OH251009   5.883   1.809  13.012 -0.0292  0.2474 -0.5433
 9865TIP3    H151010   5.808   1.784  13.066 -0.1222 -0.1706 -0.8636
 9865TIP3    H251011   5.870   1.902  12.995  0.9278  0.8507  1.6387
 9866TIP3   OH251012   6.240   4.378  17.139 -0.5707 -0.0187 -0.2427
 9866TIP3    H151013   6.272   4.468  17.132 -1.9938  0.4046 -3.1019
 9866TIP3    H251014   6.154   4.387  17.180 -0.3096 -0.1824  0.3356
 9867TIP3   OH251015   1.922   1.974  15.562 -0.3917 -0.2553  0.7326
 9867TIP3    H151016   1.946   1.970  15.655 -0.4300 -1.5100  0.7085
 9867TIP3    H251017   1.836   1.932  15.558 -0.1869 -0.6217  0.0688
 9868TIP3   OH251018   0.821   2.494  17.068  0.1367  1.0891 -0.2859
 9868TIP3    H151019   0.793   2.429  17.004 -0.6246  2.6638 -1.6236
 9868TIP3    H251020   0.845   2.443  17.145 -1.3038 -0.7211 -0.9554
 9869TIP3   OH251021   5.220   5.634  12.413 -0.7525 -0.5788  0.7552
 9869TIP3    H151022   5.265   5.644  12.329  2.1753  1.4261  2.3442
 9869TIP3    H251023   5.135   5.596  12.391 -0.0390 -0.3857 -3.0393
 9870TIP3   OH251024   3.590   4.940  13.393 -0.7973  0.0749 -0.0795
 9870TIP3    H151025   3.580   4.846  13.374  1.0999 -0.2981  0.4748
 9870TIP3    H251026   3.538   4.984  13.327 -1.2897 -1.3608 -0.6963
 9871TIP3   OH251027   2.077   2.941  17.307 -0.4139 -0.2072 -0.1230
 9871TIP3    H151028   2.143   3.009  17.295 -0.8231  0.1274 -0.5483
 9871TIP3    H251029   2.010   2.982  17.361  0.8916 -1.3591  2.5677
 9872TIP3   OH251030   2.378   3.138   2.631 -0.3088 -0.4650 -0.1961
 9872TIP3    H151031   2.436   3.157   2.558 -1.3699  0.6281 -0.7757
 9872TIP3    H251032   2.403   3.201   2.699  1.6639 -2.3950  1.0258
 9873TIP3   OH251033   4.362   1.047   4.315  0.2545 -0.5506  0.2780
 9873TIP3    H151034   4.425   1.066   4.246 -0.2684  2.0323  0.4389
 9873TIP3    H251035   4.277   1.064   4.274 -0.0611  1.0882  1.5414
 9874TIP3   OH251036   2.349   0.862  14.257 -0.0226  0.1574  0.1470
 9874TIP3    H151037   2.287   0.872  14.329  1.8581  0.5688  1.8008
 9874TIP3    H251038   2.409   0.794  14.286  0.7485  0.2889 -1.0559
 9875TIP3   OH251039   1.627   2.167   0.995  0.1104  0.5956 -0.0139
 9875TIP3    H151040   1.654   2.137   0.908 -1.0615 -0.0640 -0.1712
 9875TIP3    H251041   1.534   2.146   1.000 -0.1053  1.6853  0.9715
 9876TIP3   OH251042   3.764   4.085   3.710  0.4605 -0.2480 -0.0217
 9876TIP3    H151043   3.687   4.134   3.680  0.0358 -0.7564  0.2220
 9876TIP3    H251044   3.749   3.996   3.679  0.6960 -0.4654  0.4776
 9877TIP3   OH251045   3.600   1.543  11.653  0.0463 -0.1333  0.2587
 9877TIP3    H151046   3.526   1.579  11.603  0.7132  2.5302  1.0338
 9877TIP3    H251047   3.671   1.536  11.589 -0.5845 -1.8942 -0.2972
 9878TIP3   OH251048   3.956   0.966   3.099  0.9017 -0.1211 -0.6077
 9878TIP3    H151049   4.018   0.894   3.109  1.4233  0.4138  0.1576
 9878TIP3    H251050   3.986   1.032   3.162  0.7181  0.9607 -1.6083
 9879TIP3   OH251051   6.099   4.256  15.141 -0.1683  0.1473  0.2225
 9879TIP3    H151052   6.072   4.179  15.092  2.1398 -0.5954  0.0448
 9879TIP3    H251053   6.186   4.277  15.108  0.3261  1.2723  2.0855
 9880TIP3   OH251054   5.056   3.894   0.964  0.0096 -0.1048 -0.2179
 9880TIP3    H151055   5.006   3.974   0.981 -0.0646 -0.0848 -0.5275
 9880TIP3    H251056   5.120   3.890   1.035  0.3300  0.4905 -0.4613
 9881TIP3   OH251057   1.348   5.098  10.872 -0.3249  0.8133  0.1117
 9881TIP3    H151058   1.332   5.169  10.809 -2.0711 -1.0289 -1.6573
 9881TIP3    H251059   1.371   5.023  10.818  0.4415 -0.2806  1.8781
 9882TIP3   OH251060   1.000   3.588   6.677 -0.1632  0.4961 -0.6809
 9882TIP3    H151061   1.065   3.650   6.645  0.9337  0.2884  1.0047
 9882TIP3    H251062   1.050   3.527   6.731 -1.2283 -1.7821 -2.1015
 9883TIP3   OH251063   2.638   2.879  15.637 -0.2411  0.0048  0.3304
 9883TIP3    H151064   2.684   2.878  15.553 -0.7651  0.5971  0.0273
 9883TIP3    H251065   2.612   2.970  15.649  1.5088  0.3215  2.0723
 9884TIP3   OH251066   4.777   4.128   3.864 -0.1095 -0.4459 -0.2563
 9884TIP3    H151067   4.812   4.041   3.844 -0.6934 -0.9821  0.9901
 9884TIP3    H251068   4.853   4.186   3.860  0.4020 -1.1218 -0.4238
 9885TIP3   OH251069   4.018   2.602   1.659  0.4658 -0.1044  0.6557
 9885TIP3    H151070   4.031   2.522   1.710 -1.3413 -1.6943 -1.1765
 9885TIP3    H251071   3.925   2.621   1.668  0.5755  0.9173 -0.1608
 9886TIP3   OH251072   1.628   6.042   0.945  0.0620  0.0838 -0.2992
 9886TIP3    H151073   1.560   6.090   0.897  1.9622  2.0832 -1.1577
 9886TIP3    H251074   1.622   5.953   0.912 -2.2100  0.1631 -0.2446
 9887TIP3   OH251075   4.784   5.698  12.182  0.0201 -0.2209  0.3219
 9887TIP3    H151076   4.755   5.731  12.267  0.1796  1.1714 -0.1426
 9887TIP3    H251077   4.723   5.627  12.162  0.5261 -1.2014  1.9951
 9888TIP3   OH251078   0.710   0.493  10.728  0.2331 -0.3805  0.0756
 9888TIP3    H151079   0.765   0.534  10.795 -0.8427 -1.2562  1.5592
 9888TIP3    H251080   0.769   0.433  10.682  0.7088 -0.7376  1.1226
 9889TIP3   OH251081   2.203   0.114  16.776  0.8733 -0.0931 -0.0533
 9889TIP3    H151082   2.234   0.177  16.842 -0.9198  1.0859 -0.2387
 9889TIP3    H251083   2.191   0.033  16.825  1.5049  0.2029  0.6186
 9890TIP3   OH251084   6.498   6.692   4.177 -0.3651 -0.9133  0.0827
 9890TIP3    H151085   6.532   6.664   4.262 -0.5289  1.8083  1.1464
 9890TIP3    H251086   6.576   6.702   4.122  0.0025 -0.2203  0.7202
 9891TIP3   OH251087   0.275   2.907   4.807 -0.0656  0.0843  0.2806
 9891TIP3    H151088   0.233   2.821   4.812 -1.6597  0.5533 -2.4479
 9891TIP3    H251089   0.368   2.888   4.798 -0.4799 -1.5024 -1.4805
 9892TIP3   OH251090   3.486   3.486  15.474 -0.0465 -0.3067  0.2899
 9892TIP3    H151091   3.428   3.432  15.528  0.6351  0.1625  1.5226
 9892TIP3    H251092   3.502   3.564  15.527  0.5250  0.2374 -0.6602
 9893TIP3   OH251093   1.405   4.836   2.644 -0.3587  0.4331  0.0396
 9893TIP3    H151094   1.345   4.858   2.573 -0.2195  0.6028 -0.0271
 9893TIP3    H251095   1.443   4.752   2.619 -0.7137  0.2288  0.1780
 9894TIP3   OH251096   1.559   5.317  17.264  0.3969  0.0421  0.5664
 9894TIP3    H151097   1.529   5.408  17.266 -2.4484 -0.7835  0.1270
 9894TIP3    H251098   1.635   5.318  17.206 -0.3981  1.9454 -0.5432
 9895TIP3   OH251099   0.288   2.158  16.829 -0.3173 -0.4854 -0.2038
 9895TIP3    H151100   0.229   2.087  16.805 -0.5614 -0.7822  1.1777
 9895TIP3    H251101   0.341   2.122  16.900 -0.4112  0.6867  0.4855
 9896TIP3   OH251102   4.484   4.961   1.968 -0.0495  0.7806 -0.4504
 9896TIP3    H151103   4.529   4.899   2.025 -0.7713  0.4141 -0.2703
 9896TIP3    H251104   4.546   4.976   1.896  0.5567  0.6697  0.0416
 9897TIP3   OH251105   1.297   2.359   1.291  0.3567 -0.0559  0.2876
 9897TIP3    H151106   1.297   2.272   1.330 -0.0558 -0.3025 -0.2425
 9897TIP3    H251107   1.204   2.382   1.283  0.4666  0.5340  0.6446
 9898TIP3   OH251108   2.415   5.848  14.252  0.0407 -0.0514  0.2983
 9898TIP3    H151109   2.365   5.924  14.281 -1.1724 -0.1831 -1.3060
 9898TIP3    H251110   2.436   5.866  14.160  2.5785 -0.2330  0.7764
 9899TIP3   OH251111   0.487   0.120  15.367 -0.1467 -0.1061  0.1654
 9899TIP3    H151112   0.501   0.213  15.350  0.0570 -0.5461 -2.4826
 9899TIP3    H251113   0.565   0.092  15.414  1.2504  0.4877 -1.6757
 9900TIP3   OH251114   3.733   0.062  14.797 -0.2752  0.1138  0.4257
 9900TIP3    H151115   3.813   0.052  14.847 -0.7356  0.3331  1.2186
 9900TIP3    H251116   3.695  -0.025  14.794  0.3661 -0.1411 -0.6026
 9901TIP3   OH251117   0.680   3.214  17.267 -0.3003 -0.0107 -0.6125
 9901TIP3    H151118   0.660   3.125  17.238 -0.2525  0.3092 -1.6739
 9901TIP3    H251119   0.774   3.212  17.287 -0.7480 -0.8120  1.7754
 9902TIP3   OH251120   2.085   2.850  16.404 -0.2572  0.2200 -0.2624
 9902TIP3    H151121   2.011   2.800  16.439 -1.0582  1.0993 -0.6556
 9902TIP3    H251122   2.160   2.792  16.415 -1.2350 -1.3313 -1.2727
 9903TIP3   OH251123   1.496   3.850  14.194  0.6397 -0.2557  0.3729
 9903TIP3    H151124   1.425   3.878  14.253 -0.9410  1.4253 -2.1186
 9903TIP3    H251125   1.505   3.923  14.133  3.1053 -1.3700 -0.6992
 9904TIP3   OH251126   0.125   2.606  17.197 -0.4467  0.2385 -0.9365
 9904TIP3    H151127   0.042   2.558  17.201 -0.3914  0.1456 -0.9080
 9904TIP3    H251128   0.103   2.694  17.229 -0.4324  0.0720 -0.4513
 9905TIP3   OH251129   4.832   6.269   0.706  0.5505  0.2782  0.9035
 9905TIP3    H151130   4.834   6.180   0.672 -1.9399  1.6803 -3.8696
 9905TIP3    H251131   4.912   6.309   0.673  0.7672  0.3229  1.4671
 9906TIP3   OH251132   5.847   5.620  16.404  0.1568 -0.6808  0.0682
 9906TIP3    H151133   5.753   5.606  16.398 -0.1065  0.6521  0.5801
 9906TIP3    H251134   5.865   5.687  16.338  0.0183  1.9624  2.4984
 9907TIP3   OH251135   4.652   3.765  12.736 -0.4811  0.1346  0.0364
 9907TIP3    H151136   4.559   3.745  12.751 -0.2220 -2.8433 -1.6226
 9907TIP3    H251137   4.653   3.822  12.659 -0.9135 -0.7027 -0.6001
 9908TIP3   OH251138   5.132   2.651  14.429 -0.1669 -0.2853  0.1428
 9908TIP3    H151139   5.104   2.564  14.457 -1.2302 -0.3002 -0.8832
 9908TIP3    H251140   5.213   2.667  14.477  1.1122 -2.6283 -1.0636
 9909TIP3   OH251141   2.697   4.729   3.297  0.4746 -0.5836 -0.0537
 9909TIP3    H151142   2.617   4.781   3.286  0.4603 -0.1363  1.8398
 9909TIP3    H251143   2.723   4.706   3.208 -0.2395  1.5906 -0.8959
 9910TIP3   OH251144   3.445   5.530  14.245 -0.3804  0.3407  0.5693
 9910TIP3    H151145   3.521   5.525  14.303  1.3865  0.4043 -1.5916
 9910TIP3    H251146   3.438   5.622  14.222 -0.2383  0.1336 -0.3227
 9911TIP3   OH251147   2.945   5.915   1.607 -0.5318 -0.0650  0.0457
 9911TIP3    H151148   2.988   5.829   1.603 -1.4077 -0.4894 -0.6148
 9911TIP3    H251149   2.889   5.910   1.684 -0.7217 -0.1571 -0.0975
 9912TIP3   OH251150   5.382   2.860  15.623  0.0950 -0.3677  0.1302
 9912TIP3    H151151   5.415   2.820  15.542  0.2403  1.5188 -0.7836
 9912TIP3    H251152   5.310   2.916  15.595  0.5185  0.7672  1.2298
 9913TIP3   OH251153   5.578   0.391   2.853  0.1473  0.2995  0.2541
 9913TIP3    H151154   5.605   0.350   2.771 -1.2106 -0.4968  0.1920
 9913TIP3    H251155   5.659   0.428   2.888  1.2327 -1.5480 -0.1884
 9914TIP3   OH251156   1.438   1.707   2.462 -0.0807 -0.0540  0.2676
 9914TIP3    H151157   1.469   1.766   2.531 -0.8262  1.5853 -0.7526
 9914TIP3    H251158   1.433   1.621   2.505  1.2883  0.5347  1.7245
 9915TIP3   OH251159   3.307   6.534  12.664  0.7126  0.6151 -0.3979
 9915TIP3    H151160   3.264   6.532  12.579  1.2466 -0.8672 -0.6562
 9915TIP3    H251161   3.378   6.471  12.657  0.7263  0.4116  1.1631
 9916TIP3   OH251162   4.913   3.748  15.050  0.0200  0.4748  0.5616
 9916TIP3    H151163   4.827   3.709  15.069 -0.1796  1.2401  1.3273
 9916TIP3    H251164   4.931   3.802  15.127  0.8497  0.9130  0.0645
 9917TIP3   OH251165   3.547   6.187   2.839 -0.2001  0.1886 -0.2279
 9917TIP3    H151166   3.515   6.253   2.777  1.0457  0.1508 -0.9299
 9917TIP3    H251167   3.621   6.228   2.882  0.3420 -0.6074 -0.3906
 9918TIP3   OH251168   1.898   5.781   0.558 -0.5075 -0.6187 -0.0153
 9918TIP3    H151169   1.938   5.841   0.622  1.9567 -1.9631 -0.1598
 9918TIP3    H251170   1.970   5.725   0.530 -2.5847 -3.4040 -0.2025
 9919TIP3   OH251171   3.133   6.018  15.323  0.2224  0.0363  0.3166
 9919TIP3    H151172   3.189   6.095  15.317 -0.1373  0.2056 -1.4808
 9919TIP3    H251173   3.051   6.045  15.282  0.1584 -1.3318 -0.5343
 9920TIP3   OH251174   2.480   0.505   1.800  0.4735  0.1009  0.0404
 9920TIP3    H151175   2.570   0.478   1.781  0.2976 -1.6659  1.4445
 9920TIP3    H251176   2.443   0.432   1.850 -1.8474  0.6544 -0.7218
 9921TIP3   OH251177   2.479   3.664  15.000  0.6820  0.2581  0.1245
 9921TIP3    H151178   2.439   3.594  14.948  1.3109  0.3520 -0.5035
 9921TIP3    H251179   2.412   3.688  15.063 -0.3498  0.5425 -1.0333
 9922TIP3   OH251180   0.526   2.765   6.314  0.2903 -0.1126 -0.0609
 9922TIP3    H151181   0.582   2.713   6.257 -2.1406 -2.7192 -0.2496
 9922TIP3    H251182   0.536   2.726   6.401 -1.1303 -0.5721 -0.0831
 9923TIP3   OH251183   3.855   3.368   3.778 -0.1238  0.6074 -0.1893
 9923TIP3    H151184   3.873   3.307   3.850  0.5920 -1.3280 -1.8933
 9923TIP3    H251185   3.917   3.439   3.792  0.2853  0.0691  0.8838
 9924TIP3   OH251186   1.178   1.819   4.675  0.1388  0.5935  0.4160
 9924TIP3    H151187   1.232   1.752   4.634 -0.5761  0.2330  0.0517
 9924TIP3    H251188   1.236   1.896   4.682  0.1035  0.8915 -1.8638
 9925TIP3   OH251189   5.395   5.861  14.896 -0.3275 -0.0120  0.0991
 9925TIP3    H151190   5.320   5.872  14.838  0.0284  0.3393 -0.2967
 9925TIP3    H251191   5.454   5.803  14.848 -0.6340 -0.8425  0.6938
 9926TIP3   OH251192   1.064   3.743  14.986 -0.4575  0.1276  0.3081
 9926TIP3    H151193   1.116   3.737  14.907  0.1180  1.5896  0.5481
 9926TIP3    H251194   1.056   3.836  15.003 -0.2151 -0.1542  2.2028
 9927TIP3   OH251195   5.223   1.078  13.346 -0.1309 -0.2291  0.2013
 9927TIP3    H151196   5.151   1.083  13.284  0.7726 -2.8528 -1.2302
 9927TIP3    H251197   5.186   1.108  13.429 -2.5122 -0.3694 -0.7389
 9928TIP3   OH251198   0.948   6.112   1.366  0.4242  0.0135  0.1086
 9928TIP3    H151199   0.979   6.174   1.300 -0.3411 -0.5347 -0.7988
 9928TIP3    H251200   0.903   6.044   1.316  0.1999 -0.6514  1.1710
 9929TIP3   OH251201   1.860   0.415  13.636 -0.9221  0.0135  0.2292
 9929TIP3    H151202   1.773   0.434  13.671 -0.8722 -0.5684  0.6945
 9929TIP3    H251203   1.851   0.330  13.593 -0.5964 -0.0273  0.2394
 9930TIP3   OH251204   1.634   5.731  16.274  0.4351 -0.6677  0.4987
 9930TIP3    H151205   1.589   5.656  16.314  0.2361 -0.5918  0.4155
 9930TIP3    H251206   1.581   5.753  16.198  1.7810 -1.9684 -0.8886
 9931TIP3   OH251207   0.212   2.309  15.292 -0.2800 -0.4899 -0.6973
 9931TIP3    H151208   0.198   2.248  15.365 -1.6444  0.5190 -0.0743
 9931TIP3    H251209   0.274   2.263  15.235 -0.6632 -2.1349  0.1242
 9932TIP3   OH251210   2.791   6.224  13.493  0.4255  0.3161 -0.0319
 9932TIP3    H151211   2.811   6.196  13.404 -0.2834  1.2138 -0.4935
 9932TIP3    H251212   2.862   6.284  13.516  1.7724 -1.5281  0.8379
 9933TIP3   OH251213   2.801   0.974  12.464  0.2048  0.2550 -0.5542
 9933TIP3    H151214   2.835   0.913  12.530  0.2647  1.5957  0.7066
 9933TIP3    H251215   2.756   0.918  12.401 -0.0704 -1.0731  0.7561
 9934TIP3   OH251216   4.851   5.989  13.306  0.2020 -0.1813 -0.4423
 9934TIP3    H151217   4.801   5.964  13.383  0.5450  1.1712  0.2590
 9934TIP3    H251218   4.914   6.053  13.338  1.0391 -0.3493 -1.6719
 9935TIP3   OH251219   1.662   2.928   3.689 -0.1213 -0.3851  0.0153
 9935TIP3    H151220   1.614   2.847   3.709  0.1481 -0.2389  1.3667
 9935TIP3    H251221   1.597   2.997   3.699 -0.6138 -0.4840 -2.1665
 9936TIP3   OH251222   0.488   4.199   4.044 -0.6640 -0.1789 -0.2426
 9936TIP3    H151223   0.448   4.176   3.960 -1.0293  0.6179 -0.2890
 9936TIP3    H251224   0.416   4.197   4.106 -0.4937 -0.2251 -0.0474
 9937TIP3   OH251225   4.264   1.467   6.403 -0.3484 -0.0764 -0.1783
 9937TIP3    H151226   4.346   1.477   6.452  0.9145 -0.6452 -2.0546
 9937TIP3    H251227   4.231   1.556   6.392  0.4015  0.2308 -0.0177
 9938TIP3   OH251228   5.110   1.227   5.858 -0.3052 -0.8614  0.4535
 9938TIP3    H151229   5.121   1.178   5.777  0.1514 -1.2287  0.7292
 9938TIP3    H251230   5.172   1.186   5.919 -0.0759 -0.0820  0.7517
 9939TIP3   OH251231   2.906   1.912   1.957 -0.3587 -0.2739 -0.0573
 9939TIP3    H151232   2.965   1.949   2.023 -1.2415  0.2800  0.4411
 9939TIP3    H251233   2.854   1.987   1.927 -0.8399 -0.7595 -0.4552
 9940TIP3   OH251234   2.761   0.707   4.605 -0.3882 -0.7896 -0.1665
 9940TIP3    H151235   2.741   0.642   4.672 -0.1886 -1.6519 -0.9306
 9940TIP3    H251236   2.803   0.658   4.535 -2.9544 -0.4191 -2.1047
 9941TIP3   OH251237   0.690   0.441   1.045  0.1855  0.4665 -0.3721
 9941TIP3    H151238   0.624   0.473   0.984  0.7740 -1.1793 -1.9706
 9941TIP3    H251239   0.772   0.446   0.995  0.9513  0.5289  0.8543
 9942TIP3   OH251240   2.802   0.900   4.007  0.6181 -0.6377  0.1197
 9942TIP3    H151241   2.853   0.904   3.926 -0.2075 -2.9869 -0.6039
 9942TIP3    H251242   2.753   0.983   4.008  1.1827 -0.2381 -1.4002
 9943TIP3   OH251243   6.544   5.312  13.461 -0.2788 -0.2869 -0.0214
 9943TIP3    H151244   6.495   5.236  13.429 -0.4221 -1.0245  1.8262
 9943TIP3    H251245   6.630   5.304  13.421  0.1642 -2.2379  1.2255
 9944TIP3   OH251246   2.824   4.398  17.201 -0.0323  0.2326  0.5689
 9944TIP3    H151247   2.782   4.318  17.170  0.5671 -0.1096  0.6047
 9944TIP3    H251248   2.825   4.389  17.296 -3.7387  2.2303  0.9532
 9945TIP3   OH251249   1.546   4.296  12.850  0.6262  0.5027  0.2173
 9945TIP3    H151250   1.520   4.379  12.811  0.3019  0.9198  1.2920
 9945TIP3    H251251   1.615   4.264  12.792 -0.4307  0.6606 -1.1847
 9946TIP3   OH251252   4.900   2.576  14.816 -0.3957  0.5230  0.7789
 9946TIP3    H151253   4.989   2.580  14.781  0.2148 -0.3104  2.1557
 9946TIP3    H251254   4.899   2.642  14.886 -0.4083 -0.4170  1.6891
 9947TIP3   OH251255   1.219   0.006  13.430 -0.3252 -0.1215 -0.1940
 9947TIP3    H151256   1.195  -0.008  13.339 -0.5029  0.5858 -0.2631
 9947TIP3    H251257   1.294   0.064  13.427  1.0353 -1.7970  0.0504
 9948TIP3   OH251258   2.450   5.983   3.923  0.1779  0.1119  0.5140
 9948TIP3    H151259   2.429   6.001   4.015 -0.2402 -0.3620  0.5146
 9948TIP3    H251260   2.537   6.022   3.911  1.1091 -1.4948  1.6399
 9949TIP3   OH251261   3.665   2.909  10.617 -0.0516  0.2017  0.5753
 9949TIP3    H151262   3.713   2.851  10.675 -0.0516 -0.7321 -0.3292
 9949TIP3    H251263   3.732   2.948  10.560 -0.1964  0.0495  0.2967
 9950TIP3   OH251264   2.043   2.663   1.837  0.0643  0.7571  0.2871
 9950TIP3    H151265   2.083   2.635   1.919 -1.7998 -2.0027  0.3723
 9950TIP3    H251266   2.114   2.656   1.773  0.9907  0.8668  1.2673
 9951TIP3   OH251267   3.333   1.391  16.450 -0.0434  0.2392 -0.1402
 9951TIP3    H151268   3.374   1.432  16.526  0.0380 -0.3709  0.1488
 9951TIP3    H251269   3.397   1.402  16.379  0.4371 -0.3281  0.2033
 9952TIP3   OH251270   0.194   4.342  13.491  0.0230 -1.0201 -0.5129
 9952TIP3    H151271   0.167   4.373  13.405  3.0356 -0.0176 -1.2136
 9952TIP3    H251272   0.242   4.261  13.474  1.7369 -0.1660 -0.0115
 9953TIP3   OH251273   1.942   5.088  11.280  0.5523  0.0445  0.5592
 9953TIP3    H151274   1.962   4.996  11.295 -1.7949 -0.1905  3.1981
 9953TIP3    H251275   2.009   5.136  11.329 -0.5038 -0.4489  2.5720
 9954TIP3   OH251276   2.220   4.879   4.349  0.4464 -0.1924  0.0039
 9954TIP3    H151277   2.247   4.814   4.284  0.5976  1.4951 -1.7399
 9954TIP3    H251278   2.301   4.923   4.375  0.2274  0.0487  0.2908
 9955TIP3   OH251279   2.435   2.831   1.679 -0.4520 -0.2742  0.2054
 9955TIP3    H151280   2.515   2.853   1.631 -1.0421  0.3615 -0.4906
 9955TIP3    H251281   2.408   2.913   1.721  0.1233 -0.8405  1.7593
 9956TIP3   OH251282   3.275   3.928  14.905 -0.0517 -0.4429  0.6370
 9956TIP3    H151283   3.201   3.906  14.848 -0.2997 -2.2323  1.5747
 9956TIP3    H251284   3.234   3.965  14.983  0.1474 -0.0563  0.5604
 9957TIP3   OH251285   0.009   0.817   2.363 -0.6186 -0.4340 -0.1431
 9957TIP3    H151286   0.065   0.751   2.404  0.8374  0.5665 -0.4710
 9957TIP3    H251287   0.069   0.877   2.320 -1.8221  1.6605  0.9112
 9958TIP3   OH251288   2.433   0.211   6.240  0.2277 -0.1240  0.6579
 9958TIP3    H151289   2.448   0.196   6.334  0.9095 -0.8586  0.4458
 9958TIP3    H251290   2.406   0.126   6.206  2.2123 -0.4579 -0.2153
 9959TIP3   OH251291   2.541   0.083   2.623  0.0763 -0.5917 -0.9542
 9959TIP3    H151292   2.582   0.027   2.558  0.4035  1.4363 -2.5956
 9959TIP3    H251293   2.511   0.160   2.574 -1.1994  0.2669  1.0129
 9960TIP3   OH251294   4.060   1.413  14.613 -0.1534 -0.2530 -0.2841
 9960TIP3    H151295   3.978   1.368  14.630  0.5637 -0.8577  1.8388
 9960TIP3    H251296   4.110   1.405  14.694  2.7362 -1.4280 -1.9988
 9961TIP3   OH251297   0.136   3.207   3.529 -0.5826  0.2498  0.0813
 9961TIP3    H151298   0.160   3.163   3.447 -1.1888  2.3591 -1.3117
 9961TIP3    H251299   0.108   3.136   3.587  2.3895 -1.6290 -0.5414
 9962TIP3   OH251300   5.075   5.197   5.707  0.3150 -0.0058  0.5217
 9962TIP3    H151301   5.018   5.274   5.705  0.4663  0.1450  1.3538
 9962TIP3    H251302   5.156   5.228   5.748 -0.7227 -1.2552  3.8570
 9963TIP3   OH251303   6.696   5.250   5.256 -0.2443 -0.5017  0.1817
 9963TIP3    H151304   6.701   5.345   5.266 -1.7072 -0.4317  0.5665
 9963TIP3    H251305   6.622   5.237   5.197  0.2627 -1.3996 -0.2717
 9964TIP3   OH251306   2.683   5.169  12.286  0.2107 -0.4362  0.1233
 9964TIP3    H151307   2.741   5.190  12.212 -0.2974 -0.7348 -0.3593
 9964TIP3    H251308   2.681   5.074  12.290 -1.6871 -0.4762 -1.0150
 9965TIP3   OH251309   4.478   6.387  12.433  0.3321 -0.0429  0.7414
 9965TIP3    H151310   4.553   6.420  12.383  0.6947 -1.2630  0.4358
 9965TIP3    H251311   4.516   6.355  12.515  0.2275 -1.0379  0.4184
 9966TIP3   OH251312   4.775   5.084   3.073  0.1051  0.2134 -0.0500
 9966TIP3    H151313   4.770   4.996   3.111 -1.5156  0.0329 -0.5616
 9966TIP3    H251314   4.853   5.123   3.111  1.6069 -1.8962 -0.7628
 9967TIP3   OH251315   4.965   4.659  15.487 -0.1365 -0.5242  0.3366
 9967TIP3    H151316   5.019   4.584  15.511 -0.8112 -0.5525  1.9216
 9967TIP3    H251317   4.882   4.622  15.460 -0.3643 -0.3760  0.8171
 9968TIP3   OH251318   1.320   1.157  12.172 -0.3899  0.0115  0.3203
 9968TIP3    H151319   1.396   1.188  12.222 -1.2022  0.4509  1.3449
 9968TIP3    H251320   1.356   1.106  12.100  0.9035  0.9452  0.2777
 9969TIP3   OH251321   2.340   6.633   0.346 -0.0704  0.5147  0.0486
 9969TIP3    H151322   2.406   6.642   0.278 -0.6714  0.3370 -0.5749
 9969TIP3    H251323   2.374   6.566   0.405  1.3983  2.0750  1.0812
 9970TIP3   OH251324   5.697   1.291  13.886 -0.4993  0.4255  0.1018
 9970TIP3    H151325   5.623   1.313  13.942 -1.8237  0.0893 -1.4337
 9970TIP3    H251326   5.678   1.202  13.856  0.6800  0.2332 -0.1034
 9971TIP3   OH251327   5.833   4.060   0.504  0.0883  0.0809  0.2274
 9971TIP3    H151328   5.748   4.027   0.533  0.7862 -0.1615  2.1648
 9971TIP3    H251329   5.816   4.150   0.476 -0.8681 -0.1103  0.1694
 9972TIP3   OH251330   3.721   6.529   5.089  0.1642 -0.5650  0.0738
 9972TIP3    H151331   3.701   6.441   5.119  0.5914 -0.8948 -0.5928
 9972TIP3    H251332   3.694   6.586   5.162  0.3995 -1.2810  0.7350
 9973TIP3   OH251333   0.417   0.294   1.501  0.1733  0.5295 -0.6216
 9973TIP3    H151334   0.353   0.359   1.530 -0.8323 -0.2948 -0.9615
 9973TIP3    H251335   0.394   0.214   1.547  1.1183  0.2786 -0.5641
 9974TIP3   OH251336   1.723   0.755  17.262 -0.4096 -0.1278  0.5861
 9974TIP3    H151337   1.670   0.823  17.302 -0.9010 -0.3762  0.3654
 9974TIP3    H251338   1.776   0.801  17.196  1.3287  0.4991  2.3166
 9975TIP3   OH251339   6.535   3.311   4.473  0.2674  0.5466  0.3059
 9975TIP3    H151340   6.539   3.236   4.532 -0.4522  1.5244  1.6336
 9975TIP3    H251341   6.546   3.387   4.529 -0.9835  1.5399 -0.7224
 9976TIP3   OH251342   1.247   6.202   2.874 -0.0748 -0.5677 -0.4610
 9976TIP3    H151343   1.306   6.275   2.858  2.5689 -2.2592  0.8176
 9976TIP3    H251344   1.248   6.152   2.793  1.3901 -1.2572 -0.0642
 9977TIP3   OH251345   4.122   5.622  16.469 -0.8190  0.4503  0.5674
 9977TIP3    H151346   4.140   5.649  16.559 -2.2603 -0.6059  1.2048
 9977TIP3    H251347   4.053   5.682  16.439 -2.6060 -1.1381  1.3041
 9978TIP3   OH251348   3.850   6.197  11.890  0.4680 -0.4604  0.2615
 9978TIP3    H151349   3.839   6.278  11.940  2.9357  0.2740 -0.2875
 9978TIP3    H251350   3.800   6.211  11.810  0.0709  0.1009  0.6019
 9979TIP3   OH251351   0.868   0.268  13.496  0.1635 -0.4830  0.1033
 9979TIP3    H151352   0.919   0.192  13.522 -2.3791 -2.8660 -1.3261
 9979TIP3    H251353   0.808   0.284  13.570  0.1930 -0.3508  0.0986
 9980TIP3   OH251354   2.200   5.076   3.201 -0.4162 -0.3519 -0.2569
 9980TIP3    H151355   2.256   5.145   3.164 -2.5432  0.3881 -2.3384
 9980TIP3    H251356   2.152   5.119   3.272  0.0365 -0.3784  0.0676
 9981TIP3   OH251357   5.806   2.320  16.893  0.4688 -0.9784 -0.3653
 9981TIP3    H151358   5.759   2.318  16.976  2.1885 -2.3028  0.6479
 9981TIP3    H251359   5.881   2.379  16.910 -0.0941  0.1334 -1.5507
 9982TIP3   OH251360   5.801   5.070   4.388 -0.2325  0.6490  0.3213
 9982TIP3    H151361   5.732   5.096   4.449 -0.0510  0.3738  0.6471
 9982TIP3    H251362   5.856   5.009   4.438 -0.6077 -0.3036 -0.3970
 9983TIP3   OH251363   0.939   3.504  14.082  0.0194 -0.2276  0.3932
 9983TIP3    H151364   0.978   3.453  14.010 -0.8507 -2.6381  1.5326
 9983TIP3    H251365   0.994   3.583  14.088  0.6451 -0.3524 -2.3011
 9984TIP3   OH251366   6.705   0.707  14.403  0.3053  0.1465 -0.2973
 9984TIP3    H151367   6.646   0.632  14.392  1.0516 -0.3961 -0.6159
 9984TIP3    H251368   6.776   0.675  14.458  1.2739  0.2482 -1.4460
 9985TIP3   OH251369   5.359   4.992  15.135  0.2590 -0.3960 -0.2381
 9985TIP3    H151370   5.451   5.011  15.113  0.6435 -1.9065 -0.0453
 9985TIP3    H251371   5.333   4.923  15.074 -0.2376 -1.0988  0.7413
 9986TIP3   OH251372   4.983   3.470  12.820  0.3423  0.1674  0.4678
 9986TIP3    H151373   5.012   3.387  12.782 -0.7219 -0.5999  1.2636
 9986TIP3    H251374   4.929   3.510  12.752  0.1387 -0.2172  0.3990
 9987TIP3   OH251375   5.279   6.147   1.661  0.2897 -0.3452  0.8869
 9987TIP3    H151376   5.189   6.150   1.628 -0.1391 -0.0744  2.0295
 9987TIP3    H251377   5.329   6.106   1.591 -0.7156 -0.4482  0.2099
 9988TIP3   OH251378   1.786   4.018   2.856  0.1172 -0.0020  0.6481
 9988TIP3    H151379   1.721   3.987   2.919 -0.9556 -0.8964 -0.8232
 9988TIP3    H251380   1.767   3.969   2.776  3.9179 -1.8874  0.6650
 9989TIP3   OH251381   1.909   5.493  13.827  0.0380 -0.6530 -0.0633
 9989TIP3    H151382   1.935   5.573  13.873  0.4696 -0.5183 -0.5373
 9989TIP3    H251383   1.979   5.478  13.764 -0.8475 -0.4859 -1.1168
 9990TIP3   OH251384   1.676   3.203  12.582  0.0400 -0.1638 -0.0764
 9990TIP3    H151385   1.692   3.109  12.576  0.8593 -0.1338  1.2548
 9990TIP3    H251386   1.739   3.242  12.521  0.2299 -0.4396 -0.0581
 9991TIP3   OH251387   0.605   2.925   4.715 -0.0383  0.1558 -0.1706
 9991TIP3    H151388   0.539   2.948   4.649 -0.1908 -3.2051 -1.4100
 9991TIP3    H251389   0.688   2.926   4.667  0.0564 -0.7831 -0.0510
 9992TIP3   OH251390   5.153   1.034   5.663  0.6837  0.1587 -0.3189
 9992TIP3    H151391   5.189   1.020   5.576  0.8595 -0.1703 -0.1942
 9992TIP3    H251392   5.219   0.998   5.722  0.6055  0.4590 -0.0473
 9993TIP3   OH251393   0.530   1.546  14.843  0.0736 -0.3225  0.1900
 9993TIP3    H151394   0.435   1.533  14.851 -0.0246 -0.3936 -0.8864
 9993TIP3    H251395   0.558   1.479  14.781  0.5179  0.8666 -0.9452
 9994TIP3   OH251396   2.738   5.152   5.096 -0.1045 -0.3838 -0.1958
 9994TIP3    H151397   2.818   5.205   5.104  0.1513 -0.3978 -2.1937
 9994TIP3    H251398   2.668   5.216   5.083 -0.1437 -0.4541 -0.3282
 9995TIP3   OH251399   2.789   0.903  14.692 -0.3259 -0.1811 -0.0526
 9995TIP3    H151400   2.882   0.929  14.694 -0.1974 -0.6485  0.2384
 9995TIP3    H251401   2.789   0.814  14.726 -1.3109  1.0629  3.6438
 9996TIP3   OH251402   5.162   3.022  14.504 -0.3125 -0.2339  0.5104
 9996TIP3    H151403   5.179   2.958  14.436  0.5830 -1.2425  1.6373
 9996TIP3    H251404   5.087   3.072  14.472 -0.9905 -1.7878 -0.4217
 9997TIP3   OH251405   1.630   5.530  11.353 -0.4768 -0.3845 -0.7093
 9997TIP3    H151406   1.540   5.503  11.375  0.0347 -1.6607 -0.0571
 9997TIP3    H251407   1.681   5.506  11.430  0.8012 -1.8521 -1.9458
 9998TIP3   OH251408   5.580   2.942  11.551  0.1017  0.5909 -0.0165
 9998TIP3    H151409   5.531   2.972  11.628 -0.6949 -0.0765 -0.2573
 9998TIP3    H251410   5.550   2.999  11.481  0.5586  0.9588  0.0789
 9999TIP3   OH251411   5.389   5.041   5.198 -0.0751 -0.0906  0.1916
 9999TIP3    H151412   5.475   5.014   5.168  0.4687  0.6290  1.0621
 9999TIP3    H251413   5.346   5.077   5.120  1.2299  1.5726  0.2024
10000TIP3   OH251414   3.714   1.435  16.539 -0.4683 -0.3432 -0.3819
10000TIP3    H151415   3.781   1.445  16.606 -0.4621 -1.8924 -0.1224
10000TIP3    H251416   3.762   1.438  16.456 -0.4758  1.5766 -0.3802
10001TIP3   OH251417   5.492   4.292  13.512  0.2951  0.5626  0.4277
10001TIP3    H151418   5.403   4.305  13.479 -0.1575  0.5216  1.5931
10001TIP3    H251419   5.544   4.357  13.465 -0.5235  1.2484  0.4415
10002TIP3   OH251420   4.949   2.280  12.783  0.1628  0.1587 -0.2078
10002TIP3    H151421   4.920   2.368  12.805  0.8405  0.0100  1.4186
10002TIP3    H251422   4.932   2.272  12.689 -2.2768  1.1018  0.0791
10003TIP3   OH251423   6.681   0.453  13.632 -0.3070  0.1533  0.2129
10003TIP3    H151424   6.691   0.361  13.605  0.6040  0.5636 -0.8923
10003TIP3    H251425   6.586   0.464  13.642 -0.4150 -0.9613  0.5488
10004TIP3   OH251426   3.462   0.582  17.298 -0.4155 -0.6485  0.1704
10004TIP3    H151427   3.413   0.541  17.370 -0.6082  1.3245  1.2579
10004TIP3    H251428   3.416   0.665  17.283 -0.2050 -0.8815 -2.0856
10005TIP3   OH251429   4.314   4.939  11.870  0.2149 -0.6076  0.7268
10005TIP3    H151430   4.284   5.014  11.819  1.1255  1.4263  2.9748
10005TIP3    H251431   4.359   4.883  11.807 -0.6846  0.6170 -1.0773
10006TIP3   OH251432   5.460   3.949   5.565 -0.4371  0.1073  0.0144
10006TIP3    H151433   5.421   3.974   5.481 -1.0857 -2.2651 -0.4636
10006TIP3    H251434   5.389   3.960   5.629 -1.4061 -2.3947 -0.5440
10007TIP3   OH251435   2.133   1.662  12.959 -0.1852  0.0002  0.2775
10007TIP3    H151436   2.068   1.660  12.888  1.2357  1.5666 -1.1882
10007TIP3    H251437   2.095   1.719  13.025 -0.3555  0.9285 -0.5834
10008TIP3   OH251438   6.049   0.728  11.237  0.0323 -0.3688 -0.7333
10008TIP3    H151439   5.954   0.733  11.233  0.0219  0.9460  0.5300
10008TIP3    H251440   6.071   0.653  11.181 -1.6876 -0.3646 -1.4816
10009TIP3   OH251441   4.055   2.797  15.171  0.2823  0.1563 -0.5235
10009TIP3    H151442   4.004   2.778  15.092 -0.7248  1.3674 -0.2029
10009TIP3    H251443   4.146   2.795  15.142 -0.1131  2.0310 -2.0828
10010TIP3   OH251444   4.830   4.506   3.591  0.2205 -0.2257  0.2185
10010TIP3    H151445   4.756   4.446   3.606  1.3795 -1.8991 -0.4039
10010TIP3    H251446   4.848   4.544   3.677 -0.7380 -0.5487  0.5766
10011TIP3   OH251447   0.806   6.388   4.321  0.5994 -0.2946  0.2705
10011TIP3    H151448   0.715   6.358   4.321  0.6176 -0.3485  0.3633
10011TIP3    H251449   0.857   6.309   4.337  0.6339 -0.1751  0.7623
10012TIP3   OH251450   4.856   2.214   5.753  0.3295  0.2956  0.5798
10012TIP3    H151451   4.884   2.271   5.825  0.6796 -0.5661  1.1290
10012TIP3    H251452   4.761   2.209   5.763  0.0167  2.4469 -0.7170
10013TIP3   OH251453   6.143   1.450   3.574 -0.4121  0.2375 -0.2204
10013TIP3    H151454   6.052   1.443   3.547 -0.4165  1.0162 -0.4439
10013TIP3    H251455   6.157   1.376   3.633 -0.8531 -0.5814 -1.1168
10014TIP3   OH251456   6.585   4.859  14.581 -0.4246  0.1416  0.6734
10014TIP3    H151457   6.602   4.878  14.489  1.4001 -1.7345  0.5499
10014TIP3    H251458   6.607   4.940  14.627 -0.6200  0.8489 -0.4541
10015TIP3   OH251459   0.943   5.514   0.710  0.2536  0.3992 -0.1010
10015TIP3    H151460   0.955   5.438   0.767 -0.4912  0.2155 -0.1754
10015TIP3    H251461   0.851   5.537   0.720  0.8646  2.4872  1.3694
10016TIP3   OH251462   0.559   1.295   3.524  0.8204  0.3028 -0.0251
10016TIP3    H151463   0.615   1.268   3.451  0.0175  1.3034 -1.0551
10016TIP3    H251464   0.585   1.239   3.596  1.2592 -1.1196 -1.2387
10017TIP3   OH251465   5.451   4.864  14.891  0.2179  0.0581  0.2096
10017TIP3    H151466   5.419   4.925  14.824  1.1086  0.9703  0.5895
10017TIP3    H251467   5.526   4.909  14.930  0.8086 -1.2313  0.5983
10018TIP3   OH251468   5.504   1.763  12.917 -0.1051 -0.1635 -0.0218
10018TIP3    H151469   5.552   1.750  12.999  0.0904 -0.6649 -0.2098
10018TIP3    H251470   5.426   1.707  12.926  0.3719 -0.9270 -0.5413
10019TIP3   OH251471   0.061   4.096   4.185 -0.2284  0.1989 -0.2469
10019TIP3    H151472   0.046   4.099   4.279 -0.4079  1.3127 -0.2976
10019TIP3    H251473  -0.024   4.072   4.148 -0.4509  0.8494 -0.1799
10020TIP3   OH251474   6.257   2.961   1.866  0.2279  0.1677 -0.1530
10020TIP3    H151475   6.260   2.999   1.778 -0.8578  0.3516 -0.1198
10020TIP3    H251476   6.279   2.869   1.852  0.1542  0.2147 -0.6084
10021TIP3   OH251477   2.577   3.599   3.914  0.5035  0.2028  0.5697
10021TIP3    H151478   2.672   3.595   3.904  0.5967  1.0119  1.0888
10021TIP3    H251479   2.543   3.579   3.827  1.1511  0.1337  0.3249
10022TIP3   OH251480   2.907   0.817  13.993  0.0551  0.2014 -0.4155
10022TIP3    H151481   2.999   0.795  13.999  0.6007  2.0263 -1.3342
10022TIP3    H251482   2.861   0.741  14.028  1.9259 -0.3540  0.9615
10023TIP3   OH251483   3.022   3.530   2.552 -0.2231 -0.2143 -0.9979
10023TIP3    H151484   3.099   3.517   2.496  2.4918  0.0806  2.3000
10023TIP3    H251485   3.057   3.575   2.629 -3.7637 -0.1825  0.7697
10024TIP3   OH251486   5.219   6.249  13.763 -0.6623  0.3169  0.2298
10024TIP3    H151487   5.219   6.324  13.705 -0.7442  1.4488  1.6321
10024TIP3    H251488   5.170   6.278  13.840 -0.2250 -0.9831  1.0372
10025TIP3   OH251489   3.555   5.766  15.128 -0.3725 -0.0418 -0.3895
10025TIP3    H151490   3.462   5.790  15.120 -0.1259  1.1641  0.0879
10025TIP3    H251491   3.582   5.747  15.038 -0.7573  0.9241 -0.7286
10026TIP3   OH251492   0.251   4.413   4.041  0.0891  0.0846  0.3064
10026TIP3    H151493   0.247   4.319   4.025 -1.6219  0.0253  0.8787
10026TIP3    H251494   0.307   4.422   4.118  1.3502 -0.3210 -0.5229
10027TIP3   OH251495   5.078   0.254  15.760  0.3160  0.6338  0.7466
10027TIP3    H151496   4.992   0.212  15.761  0.7104 -0.2235  0.0655
10027TIP3    H251497   5.059   0.347  15.760 -0.7149  0.5342 -2.4940
10028TIP3   OH251498   5.798   2.958  10.633  0.2515  0.2506  0.1656
10028TIP3    H151499   5.706   2.937  10.617  0.6842 -2.1562  0.4786
10028TIP3    H251500   5.842   2.873  10.633  2.0056  1.0375  2.9448
10029TIP3   OH251501   1.152   5.790   0.214 -0.0123  0.3905 -0.0419
10029TIP3    H151502   1.221   5.846   0.248 -1.1216  1.5529  0.3635
10029TIP3    H251503   1.076   5.808   0.270 -0.5772 -1.0654 -0.2870
10030TIP3   OH251504   4.214   6.312   0.999  0.2676 -0.5640 -0.1372
10030TIP3    H151505   4.165   6.345   0.924  0.8778  1.0540  0.1465
10030TIP3    H251506   4.274   6.247   0.962 -0.1617 -0.5516 -0.8779
10031TIP3   OH251507   6.400   0.232  11.945  0.1522  0.4759 -0.0270
10031TIP3    H151508   6.483   0.219  11.900 -0.9871  0.3141 -2.2482
10031TIP3    H251509   6.382   0.326  11.935  1.2510  1.0952  2.7974
10032TIP3   OH251510   5.506   3.184   0.163 -0.8567 -0.1082  0.3008
10032TIP3    H151511   5.564   3.259   0.179  0.7526 -0.4441 -3.1353
10032TIP3    H251512   5.438   3.192   0.230  0.7525  2.8141  1.7919
10033TIP3   OH251513   3.872   2.197  13.862  0.0384  0.2567 -0.6224
10033TIP3    H151514   3.812   2.127  13.888 -0.3193  1.0295  0.7645
10033TIP3    H251515   3.835   2.231  13.780 -1.6585  0.9129  0.3572
10034TIP3   OH251516   0.551   6.543   5.892 -0.2770 -0.1492  0.2867
10034TIP3    H151517   0.530   6.450   5.886 -0.9744 -0.1440  2.0237
10034TIP3    H251518   0.632   6.553   5.841  0.7604 -2.0344  1.4493
10035TIP3   OH251519   6.345   4.882   6.338 -0.0693 -0.1550 -0.0571
10035TIP3    H151520   6.433   4.856   6.310  0.1458  0.9401 -0.4631
10035TIP3    H251521   6.286   4.831   6.283  0.3192 -0.5259 -0.1303
10036TIP3   OH251522   4.110   3.158  17.349 -0.0313  0.2651  0.4021
10036TIP3    H151523   4.105   3.140  17.255 -0.4422  1.1342  0.2527
10036TIP3    H251524   4.020   3.146  17.381  0.4470 -2.1611  1.1153
10037TIP3   OH251525   3.480   0.307   1.126  0.0724 -0.4210 -0.1611
10037TIP3    H151526   3.412   0.288   1.190  0.1412  1.4104  0.5235
10037TIP3    H251527   3.526   0.224   1.114 -1.9802 -1.5872 -0.3232
10038TIP3   OH251528   5.926   2.571   1.260 -0.2868 -0.3912  0.1241
10038TIP3    H151529   5.988   2.630   1.217 -1.1982  2.5153  2.4569
10038TIP3    H251530   5.981   2.503   1.299  0.8868 -0.7458 -2.0088
10039TIP3   OH251531   6.109   2.645   3.403  0.3447  0.9926  0.3727
10039TIP3    H151532   6.092   2.658   3.496 -0.4001  0.4085  0.3275
10039TIP3    H251533   6.029   2.675   3.359 -0.2448 -0.8621  0.0820
10040TIP3   OH251534   1.134   4.089   2.272 -0.1248  0.5012  0.2279
10040TIP3    H151535   1.171   4.074   2.186 -2.0223  1.6901 -0.8796
10040TIP3    H251536   1.160   4.179   2.294  0.5264  0.1320  1.0005
10041TIP3   OH251537   1.763   3.255   2.971 -0.0264  0.1296 -0.0215
10041TIP3    H151538   1.767   3.272   2.877  0.6758  1.0812  0.1654
10041TIP3    H251539   1.847   3.285   3.005 -0.8189  1.1792  1.1269
10042TIP3   OH251540   4.220   1.898  17.107  0.0379  0.2116  0.4616
10042TIP3    H151541   4.294   1.843  17.134 -0.9766 -2.6568 -1.9617
10042TIP3    H251542   4.255   1.953  17.037  0.4219  0.6571  0.9977
10043TIP3   OH251543   4.441   6.471  11.930  0.5141 -0.2372 -0.2181
10043TIP3    H151544   4.530   6.467  11.966  0.5199  0.0512 -0.1913
10043TIP3    H251545   4.442   6.411  11.856  0.3564 -1.2327  0.5642
10044TIP3   OH251546   6.058   1.393  15.197 -0.4412 -0.0222 -0.3708
10044TIP3    H151547   6.002   1.366  15.270 -0.1842 -2.1669 -0.8974
10044TIP3    H251548   6.050   1.488  15.194 -1.9867 -0.0599  1.2072
10045TIP3   OH251549   4.816   4.957   5.289 -0.3585 -0.0429 -0.2276
10045TIP3    H151550   4.758   5.014   5.238  0.0400  0.8923  0.3244
10045TIP3    H251551   4.855   5.016   5.354 -0.1435 -1.0200  0.5438
10046TIP3   OH251552   1.915   1.367  15.292  0.4152 -0.6568  0.2702
10046TIP3    H151553   1.837   1.387  15.240 -0.0237 -1.5331  0.5736
10046TIP3    H251554   1.905   1.420  15.371  0.3925 -0.3777  0.0849
10047TIP3   OH251555   2.371   0.256   5.622 -0.5543  0.3027  1.4595
10047TIP3    H151556   2.425   0.271   5.544 -2.3230 -0.7587 -0.0617
10047TIP3    H251557   2.421   0.192   5.673 -0.2812 -0.6191  0.1210
10048TIP3   OH251558   5.130   0.510   6.057 -0.5954 -0.0655 -0.1584
10048TIP3    H151559   5.155   0.576   6.121  1.0007 -1.2620  0.5354
10048TIP3    H251560   5.039   0.529   6.037 -0.3147  2.0486  0.3385
10049TIP3   OH251561   5.497   1.365   3.494 -0.3612 -0.1713  0.2958
10049TIP3    H151562   5.542   1.425   3.435  1.3431 -0.4037  1.2967
10049TIP3    H251563   5.447   1.422   3.553  2.1488  0.4419  1.9813
10050TIP3   OH251564   2.290   5.629  13.907 -0.8119  0.0258  0.4664
10050TIP3    H151565   2.380   5.610  13.933 -1.4206 -0.9300  2.0608
10050TIP3    H251566   2.296   5.660  13.817  1.3267  2.2158  1.2725
10051TIP3   OH251567   2.901   3.637   1.925 -0.2578  0.1870 -0.0522
10051TIP3    H151568   2.900   3.683   2.009 -1.3648  0.0248  0.0374
10051TIP3    H251569   2.883   3.546   1.947  1.3070 -0.2157 -0.2933
10052TIP3   OH251570   0.341   5.911  16.062 -0.6501  0.1109  0.2017
10052TIP3    H151571   0.332   5.894  16.156 -1.9076  2.6205  0.6234
10052TIP3    H251572   0.421   5.864  16.036 -0.5295 -1.0120  2.4058
10053TIP3   OH251573   3.005   6.333  14.681  0.4368 -0.4404  0.2208
10053TIP3    H151574   3.048   6.277  14.746  0.6725  0.8095  1.1789
10053TIP3    H251575   3.055   6.414  14.684  2.4917 -1.3201 -3.8262
10054TIP3   OH251576   3.971   5.209  17.229  0.2249  0.7411 -0.3142
10054TIP3    H151577   4.004   5.191  17.141 -1.2394 -1.1616 -0.5440
10054TIP3    H251578   3.889   5.257  17.214 -0.2361  0.0535 -0.0148
10055TIP3   OH251579   2.902   2.577   2.796  0.5445  0.0795 -0.3389
10055TIP3    H151580   2.864   2.489   2.796 -0.9651  0.6550  1.3102
10055TIP3    H251581   2.837   2.631   2.750  1.6099  0.3047 -1.6303
10056TIP3   OH251582   0.178   5.389  17.393 -0.0013  0.2420 -0.3175
10056TIP3    H151583   0.108   5.325  17.407 -0.0089  0.2841 -0.1514
10056TIP3    H251584   0.138   5.473  17.414 -0.3878  0.4664 -1.8345
10057TIP3   OH251585   6.551   1.198  16.740 -0.0144 -0.4353 -0.1766
10057TIP3    H151586   6.549   1.235  16.828 -1.7784  0.1988 -0.4341
10057TIP3    H251587   6.643   1.203  16.714  0.2230  1.4189  0.7990
10058TIP3   OH251588   6.586   5.578  15.666  0.1526  0.1689  0.1687
10058TIP3    H151589   6.563   5.489  15.640  2.9833  0.0064 -2.2659
10058TIP3    H251590   6.616   5.569  15.756  2.1027 -1.7544 -0.5888
10059TIP3   OH251591   5.935   1.975  14.794  0.0734  0.3137 -0.0323
10059TIP3    H151592   6.004   1.938  14.740  1.2461  0.8411  1.0674
10059TIP3    H251593   5.854   1.938  14.758  0.9419 -0.6105 -1.0963
10060TIP3   OH251594   1.502   2.146   3.832  0.0206  0.0148 -0.3660
10060TIP3    H151595   1.485   2.072   3.774 -2.3625  0.7909 -0.7637
10060TIP3    H251596   1.432   2.142   3.897  0.9224  0.8789  0.7023
10061TIP3   OH251597   6.065   4.759   5.498  0.2800  0.5761  0.3122
10061TIP3    H151598   6.078   4.845   5.459  1.8712  0.5226  0.6600
10061TIP3    H251599   6.087   4.697   5.428  0.3711  0.4546  0.4485
10062TIP3   OH251600   6.302   6.258   4.868  0.0410  0.1731  0.0582
10062TIP3    H151601   6.350   6.177   4.851  0.8177  0.7038 -0.3227
10062TIP3    H251602   6.226   6.230   4.920 -0.1582 -0.9045 -0.7726
10063TIP3   OH251603   5.157   4.081   1.214  0.6584  0.3314 -0.1301
10063TIP3    H151604   5.188   4.117   1.297  1.0977  0.8844 -0.5247
10063TIP3    H251605   5.228   4.023   1.186 -0.2686 -1.3010  0.7604
10064TIP3   OH251606   3.754   4.219  17.058  0.0913 -1.1397 -0.2705
10064TIP3    H151607   3.713   4.189  17.139  0.9749 -0.8705  0.2997
10064TIP3    H251608   3.714   4.304  17.040 -1.3359 -1.9591 -1.0678
10065TIP3   OH251609   6.689   1.293   0.232  0.6495 -0.3881  0.2187
10065TIP3    H151610   6.659   1.341   0.155  1.4442  0.4551  0.4158
10065TIP3    H251611   6.686   1.201   0.206  0.4758 -0.1418 -0.6673
10066TIP3   OH251612   4.305   6.460   0.604 -0.6707 -0.0287 -0.1426
10066TIP3    H151613   4.354   6.441   0.524 -1.4602  1.5759 -1.0631
10066TIP3    H251614   4.213   6.453   0.577 -0.9495  1.1212  0.4453
10067TIP3   OH251615   0.479   5.656  16.918 -0.3215 -0.7472 -0.4643
10067TIP3    H151616   0.572   5.647  16.898 -0.4013  0.3093 -1.4509
10067TIP3    H251617   0.476   5.711  16.996 -0.1246  0.0662 -1.0158
10068TIP3   OH251618   3.011   5.341   0.755  0.1581 -0.1036  0.4779
10068TIP3    H151619   2.923   5.379   0.750 -0.1113 -0.8378 -2.9058
10068TIP3    H251620   3.050   5.359   0.669  2.0500 -2.6750  0.6784
10069TIP3   OH251621   2.323   4.444  14.798  0.3073  0.2936 -0.6582
10069TIP3    H151622   2.335   4.350  14.812  1.1668  0.4150 -0.5401
10069TIP3    H251623   2.301   4.451  14.705  0.3651 -0.0152 -0.6972
10070TIP3   OH251624   3.986   3.708   1.154  0.0126  0.8645  0.6663
10070TIP3    H151625   3.998   3.681   1.062  0.2530  1.3707  0.5412
10070TIP3    H251626   4.069   3.683   1.196 -0.3038  0.1437  0.8738
10071TIP3   OH251627   2.056   3.641  15.592  0.3691  0.0649 -0.5175
10071TIP3    H151628   1.997   3.687  15.652  0.3804 -1.1100  0.4139
10071TIP3    H251629   2.093   3.570  15.644  1.8213  0.1441 -1.3873
10072TIP3   OH251630   2.006   2.886  15.507 -0.1672 -0.8609  0.5265
10072TIP3    H151631   1.920   2.916  15.477  0.1066  0.4492  0.9776
10072TIP3    H251632   2.005   2.791  15.492  0.2293 -0.3494 -4.3108
10073TIP3   OH251633   6.306   2.463  10.504  0.1590 -0.3071  0.0274
10073TIP3    H151634   6.217   2.470  10.538 -0.5789 -0.1562 -1.8378
10073TIP3    H251635   6.347   2.547  10.526 -1.4465  1.2411 -2.4570
10074TIP3   OH251636   4.864   5.416   2.717  0.1730 -0.4575  0.0779
10074TIP3    H151637   4.808   5.492   2.708 -0.3486 -0.7918  0.4938
10074TIP3    H251638   4.840   5.359   2.644  0.4489 -0.3013 -0.1379
10075TIP3   OH251639   3.054   1.349  15.448  0.0492 -0.3916  0.4125
10075TIP3    H151640   3.113   1.286  15.490 -2.0205 -1.4963  1.8074
10075TIP3    H251641   3.110   1.396  15.386  2.3825 -1.3775  1.6396
10076TIP3   OH251642   0.442   3.337   0.730 -0.1571 -0.5014 -0.1807
10076TIP3    H151643   0.427   3.319   0.637 -0.9538  1.9833 -0.6186
10076TIP3    H251644   0.510   3.275   0.756  2.5766  0.8793 -3.3375
10077TIP3   OH251645   0.410   5.965   1.568  0.3054  0.4237  0.1091
10077TIP3    H151646   0.465   5.950   1.645  0.7055  0.8836 -0.0794
10077TIP3    H251647   0.406   6.060   1.560 -1.7712  0.4613  0.9942
10078TIP3   OH251648   5.483   1.565   2.629 -0.3912 -0.0937 -0.2134
10078TIP3    H151649   5.458   1.476   2.654  0.9817 -0.5072 -0.2434
10078TIP3    H251650   5.463   1.618   2.706 -1.2921 -0.4032 -0.2254
10079TIP3   OH251651   5.655   6.515  16.327  0.0760  0.1673 -0.4479
10079TIP3    H151652   5.608   6.589  16.290 -0.5826  0.4467  0.8878
10079TIP3    H251653   5.704   6.478  16.253  1.2088  2.5124 -0.9751
10080TIP3   OH251654   4.351   4.251  17.095  0.1350  0.2046  0.4240
10080TIP3    H151655   4.336   4.200  17.016 -0.6552 -1.0696  1.3698
10080TIP3    H251656   4.447   4.253  17.104  0.1962 -1.8769  0.8111
10081TIP3   OH251657   4.045   5.336  13.162 -0.0654  0.3393 -0.1691
10081TIP3    H151658   4.105   5.409  13.145  0.4368 -0.0423 -0.0408
10081TIP3    H251659   4.029   5.341  13.257 -0.2943  0.4792 -0.2125
10082TIP3   OH251660   5.466   4.359   4.711  0.8150 -0.4675  0.6552
10082TIP3    H151661   5.515   4.435   4.744  1.2409 -0.9107  1.0604
10082TIP3    H251662   5.496   4.348   4.621 -1.1089  1.3901 -0.3109
10083TIP3   OH251663   1.867   0.359  15.722 -0.7407  0.1667 -0.5163
10083TIP3    H151664   1.941   0.306  15.750 -0.2703  0.6168 -0.8674
10083TIP3    H251665   1.906   0.429  15.669 -1.3285  0.8800 -0.0481
10084TIP3   OH251666   4.737   4.738  15.796 -0.1887 -0.1322  0.4848
10084TIP3    H151667   4.730   4.649  15.830  1.8032 -0.9869 -1.1408
10084TIP3    H251668   4.650   4.756  15.759 -0.0686 -2.2721 -1.0381
10085TIP3   OH251669   2.417   4.558  15.778 -0.1676 -0.0950 -0.0349
10085TIP3    H151670   2.377   4.600  15.702 -1.6134  1.1081  1.3206
10085TIP3    H251671   2.401   4.464  15.765  0.8096 -0.0373 -1.8454
10086TIP3   OH251672   0.794   4.794   4.066  0.2619 -0.4313  0.1355
10086TIP3    H151673   0.774   4.770   3.976 -0.4187  0.2520  0.0949
10086TIP3    H251674   0.846   4.721   4.100  1.0670 -0.3988 -0.9976
10087TIP3   OH251675   5.956   0.636   2.731 -0.3099 -0.1842 -0.0282
10087TIP3    H151676   6.028   0.627   2.794  0.6733  0.1058 -1.0840
10087TIP3    H251677   5.985   0.586   2.655 -1.5260 -0.6026 -0.2435
10088TIP3   OH251678   0.729   4.652   3.371 -0.2950  0.2871 -0.0785
10088TIP3    H151679   0.751   4.741   3.399  0.3187 -0.1648  0.9662
10088TIP3    H251680   0.773   4.595   3.435  2.1469 -0.9030 -2.5737
10089TIP3   OH251681   5.806   3.445   4.539  0.0685  0.3581  0.0750
10089TIP3    H151682   5.859   3.385   4.486 -0.1060 -0.0900  0.4018
10089TIP3    H251683   5.844   3.440   4.626  0.4996  1.2772 -0.0556
10090TIP3   OH251684   3.471   2.216   4.479  0.1349  0.3795  0.3323
10090TIP3    H151685   3.458   2.264   4.397  0.7450  1.4569  0.8523
10090TIP3    H251686   3.565   2.225   4.498 -0.2072  1.1606  1.7630
10091TIP3   OH251687   4.120   2.871   2.329 -0.4821 -0.3414  0.0940
10091TIP3    H151688   4.165   2.814   2.266  0.1679  0.2811 -0.0220
10091TIP3    H251689   4.190   2.927   2.364 -0.1578 -2.7593  3.7714
10092TIP3   OH251690   4.228   1.630   4.084 -0.1795  0.3627 -0.1216
10092TIP3    H151691   4.180   1.696   4.035 -0.4184  0.5198  0.3268
10092TIP3    H251692   4.196   1.637   4.173 -1.5901 -1.6230 -0.4127
10093TIP3   OH251693   4.295   4.649   1.510  0.2337  0.2879 -0.1966
10093TIP3    H151694   4.254   4.640   1.596 -0.4447  2.3715 -0.2253
10093TIP3    H251695   4.298   4.561   1.475  1.1445 -0.7225  2.2104
10094TIP3   OH251696   3.654   4.456   2.515 -0.1394  0.3260 -0.0272
10094TIP3    H151697   3.732   4.496   2.477 -0.4665  1.2977  0.2956
10094TIP3    H251698   3.581   4.506   2.479 -0.6343 -0.6142 -0.3767
10095TIP3   OH251699   5.922   1.123  14.555  1.0646 -0.5218 -0.2173
10095TIP3    H151700   5.851   1.062  14.534  1.9512 -1.3675 -0.8769
10095TIP3    H251701   5.881   1.188  14.612 -0.8312  0.4162 -2.4843
10096TIP3   OH251702   3.664   1.848   2.381  0.4641 -0.5471 -0.0062
10096TIP3    H151703   3.748   1.889   2.398 -0.9869  1.5202  3.1631
10096TIP3    H251704   3.629   1.895   2.305  1.0471  0.4632  0.3285
10097TIP3   OH251705   6.590   0.997  12.140 -0.3924 -0.3603  0.6481
10097TIP3    H151706   6.633   0.990  12.055 -0.5844 -0.1014  0.5288
10097TIP3    H251707   6.555   1.086  12.142  0.3131 -0.0823  1.3267
10098TIP3   OH251708   5.858   0.245   3.144 -0.0824  0.1678  0.1124
10098TIP3    H151709   5.806   0.245   3.063  0.6955  2.2425 -0.4528
10098TIP3    H251710   5.895   0.333   3.148  0.4051 -0.0886  2.4300
10099TIP3   OH251711   1.890   5.678  15.079  0.2955  0.4830  0.1620
10099TIP3    H151712   1.860   5.676  14.988 -2.1251  0.0731  0.8960
10099TIP3    H251713   1.905   5.770  15.098 -0.6233  0.7266 -0.2430
10100TIP3   OH251714   1.118   4.786  11.733  0.0964  0.4956  0.0597
10100TIP3    H151715   1.040   4.731  11.723  1.4414 -1.2489 -1.7432
10100TIP3    H251716   1.114   4.847  11.660  1.2503 -0.7959 -1.1462
10101TIP3   OH251717   5.973   5.740  15.108  0.0127 -0.3750  0.1239
10101TIP3    H151718   6.055   5.785  15.089 -0.3136  0.7288  1.2241
10101TIP3    H251719   5.986   5.652  15.074  0.6877  0.4947 -2.0570
10102TIP3   OH251720   5.848   1.575  16.020  0.2383 -0.2436  0.0871
10102TIP3    H151721   5.897   1.532  16.090 -0.8405 -1.4117  0.1443
10102TIP3    H251722   5.844   1.667  16.047  1.4663 -0.3082  0.5959
10103TIP3   OH251723   1.631   3.997   3.111 -0.5990 -0.1466  0.0227
10103TIP3    H151724   1.690   3.972   3.182  2.4958  0.0967 -2.2603
10103TIP3    H251725   1.636   4.092   3.107 -2.0397 -0.0341  0.4558
10104TIP3   OH251726   2.442   6.297  14.986 -0.0965  0.1323  0.2233
10104TIP3    H151727   2.395   6.361  14.933 -2.0700  1.4711  3.2754
10104TIP3    H251728   2.409   6.212  14.958 -0.9596  0.7736 -0.7434
10105TIP3   OH251729   6.704   3.198  15.046 -0.7876  0.2227 -0.0619
10105TIP3    H151730   6.747   3.214  15.131  1.3973 -0.7522 -0.9121
10105TIP3    H251731   6.610   3.203  15.066 -0.3475  0.3525  2.3462
10106TIP3   OH251732   4.799   0.193  17.082  0.0993 -1.0689 -0.3302
10106TIP3    H151733   4.833   0.225  16.998 -0.2368  0.6082  0.1384
10106TIP3    H251734   4.872   0.205  17.143 -1.2231  2.9851  0.7866
10107TIP3   OH251735   0.117   4.306   3.357 -0.4265  0.1147 -0.4784
10107TIP3    H151736   0.108   4.236   3.422  0.0363  2.3084  2.1067
10107TIP3    H251737   0.029   4.342   3.348 -0.0891  1.4117  0.9393
10108TIP3   OH251738   1.665   2.898   6.783 -0.2081 -0.3988  0.1363
10108TIP3    H151739   1.724   2.840   6.830  0.5859 -0.6222 -1.1196
10108TIP3    H251740   1.693   2.894   6.692 -1.9496 -0.2555 -0.4427
10109TIP3   OH251741   2.512   0.191  12.214 -0.4128 -0.0776 -0.0303
10109TIP3    H151742   2.602   0.221  12.227 -0.8754  1.4209 -0.0875
10109TIP3    H251743   2.496   0.132  12.288  1.3203 -2.2390 -1.2210
10110TIP3   OH251744   0.334   3.576  11.661 -0.3583  0.7912 -0.5959
10110TIP3    H151745   0.397   3.594  11.592 -0.3467  0.7588 -0.5934
10110TIP3    H251746   0.386   3.574  11.742 -0.2480  0.0508 -0.6782
10111TIP3   OH251747   4.710   6.509  12.317  0.4608  0.4767 -0.0151
10111TIP3    H151748   4.795   6.480  12.348  0.9253  0.9212 -0.8327
10111TIP3    H251749   4.729   6.586  12.263 -0.3656  0.0963 -0.8785
10112TIP3   OH251750   3.557   3.866  13.108  0.0142 -0.3788  0.0538
10112TIP3    H151751   3.518   3.953  13.104 -0.4127 -0.5927 -2.5734
10112TIP3    H251752   3.646   3.878  13.076 -0.8462 -1.1873 -2.9951
10113TIP3   OH251753   4.829   2.751   5.820  0.3531 -0.1329 -0.3140
10113TIP3    H151754   4.837   2.846   5.812  0.1707  0.1733  2.1335
10113TIP3    H251755   4.758   2.739   5.884  2.0285 -1.7886  1.3508
10114TIP3   OH251756   1.787   3.784   0.089 -0.0602  0.3849  0.3505
10114TIP3    H151757   1.844   3.859   0.073  2.0982 -1.4905 -1.6042
10114TIP3    H251758   1.737   3.774   0.008  0.4366 -0.8211  0.1608
10115TIP3   OH251759   2.362   1.906   5.928  0.0834  0.0088 -0.3956
10115TIP3    H151760   2.352   1.947   6.015  2.3020  0.9518 -0.5071
10115TIP3    H251761   2.283   1.931   5.881 -0.4413  0.8313  0.8516
10116TIP3   OH251762   0.146   4.770  13.988  0.1088  0.1152 -0.4676
10116TIP3    H151763   0.061   4.778  13.944  0.5792  1.4258 -1.1818
10116TIP3    H251764   0.159   4.856  14.030  0.4513 -0.5382  0.8139
10117TIP3   OH251765   5.902   3.203   1.057  0.4354  0.1796 -0.5004
10117TIP3    H151766   5.958   3.127   1.072  0.9558  0.8628  1.2374
10117TIP3    H251767   5.951   3.277   1.092  0.0360  1.3921 -2.3512
10118TIP3   OH251768   4.501   4.027  17.324 -0.2384 -0.1567 -0.2593
10118TIP3    H151769   4.416   3.987  17.302 -0.9548  1.4486 -0.5401
10118TIP3    H251770   4.565   3.965  17.290 -1.2961 -1.0243 -0.7688
10119TIP3   OH251771   3.678   1.561  12.424  0.3684 -0.1403  0.3282
10119TIP3    H151772   3.727   1.643  12.428 -0.3513  0.3952 -1.2514
10119TIP3    H251773   3.728   1.501  12.479  1.3090  1.1387  0.9284
10120TIP3   OH251774   3.334   4.294   5.473 -0.5728  0.4328 -0.2125
10120TIP3    H151775   3.303   4.372   5.518  0.7358  0.5194  0.5804
10120TIP3    H251776   3.421   4.277   5.510 -0.6292 -1.1236 -0.7007
10121TIP3   OH251777   0.855   4.109  13.940 -0.1889  0.0168  0.1801
10121TIP3    H151778   0.868   4.110  14.035  1.2261 -1.0372  0.0424
10121TIP3    H251779   0.887   4.023  13.913  1.4275  1.0688 -1.4761
10122TIP3   OH251780   2.929   1.927   0.680 -0.8117  0.2981  0.2231
10122TIP3    H151781   2.965   1.984   0.748 -0.6545  0.3604  0.0875
10122TIP3    H251782   2.920   1.842   0.723  1.5896 -0.3265 -0.3210
10123TIP3   OH251783   3.665   4.710   1.879 -0.6705 -0.0031 -0.0678
10123TIP3    H151784   3.597   4.777   1.867  0.2681  0.6318 -2.5290
10123TIP3    H251785   3.747   4.757   1.862  0.2732 -1.1338  1.1946
10124TIP3   OH251786   5.249   6.357  12.289  0.0406 -0.3395  0.4429
10124TIP3    H151787   5.173   6.311  12.256 -0.6990  0.6114  0.7596
10124TIP3    H251788   5.251   6.336  12.383 -0.6005  0.6452  0.6926
10125TIP3   OH251789   3.226   5.077   4.444  0.8653 -0.1689  0.4906
10125TIP3    H151790   3.182   5.107   4.364  2.6118 -2.0842 -1.3348
10125TIP3    H251791   3.188   4.991   4.461  2.7398 -1.2147 -0.2819
10126TIP3   OH251792   2.428   6.438   0.531  0.3643  0.2176 -0.6628
10126TIP3    H151793   2.490   6.437   0.603 -0.1687 -0.0684 -0.2005
10126TIP3    H251794   2.465   6.378   0.466  0.5844  0.0720 -0.4039
10127TIP3   OH251795   2.490   0.601   0.883 -0.0927  0.4070 -0.3980
10127TIP3    H151796   2.442   0.524   0.912 -0.3294  0.4459 -0.6817
10127TIP3    H251797   2.470   0.608   0.790 -0.5005  1.1201 -0.2608
10128TIP3   OH251798   4.171   4.088  12.120 -0.7357 -0.1104  0.7412
10128TIP3    H151799   4.118   4.117  12.046 -1.1787 -0.5734  0.8722
10128TIP3    H251800   4.116   4.025  12.166 -0.8994  0.9717  2.1006
10129TIP3   OH251801   2.460   4.718  16.399 -0.5859  0.3788  0.2505
10129TIP3    H151802   2.517   4.746  16.327 -2.3930 -0.2799 -1.5312
10129TIP3    H251803   2.448   4.624  16.384 -1.4395  0.3407  1.0945
10130TIP3   OH251804   3.225   3.148   1.982 -0.1874 -0.0280  0.3096
10130TIP3    H151805   3.289   3.183   1.920  1.0805 -0.7883  1.1417
10130TIP3    H251806   3.207   3.222   2.041  0.4968 -0.0197  0.5147
10131TIP3   OH251807   1.954   0.856   6.409 -0.3057 -0.1299 -0.2311
10131TIP3    H151808   1.902   0.855   6.489 -0.2787 -1.7445 -0.2138
10131TIP3    H251809   2.007   0.776   6.413  0.2749  0.1640 -1.4907
10132TIP3   OH251810   2.954   1.331  17.368 -0.1638  0.8749  0.2153
10132TIP3    H151811   2.886   1.268  17.345  0.7884  0.6568 -2.3497
10132TIP3    H251812   2.996   1.295  17.446 -0.8335 -0.7025 -0.1290
10133TIP3   OH251813   4.143   4.381   0.371  0.0856 -0.4270 -0.4413
10133TIP3    H151814   4.063   4.400   0.321  0.9429 -0.1764 -1.7736
10133TIP3    H251815   4.168   4.466   0.407 -1.2513 -0.8247  1.6157
10134TIP3   OH251816   4.155   3.911  13.191  0.1839 -0.0425 -0.0255
10134TIP3    H151817   4.125   3.999  13.213 -2.0733 -0.7296 -0.0417
10134TIP3    H251818   4.219   3.924  13.121  0.6551  1.6158  0.6598
10135TIP3   OH251819   5.208   2.368  17.089  0.0482 -0.3373  0.6929
10135TIP3    H151820   5.227   2.274  17.086 -1.8065 -0.8392  2.5434
10135TIP3    H251821   5.211   2.389  17.182  0.5259  1.4910  0.2952
10136TIP3   OH251822   1.651   1.780   5.950 -0.2163  0.2194  0.3746
10136TIP3    H151823   1.689   1.828   5.877  1.8528 -1.7560  0.0548
10136TIP3    H251824   1.586   1.722   5.909  2.1824 -2.1884 -0.2988
10137TIP3   OH251825   2.925   4.915   5.633 -0.2356 -0.1350 -0.0859
10137TIP3    H151826   2.968   4.925   5.718  0.4881  0.6341 -0.5223
10137TIP3    H251827   2.973   4.844   5.590 -0.0787  0.0177 -0.1638
10138TIP3   OH251828   3.744   3.518   3.104 -0.4310  0.0716  0.0513
10138TIP3    H151829   3.793   3.573   3.044 -0.0996 -0.5232 -0.2388
10138TIP3    H251830   3.676   3.478   3.049 -1.0037  0.5978  0.3697
10139TIP3   OH251831   0.278   1.797   4.051  0.3567  0.4527  0.5418
10139TIP3    H151832   0.219   1.831   4.119 -1.3647 -1.1727 -0.0500
10139TIP3    H251833   0.363   1.790   4.094 -0.5975 -0.1323  2.4389
10140TIP3   OH251834   5.131   5.935   4.485 -0.0472  0.5174 -0.2176
10140TIP3    H151835   5.166   5.984   4.410 -1.9259 -0.1932 -1.6250
10140TIP3    H251836   5.058   5.989   4.516 -0.8846 -0.4137 -0.5309
10141TIP3   OH251837   0.520   1.942   1.803 -0.6155 -0.0963 -0.4914
10141TIP3    H151838   0.462   1.985   1.740 -0.9164 -1.0940 -0.9178
10141TIP3    H251839   0.461   1.903   1.868 -0.3584 -0.0423 -0.2216
10142TIP3   OH251840   2.149   5.603  13.399 -0.1777  0.3493 -0.3104
10142TIP3    H151841   2.143   5.698  13.385 -2.1505  0.1443 -1.1701
10142TIP3    H251842   2.154   5.567  13.311  2.3690 -0.3135  0.0412
10143TIP3   OH251843   4.441   2.782   0.964  0.3979 -0.2337 -0.4517
10143TIP3    H151844   4.351   2.755   0.946  0.3926 -0.2111 -0.4589
10143TIP3    H251845   4.495   2.713   0.927  0.4735  0.7517 -2.3263
10144TIP3   OH251846   5.823   6.651   5.208 -0.2969  0.0581 -1.4220
10144TIP3    H151847   5.822   6.604   5.125 -0.2961  0.8133 -1.8600
10144TIP3    H251848   5.748   6.711   5.202 -0.9993 -0.6763 -0.3993
10145TIP3   OH251849   5.142   4.777  16.063 -0.7360  0.5885  0.2717
10145TIP3    H151850   5.225   4.730  16.067  0.0978  2.0281  0.7110
10145TIP3    H251851   5.163   4.858  16.016 -2.1643  0.4649 -0.6190
10146TIP3   OH251852   1.703   5.793  11.299 -0.3593 -0.2464  0.8860
10146TIP3    H151853   1.676   5.702  11.314  1.2839 -0.7670  0.8528
10146TIP3    H251854   1.626   5.835  11.262 -1.4344 -1.3994  1.7302
10147TIP3   OH251855   5.061   2.516  11.595 -0.0725 -0.0211 -0.1111
10147TIP3    H151856   4.975   2.518  11.553  0.2691 -0.9143 -0.8892
10147TIP3    H251857   5.045   2.473  11.680 -0.4975  0.3835  0.0161
10148TIP3   OH251858   2.417   1.351  13.285  0.2940 -0.0247 -0.3209
10148TIP3    H151859   2.456   1.271  13.320 -0.7929  0.0125  1.0430
10148TIP3    H251860   2.467   1.369  13.205  2.1449 -0.7353  0.6145
10149TIP3   OH251861   4.309   5.590  12.921  0.5677 -0.4650 -0.1498
10149TIP3    H151862   4.387   5.642  12.898  1.2258 -1.6295 -0.6422
10149TIP3    H251863   4.273   5.634  12.998  1.2073  0.6077 -0.4381
10150TIP3   OH251864   2.560   1.712  13.690  0.0869  0.0728  0.2353
10150TIP3    H151865   2.651   1.703  13.716 -0.0275 -0.4351  0.4668
10150TIP3    H251866   2.540   1.632  13.642  0.4350  1.1873 -1.9074
10151TIP3   OH251867   1.873   1.749  16.963  0.2075 -0.9646 -0.0407
10151TIP3    H151868   1.892   1.665  16.921 -0.1456 -2.5794  2.7506
10151TIP3    H251869   1.955   1.774  17.005 -0.1140 -0.7227  0.4419
10152TIP3   OH251870   1.246   0.279   4.856  0.1275  0.1064 -0.1307
10152TIP3    H151871   1.309   0.212   4.883  0.6855 -0.0291 -1.6877
10152TIP3    H251872   1.221   0.322   4.938 -0.2949 -2.0229  0.9348
10153TIP3   OH251873   2.500   1.176  14.540  0.1231 -0.3701  0.1439
10153TIP3    H151874   2.563   1.248  14.544  0.9739 -1.1037  0.3540
10153TIP3    H251875   2.415   1.219  14.534  0.7051  0.6512 -1.6072
10154TIP3   OH251876   6.462   4.205   1.046 -0.0436  0.2092 -0.2219
10154TIP3    H151877   6.395   4.222   1.112 -0.2894 -0.2063 -0.3637
10154TIP3    H251878   6.545   4.227   1.089 -0.1397 -0.6882  0.4501
10155TIP3   OH251879   1.697   1.589   1.336 -0.2968  0.3382 -0.3031
10155TIP3    H151880   1.671   1.529   1.407  2.0184  1.2081  1.4200
10155TIP3    H251881   1.623   1.648   1.327 -1.0163 -0.3471  0.8067
10156TIP3   OH251882   5.064   5.871   3.040 -0.1005 -0.1683 -0.3970
10156TIP3    H151883   5.083   5.819   3.119  2.2271  0.2982 -0.5835
10156TIP3    H251884   5.060   5.806   2.970  0.7573 -0.3023 -0.3269
10157TIP3   OH251885   4.661   6.495  16.667  0.6855  0.6056  0.2834
10157TIP3    H151886   4.719   6.565  16.635  1.7776 -0.0076  0.8404
10157TIP3    H251887   4.717   6.444  16.727  1.0400 -2.7774 -2.5910
10158TIP3   OH251888   3.450   5.108   4.762  0.0008  0.3313 -0.3921
10158TIP3    H151889   3.450   5.013   4.764 -0.4405  0.2920 -1.6539
10158TIP3    H251890   3.359   5.132   4.744 -0.1886  1.0581  1.2782
10159TIP3   OH251891   1.173   6.657  16.279 -0.1269  0.2792  0.1567
10159TIP3    H151892   1.156   6.624  16.191  0.6068  0.3296 -0.0082
10159TIP3    H251893   1.086   6.673  16.316 -0.4833  3.1721 -1.6443
10160TIP3   OH251894   3.677   1.307   3.473 -0.4871  0.2622  0.4083
10160TIP3    H151895   3.714   1.385   3.515  0.7409 -0.4078  0.6332
10160TIP3    H251896   3.739   1.237   3.495 -1.2607 -0.6592 -0.2717
10161TIP3   OH251897   3.131   1.061   1.692 -0.3646  0.2542  0.0057
10161TIP3    H151898   3.118   1.150   1.724 -1.3644  0.2072 -0.2405
10161TIP3    H251899   3.111   1.005   1.767  2.5148  0.2319  0.9037
10162TIP3   OH251900   0.458   4.391  16.376 -0.1466 -0.6466  0.3250
10162TIP3    H151901   0.467   4.331  16.302 -0.7588 -0.4288  0.0739
10162TIP3    H251902   0.548   4.404  16.406  0.2689  0.2787 -1.1935
10163TIP3   OH251903   2.512   5.308   4.936 -0.2330 -0.7817  0.5898
10163TIP3    H151904   2.534   5.366   5.009 -2.9322 -0.9245  1.6584
10163TIP3    H251905   2.498   5.366   4.862  0.8099 -0.4508  0.6479
10164TIP3   OH251906   3.224   2.153   3.395  0.1846  0.1843  0.3757
10164TIP3    H151907   3.271   2.109   3.324 -1.5699 -1.2520  0.0229
10164TIP3    H251908   3.272   2.129   3.474  0.2959 -0.9425 -0.0154
10165TIP3   OH251909   1.754   5.550   5.467 -0.5556  0.5375 -0.2862
10165TIP3    H151910   1.750   5.473   5.410 -1.4344 -0.4482  1.0491
10165TIP3    H251911   1.848   5.562   5.484 -0.3809  0.0327 -0.8432
10166TIP3   OH251912   2.086   3.634  16.242  0.0929 -0.0498  0.1462
10166TIP3    H151913   2.097   3.680  16.159 -2.0545 -0.1323 -0.2611
10166TIP3    H251914   1.993   3.609  16.243  0.9080 -3.4878  0.8133
10167TIP3   OH251915   4.005   2.433   0.794 -0.2707 -0.4857 -0.1456
10167TIP3    H151916   3.975   2.345   0.774 -2.2543 -0.7207  3.0552
10167TIP3    H251917   3.954   2.490   0.736  0.2907 -1.3532 -1.5241
10168TIP3   OH251918   0.312   3.477  13.822 -0.8977 -0.4188 -0.7138
10168TIP3    H151919   0.373   3.491  13.749 -0.5607 -0.4059 -0.4353
10168TIP3    H251920   0.338   3.543  13.887  1.6964 -3.1152  1.2592
10169TIP3   OH251921   3.864   3.754  14.927 -0.2101 -0.0968  0.3575
10169TIP3    H151922   3.927   3.818  14.960  3.6213 -2.2860 -1.9992
10169TIP3    H251923   3.857   3.774  14.833 -1.4503 -1.2028  0.1797
10170TIP3   OH251924   2.631   6.327   4.214 -0.1451 -1.0877  0.6933
10170TIP3    H151925   2.621   6.422   4.228 -0.5048 -1.1734  1.0392
10170TIP3    H251926   2.628   6.317   4.119  0.2600 -0.7142  0.6345
10171TIP3   OH251927   6.485   2.249   1.204  0.0001  0.1328 -0.7002
10171TIP3    H151928   6.439   2.241   1.288  0.5190 -0.7634 -0.4904
10171TIP3    H251929   6.540   2.327   1.214 -0.2527  0.2708 -0.3625
10172TIP3   OH251930   0.494   1.398  15.910  0.4683 -0.3964  0.0532
10172TIP3    H151931   0.585   1.408  15.883 -0.2668  2.8886 -1.8473
10172TIP3    H251932   0.455   1.343  15.842  0.3184  1.2526 -1.2454
10173TIP3   OH251933   2.041   0.199  12.908  0.2982 -0.0560 -0.1503
10173TIP3    H151934   2.021   0.114  12.949  0.8402 -0.4841 -0.7461
10173TIP3    H251935   2.136   0.197  12.895  0.1500  0.0882 -1.3525
10174TIP3   OH251936   6.743   1.348   0.667 -0.1769 -0.3981 -0.6165
10174TIP3    H151937   6.753   1.345   0.571  0.1068 -0.3398 -0.5883
10174TIP3    H251938   6.786   1.268   0.697  0.5704  0.0591 -0.4624
10175TIP3   OH251939   0.218   5.711  16.795  0.5082  0.4810 -0.1828
10175TIP3    H151940   0.239   5.718  16.702  0.8732 -2.0078 -0.3424
10175TIP3    H251941   0.297   5.673  16.834 -0.9417 -2.1194  0.4366
10176TIP3   OH251942   0.432   2.473   5.672  0.0642  0.1205  0.2386
10176TIP3    H151943   0.472   2.552   5.636  1.4709 -0.8468 -0.3991
10176TIP3    H251944   0.465   2.468   5.761  0.7994 -0.2774 -0.0486
10177TIP3   OH251945   0.208   4.681   4.666 -0.3774  0.1244 -0.2733
10177TIP3    H151946   0.259   4.636   4.734 -0.1855  0.3223 -0.2877
10177TIP3    H251947   0.117   4.656   4.685 -0.2705 -0.2754 -0.2854
10178TIP3   OH251948   1.767   3.296  15.629  0.0471 -0.9091 -0.4972
10178TIP3    H151949   1.677   3.324  15.613  1.0573  2.1943 -1.4742
10178TIP3    H251950   1.808   3.371  15.672  2.4299 -1.8246 -1.0258
10179TIP3   OH251951   1.322   2.105   4.715  0.0893  0.1586  0.0914
10179TIP3    H151952   1.312   2.199   4.728 -1.9602  0.5482 -3.1128
10179TIP3    H251953   1.306   2.092   4.622 -1.3035 -3.5392  0.6694
10180TIP3   OH251954   6.274   3.966  12.883  0.1019 -0.4343 -0.4974
10180TIP3    H151955   6.362   4.001  12.869 -0.7711  1.3268 -2.0114
10180TIP3    H251956   6.283   3.871  12.872  1.5481 -0.1491 -2.1936
10181TIP3   OH251957   1.552   2.225  13.534 -0.1984 -0.0886 -0.3273
10181TIP3    H151958   1.502   2.221  13.616  3.1138 -0.1622  1.8921
10181TIP3    H251959   1.573   2.317  13.523  1.9009 -0.3992  0.6773
10182TIP3   OH251960   3.353   6.314   0.980 -0.4127 -0.2684 -0.0659
10182TIP3    H151961   3.317   6.228   1.002 -0.6871  0.0062  0.5816
10182TIP3    H251962   3.276   6.368   0.964 -0.2244 -0.3382 -1.2535
10183TIP3   OH251963   0.209   1.744  11.970  0.0746  0.4968  0.0341
10183TIP3    H151964   0.200   1.827  11.924  0.8416  0.5191 -0.0807
10183TIP3    H251965   0.147   1.685  11.927 -0.3552  0.9619  0.0145
10184TIP3   OH251966   5.788   3.681   1.506  0.1162 -0.0911  0.0644
10184TIP3    H151967   5.832   3.678   1.421 -0.9945 -0.1165 -0.5229
10184TIP3    H251968   5.783   3.589   1.534 -2.0241 -0.4087 -1.1862
10185TIP3   OH251969   5.073   2.548  16.939 -0.2978  0.8682 -0.8487
10185TIP3    H151970   4.997   2.498  16.908 -0.3887  0.3497  0.1593
10185TIP3    H251971   5.109   2.494  17.009  0.7743  1.3030 -1.0530
10186TIP3   OH251972   4.001   2.324  16.193 -0.4412  0.1331  0.3055
10186TIP3    H151973   3.955   2.322  16.109  0.5610  1.3421 -0.3196
10186TIP3    H251974   3.984   2.412  16.227 -0.5569 -0.2314  1.2149
10187TIP3   OH251975   2.268   1.663  14.997 -0.5287 -0.5478 -0.0055
10187TIP3    H151976   2.314   1.727  14.942  0.1063 -1.7443 -0.9127
10187TIP3    H251977   2.190   1.641  14.946 -0.3205 -1.1093 -0.0807
10188TIP3   OH251978   5.671   1.766  13.164 -0.0169 -0.5062 -0.1514
10188TIP3    H151979   5.673   1.718  13.247  0.1198  0.4431  0.4044
10188TIP3    H251980   5.666   1.858  13.190  0.0671 -0.1988 -1.2013
10189TIP3   OH251981   4.154   2.510   2.600  0.1251  0.7684  0.5093
10189TIP3    H151982   4.186   2.476   2.516  1.1331 -0.6317  1.4271
10189TIP3    H251983   4.185   2.601   2.601 -0.0689  0.8757 -0.7025
10190TIP3   OH251984   5.065   0.211  14.823 -0.4641  0.2423  0.2161
10190TIP3    H151985   5.158   0.207  14.804 -0.4872  0.2303  0.1080
10190TIP3    H251986   5.051   0.141  14.887 -0.4790 -0.0355 -0.0912
10191TIP3   OH251987   2.453   2.393   5.812 -0.1647  0.1794  0.6851
10191TIP3    H151988   2.505   2.461   5.855  0.3629  0.8780 -0.9881
10191TIP3    H251989   2.388   2.441   5.760 -1.7523 -0.6626  1.7911
10192TIP3   OH251990   6.056   0.353  14.865  0.4557 -0.3899  0.1482
10192TIP3    H151991   5.962   0.361  14.851  0.6994  0.1677 -1.2954
10192TIP3    H251992   6.080   0.432  14.914  0.1908 -0.5296  0.5117
10193TIP3   OH251993   6.367   4.511   6.355  0.0016 -0.6902 -0.1458
10193TIP3    H151994   6.384   4.553   6.439  1.0592 -0.1272 -0.6265
10193TIP3    H251995   6.379   4.418   6.373 -2.0052 -0.8199  0.8383
10194TIP3   OH251996   3.182   2.593   2.630 -0.4047 -0.0995  0.2671
10194TIP3    H151997   3.139   2.677   2.612  0.8915  0.3393 -1.0625
10194TIP3    H251998   3.251   2.616   2.693 -0.9026 -0.4261  0.9301
10195TIP3   OH251999   6.706   5.559   2.136  0.5595  0.5171  0.7227
10195TIP3    H152000   6.767   5.493   2.105 -0.6404 -0.2905  0.0317
10195TIP3    H252001   6.700   5.622   2.065  0.1394  0.2812  0.5476
10196TIP3   OH252002   3.024   0.412   4.369 -0.1318 -0.1607  0.7078
10196TIP3    H152003   3.107   0.373   4.341 -1.3381 -2.6898  0.3858
10196TIP3    H252004   3.049   0.474   4.437  1.9570 -1.5679  1.3495
10197TIP3   OH252005   1.986   0.197   6.087 -0.4652  0.4204  0.3112
10197TIP3    H152006   2.006   0.106   6.111 -0.0686  0.3300 -0.3496
10197TIP3    H252007   2.043   0.249   6.145  1.4155  0.1730 -1.2158
10198TIP3   OH252008   0.951   0.121  16.164 -0.2674 -0.2822  0.1544
10198TIP3    H152009   0.918   0.087  16.247 -1.3751  0.6774  0.1282
10198TIP3    H252010   0.874   0.158  16.120  0.9224  2.9598  0.5321
10199TIP3   OH252011   1.494   2.609   5.277  0.3959  0.5429 -0.6001
10199TIP3    H152012   1.531   2.524   5.255 -0.3559 -0.0869  0.4995
10199TIP3    H252013   1.570   2.666   5.286  0.8965  0.0520 -1.5432
10200TIP3   OH252014   6.741   2.867   0.232  0.4541  0.0396  0.0303
10200TIP3    H152015   6.729   2.797   0.168  0.4403 -1.2051  1.3503
10200TIP3    H252016   6.834   2.865   0.253  0.2334 -0.5177  1.0550
10201TIP3   OH252017   0.840   3.764  16.211 -0.7594 -0.2952 -0.1335
10201TIP3    H152018   0.797   3.849  16.222  1.5501  1.0161 -0.5226
10201TIP3    H252019   0.878   3.768  16.123  0.6037 -1.0902  0.3843
10202TIP3   OH252020   4.961   3.890  10.742 -0.9244  0.5161  0.1629
10202TIP3    H152021   5.032   3.844  10.698 -1.1778 -0.3280  0.6124
10202TIP3    H252022   4.894   3.899  10.675 -1.0597 -0.2080  0.1868
10203TIP3   OH252023   3.086   6.213   2.135  0.0284 -0.2428 -0.1915
10203TIP3    H152024   3.006   6.163   2.152 -1.0326  1.4514  0.0304
10203TIP3    H252025   3.069   6.257   2.052  0.9650 -0.2737 -0.4075
10204TIP3   OH252026   0.435   2.832  11.225  0.0626  0.8266 -0.2390
10204TIP3    H152027   0.522   2.832  11.263 -0.0229 -0.7150 -0.0170
10204TIP3    H252028   0.448   2.802  11.135 -0.4454 -1.2973  0.3561
10205TIP3   OH252029   0.123   5.382   2.039 -0.4012  0.0631 -0.1310
10205TIP3    H152030   0.123   5.287   2.032  0.2588  0.1688 -2.0652
10205TIP3    H252031   0.201   5.410   1.992 -0.2539  1.5494  0.9110
10206TIP3   OH252032   6.316   3.707  12.818 -0.1881  0.2862 -0.2858
10206TIP3    H152033   6.393   3.685  12.871 -0.2586  2.1007  0.6542
10206TIP3    H252034   6.257   3.632  12.829  0.7385 -0.3697  0.3674
10207TIP3   OH252035   1.737   2.438  11.587 -0.1642 -0.6758 -0.6878
10207TIP3    H152036   1.763   2.390  11.508  0.0738 -0.8075 -0.5269
10207TIP3    H252037   1.731   2.529  11.558 -2.7991 -1.0431 -1.5719
10208TIP3   OH252038   0.143   5.515  11.202 -0.1467  0.3237  0.3058
10208TIP3    H152039   0.180   5.584  11.146  1.7113  2.0277  3.3138
10208TIP3    H252040   0.050   5.536  11.208 -0.2277  0.5859 -1.4186
10209TIP3   OH252041   1.252   0.347  13.591 -0.1259  0.8910 -0.5966
10209TIP3    H152042   1.341   0.321  13.567  0.2851 -0.1102  1.7482
10209TIP3    H252043   1.263   0.409  13.662 -1.2870  0.4397  0.0147
10210TIP3   OH252044   2.391   4.122  10.808  0.0773 -0.0158 -0.1795
10210TIP3    H152045   2.436   4.186  10.864  2.7679 -0.3665 -1.7802
10210TIP3    H252046   2.403   4.155  10.719 -0.5481 -1.5590 -0.8707
10211TIP3   OH252047   5.439   3.894  12.317 -0.4759  0.5064  0.1360
10211TIP3    H152048   5.484   3.972  12.348 -0.6603 -0.0131  1.8803
10211TIP3    H252049   5.366   3.883  12.379  0.0352 -1.4751  0.4637
10212TIP3   OH252050   0.213   3.622   3.354 -0.5878 -0.6549 -0.5881
10212TIP3    H152051   0.277   3.552   3.366  0.1802 -0.2120 -1.8972
10212TIP3    H252052   0.252   3.679   3.288 -1.6094  0.5188 -0.2083
10213TIP3   OH252053   1.857   2.891   1.777  0.7967 -0.1476  0.6564
10213TIP3    H152054   1.776   2.892   1.828 -0.6322  1.1602 -1.4402
10213TIP3    H252055   1.858   2.805   1.735  0.0116  0.1267  0.0454
10214TIP3   OH252056   5.613   1.893  12.067 -0.4513 -0.5759  0.1414
10214TIP3    H152057   5.706   1.892  12.089 -0.6480  0.1075  1.0853
10214TIP3    H252058   5.591   1.802  12.049  0.3313 -0.7823  0.1925
10215TIP3   OH252059   3.722   3.164   4.247 -0.3303 -0.1970  0.6066
10215TIP3    H152060   3.706   3.197   4.159 -0.2427 -0.4998  0.4753
10215TIP3    H252061   3.801   3.210   4.276 -0.7874  0.4657  0.8245
10216TIP3   OH252062   3.343   2.038  13.002  0.1391 -0.5725 -0.6914
10216TIP3    H152063   3.360   1.964  13.060  0.8140  0.0139 -0.1235
10216TIP3    H252064   3.402   2.024  12.928  0.2388 -0.6154 -0.6040
10217TIP3   OH252065   2.110   0.633  16.088 -0.2926 -0.1150  0.2253
10217TIP3    H152066   2.127   0.544  16.057 -1.0231 -0.3450  0.4746
10217TIP3    H252067   2.037   0.664  16.034  0.2014  0.4748 -0.1190
10218TIP3   OH252068   4.716   0.191   1.069 -0.3763 -0.1677 -0.0233
10218TIP3    H152069   4.696   0.227   1.156  0.4955  1.3276 -0.3869
10218TIP3    H252070   4.669   0.248   1.008  1.8162  1.0689 -0.6754
10219TIP3   OH252071   5.239   1.290   3.787 -0.0273 -0.0332 -0.5381
10219TIP3    H152072   5.227   1.196   3.803  1.4073  0.0966  1.8959
10219TIP3    H252073   5.182   1.333   3.851  1.8492  0.6401  0.7940
10220TIP3   OH252074   0.434   1.721  13.744  0.4901  0.5863  0.0922
10220TIP3    H152075   0.395   1.808  13.751 -1.8375 -0.4512  1.5023
10220TIP3    H252076   0.429   1.700  13.651 -1.3738  0.9932  0.0507
10221TIP3   OH252077   3.012   3.015   0.430  0.3496  0.2089 -0.1608
10221TIP3    H152078   3.064   3.055   0.500 -0.5906  0.8172  0.2108
10221TIP3    H252079   2.983   2.932   0.467  1.5698 -0.4406 -0.6089
10222TIP3   OH252080   3.481   5.033   1.649 -0.0646  0.2621  0.4691
10222TIP3    H152081   3.464   4.942   1.624 -1.4749  0.0335  2.0446
10222TIP3    H252082   3.550   5.026   1.716  0.7795  0.4932 -0.3619
10223TIP3   OH252083   2.693   3.447  10.731  0.1778 -0.1812 -0.0915
10223TIP3    H152084   2.765   3.451  10.794  0.2183  1.2017 -0.1950
10223TIP3    H252085   2.734   3.459  10.646 -0.2966  2.3687 -0.0342
10224TIP3   OH252086   1.205   3.144   2.043  0.2200 -0.8170 -0.4566
10224TIP3    H152087   1.239   3.142   2.132  0.0106 -0.3265 -0.3638
10224TIP3    H252088   1.194   3.237   2.023 -1.4945 -0.9510 -0.3134
10225TIP3   OH252089   2.404   6.165  13.651 -0.6256 -0.0462 -0.3706
10225TIP3    H152090   2.454   6.198  13.576 -0.5593  1.0387  0.1208
10225TIP3    H252091   2.313   6.181  13.629 -0.6415 -0.2710 -0.4674
10226TIP3   OH252092   3.244   0.519  11.099  0.5754 -0.5302  0.1713
10226TIP3    H152093   3.197   0.501  11.018  0.5105  1.4857 -0.2885
10226TIP3    H252094   3.316   0.577  11.072  1.1093 -0.5841  1.4169
10227TIP3   OH252095   0.779   5.437  11.294 -0.1235 -0.5558  0.3216
10227TIP3    H152096   0.781   5.501  11.224 -0.5758 -0.2126  0.6168
10227TIP3    H252097   0.700   5.386  11.278 -0.6956  0.0887  1.0760
10228TIP3   OH252098   5.564   1.344   1.946 -0.0950  0.8372  0.2831
10228TIP3    H152099   5.501   1.360   1.876  0.8097  2.0746 -0.2943
10228TIP3    H252100   5.547   1.255   1.974 -0.5542  0.3357 -1.4684
10229TIP3   OH252101   1.376   5.370   1.282  0.6108  0.1263 -0.5483
10229TIP3    H152102   1.343   5.432   1.217 -0.6881 -0.6355 -0.6534
10229TIP3    H252103   1.313   5.298   1.280  2.8220 -1.9020 -1.4623
10230TIP3   OH252104   1.144   3.402   2.042 -0.0106  0.2524 -0.1711
10230TIP3    H152105   1.110   3.444   1.963  0.6183  3.1918  0.9870
10230TIP3    H252106   1.092   3.440   2.114  2.3929  1.2219  1.1834
10231TIP3   OH252107   1.312   0.771  16.765 -0.6952  0.3353  0.1128
10231TIP3    H152108   1.231   0.721  16.769 -1.0563  0.8641 -0.4873
10231TIP3    H252109   1.339   0.766  16.674 -0.7605  1.2641  0.0349
10232TIP3   OH252110   0.769   0.053  11.583  0.2106  0.4482 -0.1193
10232TIP3    H152111   0.854   0.077  11.619  0.2739 -1.4154  1.0824
10232TIP3    H252112   0.782  -0.033  11.544 -0.4369  1.4153 -2.6976
10233TIP3   OH252113   0.994   3.712   0.905 -0.3322 -0.1573 -0.3993
10233TIP3    H152114   0.965   3.733   0.994 -1.3764  0.4640 -0.8630
10233TIP3    H252115   1.013   3.797   0.866 -2.1386 -0.2063 -1.4910
10234TIP3   OH252116   4.570   1.188  13.169  0.1979  0.2255  0.1839
10234TIP3    H152117   4.489   1.233  13.195  0.4708  0.8029  0.0520
10234TIP3    H252118   4.590   1.225  13.083 -0.9751 -2.0053 -1.1479
10235TIP3   OH252119   2.546   0.545   2.594  0.1691 -0.2028  0.0807
10235TIP3    H152120   2.592   0.624   2.567 -0.2125 -0.6296 -1.9624
10235TIP3    H252121   2.477   0.576   2.653 -0.4925  1.1107 -1.3215
10236TIP3   OH252122   6.389   4.854  16.121  0.3148  0.4427 -0.5262
10236TIP3    H152123   6.316   4.793  16.128  0.3084  0.3897 -1.0442
10236TIP3    H252124   6.388   4.884  16.030  0.5639  0.9106 -0.3793
10237TIP3   OH252125   3.268   0.994  16.173  0.6575  0.1798 -0.4544
10237TIP3    H152126   3.332   0.937  16.132  0.9644  0.4076 -0.2957
10237TIP3    H252127   3.307   1.082  16.168  0.2637  0.3540 -0.5541
10238TIP3   OH252128   0.262   5.219   4.837  0.2418  0.0072  0.1149
10238TIP3    H152129   0.236   5.232   4.928  1.7468 -0.0465  0.5822
10238TIP3    H252130   0.180   5.225   4.788 -0.7621 -1.0885  1.5664
10239TIP3   OH252131   3.547   3.005  13.298  0.0641  0.2833  0.2809
10239TIP3    H152132   3.495   3.032  13.223  1.5862  1.2423 -0.4875
10239TIP3    H252133   3.612   3.075  13.309 -0.0850  0.1576  2.4764
10240TIP3   OH252134   6.659   4.023   5.695  0.4375 -0.2672 -0.5707
10240TIP3    H152135   6.643   3.977   5.777  1.6252 -1.0548 -0.7463
10240TIP3    H252136   6.744   4.066   5.708 -0.5660  1.7867 -0.4749
10241TIP3   OH252137   0.932   6.300   6.095  0.1803 -0.0006 -0.4813
10241TIP3    H152138   1.008   6.312   6.151 -0.8392 -1.1267  1.1999
10241TIP3    H252139   0.898   6.389   6.080  0.4182  0.3048  0.7597
10242TIP3   OH252140   1.747   1.063   0.804 -0.2062  0.4886  0.1395
10242TIP3    H152141   1.803   1.069   0.726 -0.4100 -0.2895 -0.0829
10242TIP3    H252142   1.673   1.121   0.785  0.3621  1.2872  0.3072
10243TIP3   OH252143   2.496   1.756   4.427  0.3911 -0.6422  0.1346
10243TIP3    H152144   2.441   1.772   4.351  1.4230  0.8793 -0.3418
10243TIP3    H252145   2.529   1.667   4.414 -0.9524 -1.1047 -0.1979
10244TIP3   OH252146   5.634   6.414  13.159  0.5827 -0.2815 -0.4192
10244TIP3    H152147   5.679   6.355  13.099 -0.4982 -1.9445  0.3295
10244TIP3    H252148   5.564   6.453  13.106  0.5141 -0.6438 -0.5947
10245TIP3   OH252149   1.743   2.170   1.278  0.2173 -0.3240  0.3725
10245TIP3    H152150   1.778   2.198   1.193 -0.0629 -0.3295  0.2557
10245TIP3    H252151   1.760   2.245   1.336 -0.2587 -0.0266  0.1328
10246TIP3   OH252152   2.004   4.417  14.816 -0.0686 -0.3631  0.1018
10246TIP3    H152153   2.031   4.331  14.847 -1.0509 -0.4765  0.6913
10246TIP3    H252154   1.973   4.462  14.895  1.0168  0.7674 -0.0839
10247TIP3   OH252155   1.881   4.959  14.188  0.2892 -0.3443 -0.8114
10247TIP3    H152156   1.930   4.885  14.152 -0.7835 -0.8658 -1.2291
10247TIP3    H252157   1.946   5.008  14.239  1.0609 -1.4664 -0.6855
10248TIP3   OH252158   1.881   3.223  14.343 -0.1873  0.5747 -0.0211
10248TIP3    H152159   1.973   3.207  14.361 -0.4483  0.8505  1.7770
10248TIP3    H252160   1.834   3.166  14.404 -1.1571  1.7734  0.4072
10249TIP3   OH252161   4.644   4.092  10.947 -0.1583 -0.3265  0.2702
10249TIP3    H152162   4.716   4.036  10.976  0.3889  0.4254  0.3932
10249TIP3    H252163   4.636   4.074  10.853  0.2518 -0.3527  0.2369
10250TIP3   OH252164   6.176   5.796  10.735 -0.0108  0.0350  0.3311
10250TIP3    H152165   6.110   5.760  10.795 -0.1289 -1.2713 -0.5447
10250TIP3    H252166   6.126   5.843  10.669  0.1603  2.2035  1.6598
10251TIP3   OH252167   2.347   1.786   5.482 -0.5254  0.2676 -0.8622
10251TIP3    H152168   2.380   1.783   5.572  0.2445  0.4860 -1.1245
10251TIP3    H252169   2.263   1.740   5.485  0.7195 -2.1792 -0.5431
10252TIP3   OH252170   5.101   1.789  15.911  0.7261  0.0166 -0.2563
10252TIP3    H152171   5.027   1.849  15.902  0.9659  0.2592 -0.6437
10252TIP3    H252172   5.156   1.807  15.834  0.5708 -1.0213 -0.6290
10253TIP3   OH252173   1.485   2.136  11.547 -0.2635 -0.3531  0.2249
10253TIP3    H152174   1.393   2.112  11.556 -0.0694 -1.4798 -0.6485
10253TIP3    H252175   1.504   2.124  11.454  1.6668 -3.5904  0.8871
10254TIP3   OH252176   2.071   5.728  14.756  0.1318  0.6849 -0.8827
10254TIP3    H152177   1.978   5.713  14.735 -0.5052 -1.1545  2.5500
10254TIP3    H252178   2.097   5.650  14.806  3.3501  1.5170 -1.0437
10255TIP3   OH252179   6.203   3.869   3.960 -0.4801 -0.2029  0.3462
10255TIP3    H152180   6.296   3.864   3.981 -0.6200 -2.4995  0.6501
10255TIP3    H252181   6.175   3.954   3.996  1.5702  0.7641 -0.2112
10256TIP3   OH252182   6.665   0.697   4.410 -0.2213 -0.1223 -0.1164
10256TIP3    H152183   6.627   0.781   4.437  1.1424  0.2678  0.7124
10256TIP3    H252184   6.620   0.632   4.463 -0.8073  0.1521 -0.2663
10257TIP3   OH252185   5.387   3.932  12.641  0.5117 -0.1664 -0.0890
10257TIP3    H152186   5.292   3.944  12.643  0.5507  0.1171  0.1268
10257TIP3    H252187   5.399   3.837  12.638  0.2683 -0.4023  3.3080
10258TIP3   OH252188   6.284   1.835  11.781  0.1679 -0.3379 -0.0302
10258TIP3    H152189   6.306   1.864  11.870 -0.6215 -1.7267  0.6679
10258TIP3    H252190   6.344   1.762  11.764  0.0477 -0.3384 -0.4667
10259TIP3   OH252191   6.544   0.050   6.208  0.2404  0.1686  0.1575
10259TIP3    H152192   6.572   0.079   6.295  0.0922 -0.6910  0.5057
10259TIP3    H252193   6.494  -0.030   6.225 -0.4030  0.3906 -0.6606
10260TIP3   OH252194   3.875   2.934  12.857  0.0800 -0.1833 -0.4049
10260TIP3    H152195   3.909   2.882  12.784  1.3014  0.4336 -0.3039
10260TIP3    H252196   3.934   3.009  12.862 -1.2718  0.8912 -0.1368
10261TIP3   OH252197   0.064   4.164   3.095  0.1648  0.0548  0.5744
10261TIP3    H152198   0.150   4.184   3.058  0.1770 -0.4034  0.3545
10261TIP3    H252199   0.066   4.202   3.183  0.1503  1.1208  0.1363
10262TIP3   OH252200   0.975   6.152  13.674  0.3274 -0.0972  0.4159
10262TIP3    H152201   0.933   6.218  13.618 -0.3402 -0.5815  0.3225
10262TIP3    H252202   1.065   6.182  13.683  0.2249  0.4438 -0.2212
10263TIP3   OH252203   5.595   6.222  13.830  0.0972 -0.9312 -0.8127
10263TIP3    H152204   5.557   6.280  13.764 -0.4810 -0.1958  0.1406
10263TIP3    H252205   5.527   6.156  13.845  0.2603 -1.1437 -1.0035
10264TIP3   OH252206   1.368   1.253  13.494  0.1669  0.1878 -0.0495
10264TIP3    H152207   1.457   1.247  13.528 -0.1076 -2.1407  0.4155
10264TIP3    H252208   1.351   1.167  13.455 -1.2130  1.2335 -1.8954
10265TIP3   OH252209   3.512   1.035   2.883  0.5381 -0.1259 -0.7229
10265TIP3    H152210   3.462   1.116   2.874  0.1955 -0.2449  0.0808
10265TIP3    H252211   3.591   1.060   2.931  0.9562 -0.0722 -1.4096
10266TIP3   OH252212   1.963   5.139  11.953  0.0005  0.5062 -0.1455
10266TIP3    H152213   1.934   5.188  11.876  0.1412  0.9171  0.0664
10266TIP3    H252214   1.972   5.204  12.022 -0.7834  0.0457  0.4069
10267TIP3   OH252215   1.020   6.310  15.913 -0.2109  0.1458  0.5848
10267TIP3    H152216   0.988   6.353  15.992  1.4498  0.1028  1.3179
10267TIP3    H252217   1.113   6.293  15.930 -0.0612 -0.8336 -0.9548
10268TIP3   OH252218   4.424   2.873  16.128 -0.3254 -0.2991 -0.4679
10268TIP3    H152219   4.381   2.817  16.192  0.5419  0.0874  0.4851
10268TIP3    H252220   4.506   2.828  16.107 -0.2538 -0.0551 -0.7293
10269TIP3   OH252221   2.439   6.565  11.479 -0.1979  0.5748  0.2203
10269TIP3    H152222   2.419   6.657  11.498 -1.9102  0.4038 -0.5717
10269TIP3    H252223   2.355   6.519  11.488  0.4371 -0.7492 -0.3284
10270TIP3   OH252224   1.905   5.185   2.717  0.8122 -0.2221  0.2742
10270TIP3    H152225   1.827   5.173   2.772  0.4656  0.7183 -0.0029
10270TIP3    H252226   1.960   5.245   2.767  0.5016  0.6225 -0.3866
10271TIP3   OH252227   0.426   6.434  17.137 -0.1935 -0.4251 -0.0381
10271TIP3    H152228   0.485   6.496  17.096 -0.3703  0.0764  0.4522
10271TIP3    H252229   0.338   6.465  17.114 -0.3195  0.3354  1.3567
10272TIP3   OH252230   0.449   1.125  16.724  0.0482 -0.5771 -0.1647
10272TIP3    H152231   0.444   1.136  16.629  1.5220 -0.3927 -0.2528
10272TIP3    H252232   0.455   1.031  16.738 -0.1184 -0.6013 -0.2636
10273TIP3   OH252233   1.243   2.723  11.871 -0.5497  0.8728  0.5164
10273TIP3    H152234   1.213   2.663  11.939  0.0881  1.5408  1.4065
10273TIP3    H252235   1.335   2.701  11.858 -1.2484 -1.0764 -2.1008
10274TIP3   OH252236   6.133   5.958   1.936  0.8502  0.3667 -0.1108
10274TIP3    H152237   6.135   6.047   1.972 -1.1478  1.5739 -2.6341
10274TIP3    H252238   6.128   5.901   2.013 -1.2533  2.6399  1.6171
10275TIP3   OH252239   0.008   2.192  13.231  0.2780  0.2982  0.8835
10275TIP3    H152240   0.041   2.200  13.320 -0.3319 -1.6937  1.3259
10275TIP3    H252241  -0.007   2.098  13.218  0.0450  0.5629 -1.2058
10276TIP3   OH252242   2.674   6.430   2.172 -0.2870 -0.1185  0.6306
10276TIP3    H152243   2.741   6.422   2.239  1.2042 -1.6315 -0.9538
10276TIP3    H252244   2.671   6.344   2.130 -0.5623  0.9937 -1.7915
10277TIP3   OH252245   1.052   4.928  16.863  0.2428  0.0043 -0.3436
10277TIP3    H152246   1.119   4.990  16.836  1.6094 -1.3296 -0.1615
10277TIP3    H252247   1.059   4.923  16.958  2.4653 -2.7801 -0.5139
10278TIP3   OH252248   5.551   3.387   6.421 -1.2854  0.0937  0.3852
10278TIP3    H152249   5.606   3.432   6.358 -1.4604  1.2357  1.0271
10278TIP3    H252250   5.611   3.360   6.491 -0.8007 -2.5681 -0.9276
10279TIP3   OH252251   6.729   1.781  15.485 -0.0409  0.1466 -0.0582
10279TIP3    H152252   6.778   1.835  15.546 -0.3520 -0.5074  0.7922
10279TIP3    H252253   6.724   1.834  15.405  1.4264  0.5107  0.0590
10280TIP3   OH252254   1.590   4.357   0.328  0.4268 -0.1637  0.2231
10280TIP3    H152255   1.613   4.309   0.407  0.2551  0.0262  0.3894
10280TIP3    H252256   1.595   4.292   0.258 -0.9334 -0.7067  0.6074
10281TIP3   OH252257   5.502   0.924  15.259 -0.6134  0.1366 -0.7526
10281TIP3    H152258   5.512   0.952  15.168  0.2366  0.2404 -0.6302
10281TIP3    H252259   5.442   0.988  15.297 -0.8386  0.1907 -1.1919
10282TIP3   OH252260   3.563   2.542   5.137 -0.3480  0.0134 -0.3919
10282TIP3    H152261   3.645   2.551   5.185 -0.9323 -0.0398  0.6360
10282TIP3    H252262   3.502   2.602   5.181 -1.6198 -1.9022  0.6146
10283TIP3   OH252263   1.311   2.688  13.079  0.5644 -0.4805  0.6835
10283TIP3    H152264   1.352   2.642  13.153 -0.2705 -0.7924  0.9737
10283TIP3    H252265   1.295   2.619  13.014 -3.2874 -1.3262  2.2287
10284TIP3   OH252266   5.067   3.185  11.189 -0.2173  0.0925 -0.3616
10284TIP3    H152267   5.016   3.247  11.137  0.3296  0.2166 -0.7616
10284TIP3    H252268   5.158   3.208  11.171 -0.0105  0.0042  0.4940
10285TIP3   OH252269   3.471   3.042   3.796 -0.5376 -0.4985  0.4536
10285TIP3    H152270   3.484   2.965   3.850  2.4384 -0.9565 -0.7202
10285TIP3    H252271   3.455   3.008   3.708  0.0056  0.2238  0.0647
10286TIP3   OH252272   5.113   0.655  13.880  0.6923  0.2964  0.5424
10286TIP3    H152273   5.103   0.609  13.963 -0.5364  1.1027  0.8726
10286TIP3    H252274   5.025   0.685  13.858  1.0763  0.5199 -0.8091
10287TIP3   OH252275   1.893   5.973   1.346  0.1793  0.0881 -0.2151
10287TIP3    H152276   1.914   6.039   1.412  0.2050  0.1740 -0.3100
10287TIP3    H252277   1.978   5.935   1.323  0.1337 -0.1810  0.0533
10288TIP3   OH252278   4.293   2.430  14.630  0.1030  0.5122  0.5918
10288TIP3    H152279   4.353   2.428  14.555 -3.0878  0.0583 -2.2060
10288TIP3    H252280   4.300   2.343  14.669  1.4236  0.5615  0.5214
10289TIP3   OH252281   1.287   3.844  10.880 -0.3373  0.1177  0.0852
10289TIP3    H152282   1.321   3.833  10.791 -2.5704  1.0265 -0.9862
10289TIP3    H252283   1.202   3.799  10.878  0.6812 -2.1581  2.6221
10290TIP3   OH252284   5.181   3.539  11.999 -0.5726 -0.3792 -0.0857
10290TIP3    H152285   5.137   3.580  12.073 -1.9694  2.0728 -2.1002
10290TIP3    H252286   5.110   3.517  11.938  0.6808  0.2158 -1.8410
10291TIP3   OH252287   2.509   5.017  12.970  0.4927  0.4911 -0.4080
10291TIP3    H152288   2.461   5.058  13.042  0.1574  0.9373 -0.8691
10291TIP3    H252289   2.544   5.091  12.920  0.6914  0.1877 -0.7216
10292TIP3   OH252290   5.299   5.904   0.567  0.1424  0.0816 -0.0417
10292TIP3    H152291   5.340   5.864   0.644  0.2703 -1.0844 -0.6969
10292TIP3    H252292   5.205   5.892   0.582  0.1718 -0.2679 -0.1242
10293TIP3   OH252293   2.521   1.646   4.928  0.0199  0.4537 -0.0878
10293TIP3    H152294   2.430   1.646   4.897  0.3580 -1.9284 -1.3588
10293TIP3    H252295   2.573   1.630   4.849  1.4376  0.2900  0.8441
10294TIP3   OH252296   2.312   5.792  12.362  0.3007  0.0379  0.8000
10294TIP3    H152297   2.230   5.841  12.359 -0.2937 -0.9179  1.0431
10294TIP3    H252298   2.368   5.834  12.297 -1.0128 -0.3990 -0.6642
10295TIP3   OH252299   6.232   5.817   4.899 -0.5451 -0.3155  0.0490
10295TIP3    H152300   6.174   5.841   4.972  0.7824 -1.9365  1.7204
10295TIP3    H252301   6.179   5.759   4.844 -2.1172  2.1870 -1.3337
10296TIP3   OH252302   6.577   4.885  15.404  0.7125 -0.1700  0.0907
10296TIP3    H152303   6.553   4.968  15.445 -0.7574  0.5281 -2.0095
10296TIP3    H252304   6.511   4.823  15.434 -0.2793  0.3066 -1.0293
10297TIP3   OH252305   5.475   4.036  11.130  0.2185  0.1144  0.3821
10297TIP3    H152306   5.488   4.022  11.036  0.3743  0.3019  0.3760
10297TIP3    H252307   5.381   4.054  11.139  0.4120  1.3684  0.0996
10298TIP3   OH252308   4.148   5.543  10.796 -0.4489 -0.3785 -0.2881
10298TIP3    H152309   4.082   5.607  10.770 -0.7867 -0.3971  0.4888
10298TIP3    H252310   4.126   5.464  10.747 -0.5183 -0.1486 -0.6342
10299TIP3   OH252311   4.125   5.089   2.232 -0.5583  0.4380 -0.1065
10299TIP3    H152312   4.107   5.026   2.163 -2.1072  0.7930 -0.0516
10299TIP3    H252313   4.090   5.049   2.312  1.4284 -0.0777  0.5604
10300TIP3   OH252314   2.657   4.939   5.784 -0.3273 -0.0403  0.2677
10300TIP3    H152315   2.573   4.963   5.745 -0.0086  1.3893  0.3890
10300TIP3    H252316   2.710   4.911   5.709 -0.8955 -0.9153  0.1860
10301TIP3   OH252317   0.073   2.617  16.494  0.5881 -0.2915  0.0402
10301TIP3    H152318   0.114   2.616  16.407 -0.7499 -0.5582 -0.6058
10301TIP3    H252319   0.110   2.694  16.537  0.7514  0.2357 -1.0228
10302TIP3   OH252320   3.450   2.223  13.838 -0.6818 -0.0693 -0.0645
10302TIP3    H152321   3.377   2.279  13.811 -0.1331 -0.3273 -2.2318
10302TIP3    H252322   3.524   2.283  13.847 -0.1936 -0.3266 -1.9844
10303TIP3   OH252323   3.113   5.661   5.253 -0.3860 -0.1661  0.1147
10303TIP3    H152324   3.025   5.688   5.228 -0.2294  0.8493  0.5932
10303TIP3    H252325   3.131   5.584   5.199 -1.3371 -0.0323 -0.4140
10304TIP3   OH252326   6.065   5.205  17.082 -0.0889  0.1587  0.2818
10304TIP3    H152327   5.981   5.248  17.069 -0.6644 -0.6739  1.0981
10304TIP3    H252328   6.091   5.175  16.995 -0.3913  0.8279 -0.0512
10305TIP3   OH252329   3.782   2.003  12.926  0.3080  0.2319 -0.1349
10305TIP3    H152330   3.742   2.049  12.999 -2.2313 -1.7067 -0.1743
10305TIP3    H252331   3.800   1.915  12.958  1.3055 -0.0000 -1.2139
10306TIP3   OH252332   5.902   0.698  11.750 -0.3024  0.2478 -0.0448
10306TIP3    H152333   5.853   0.729  11.826  0.1732 -0.4003  0.5284
10306TIP3    H252334   5.915   0.777  11.697 -1.2017  0.5868  0.2149
10307TIP3   OH252335   5.971   2.763  10.982  0.1449  0.3822 -0.0449
10307TIP3    H152336   5.994   2.701  11.052 -2.7533  0.8255  1.4689
10307TIP3    H252337   5.922   2.711  10.919  1.0539  0.3731 -0.7443
10308TIP3   OH252338   1.814   6.251   5.433  0.6488  0.2580 -0.2000
10308TIP3    H152339   1.754   6.251   5.359 -0.2423 -2.0412  0.4106
10308TIP3    H252340   1.759   6.230   5.509  1.8306  0.6410  0.8120
10309TIP3   OH252341   1.684   0.998   5.199  0.0069 -0.0367  0.4715
10309TIP3    H152342   1.693   1.066   5.132  1.3885  0.4245  1.0827
10309TIP3    H252343   1.620   1.034   5.260  0.4286  0.5474  0.5787
10310TIP3   OH252344   0.509   1.466  11.677  0.1661 -0.0005 -0.2531
10310TIP3    H152345   0.576   1.402  11.702 -0.2066  0.3264  1.7317
10310TIP3    H252346   0.463   1.486  11.759 -1.7459  0.4918 -1.3867
10311TIP3   OH252347   4.710   1.221  12.417  0.1741 -0.2250 -0.3087
10311TIP3    H152348   4.668   1.221  12.503 -0.1358 -0.0169 -0.4568
10311TIP3    H252349   4.801   1.200  12.435 -0.1768 -1.6772 -0.0733
10312TIP3   OH252350   4.490   3.164   3.862 -0.6747  0.2662 -0.0403
10312TIP3    H152351   4.541   3.083   3.859  1.2283  1.3133  1.6924
10312TIP3    H252352   4.502   3.203   3.776  0.8980  0.1001  0.0647
10313TIP3   OH252353   6.341   4.348   3.483  0.4341 -0.1282 -0.1481
10313TIP3    H152354   6.257   4.338   3.437 -0.7989  2.3214  1.3886
10313TIP3    H252355   6.347   4.441   3.502  3.6118 -0.2003 -0.2794
10314TIP3   OH252356   0.624   6.196  13.029  0.1984 -0.2950 -0.6287
10314TIP3    H152357   0.629   6.197  12.934 -0.8213 -0.3104 -0.6922
10314TIP3    H252358   0.622   6.289  13.054 -0.3895 -0.2910 -0.6806
10315TIP3   OH252359   2.314   6.568  16.606  0.1680  0.1947 -0.3504
10315TIP3    H152360   2.244   6.552  16.544  0.0721 -0.9650  0.0437
10315TIP3    H252361   2.376   6.623  16.558  0.3152 -1.0449 -1.6466
10316TIP3   OH252362   0.749   3.974  13.194 -0.3424 -0.2270  0.1015
10316TIP3    H152363   0.771   3.936  13.279 -0.6457 -0.4355  0.0908
10316TIP3    H252364   0.798   3.920  13.131 -0.3435 -0.2549  0.1245
10317TIP3   OH252365   6.294   5.441   0.291 -0.7236  0.0335 -0.2375
10317TIP3    H152366   6.333   5.483   0.367 -1.0046 -1.2728  0.6607
10317TIP3    H252367   6.258   5.359   0.325 -0.5435 -0.7437 -1.8513
10318TIP3   OH252368   3.123   5.134   0.514 -0.1214 -0.3247 -0.0343
10318TIP3    H152369   3.109   5.050   0.471  0.0057 -1.1498  1.4748
10318TIP3    H252370   3.059   5.193   0.474  0.0772 -1.0066 -1.4097
10319TIP3   OH252371   6.008   2.762  13.536  0.9721  0.3273 -0.3304
10319TIP3    H152372   6.086   2.815  13.523  0.2444  1.3364 -0.7102
10319TIP3    H252373   5.977   2.785  13.623  0.6062  0.6061 -0.5304
10320TIP3   OH252374   4.344   0.462  11.697  0.2536 -0.2586 -0.1882
10320TIP3    H152375   4.418   0.513  11.662  0.9674 -2.7818 -2.8241
10320TIP3    H252376   4.385   0.384  11.736 -0.9216 -1.4878 -1.2910
10321TIP3   OH252377   6.314   4.290   6.062  0.3219 -0.0741  1.1022
10321TIP3    H152378   6.367   4.225   6.107  0.3135 -0.3249  0.7491
10321TIP3    H252379   6.299   4.254   5.975  1.4705  0.9977  0.4210
10322TIP3   OH252380   0.035   0.279   2.698 -0.1395 -0.1049  0.4670
10322TIP3    H152381   0.045   0.261   2.605  0.6869 -0.3236  0.5878
10322TIP3    H252382   0.035   0.193   2.739 -0.8548 -0.0223  0.6374
10323TIP3   OH252383   2.446   2.829   4.384 -0.1248 -0.5051  0.0107
10323TIP3    H152384   2.527   2.819   4.334  0.1515  0.1333  0.3159
10323TIP3    H252385   2.449   2.759   4.449  0.6431  0.0554  0.6123
10324TIP3   OH252386   2.425   2.429   5.387  0.3267 -0.3331 -0.2526
10324TIP3    H152387   2.371   2.368   5.337 -0.4034  0.5397 -0.5603
10324TIP3    H252388   2.511   2.386   5.393 -0.2943 -1.6070 -0.0143
10325TIP3   OH252389   3.267   2.277  14.434  0.8172 -0.1660 -0.7313
10325TIP3    H152390   3.289   2.370  14.425  1.4624 -0.4140 -1.9877
10325TIP3    H252391   3.215   2.257  14.356  2.8610 -1.4175 -1.8872
10326TIP3   OH252392   0.704   6.214   0.571 -0.4937 -0.9004 -0.4775
10326TIP3    H152393   0.779   6.237   0.517  0.2228 -1.6197  0.1952
10326TIP3    H252394   0.694   6.289   0.630 -0.5644 -0.6205 -0.8438
10327TIP3   OH252395   0.706   5.413  12.117  0.2328  0.2889 -0.2098
10327TIP3    H152396   0.748   5.444  12.197  1.4383  0.8185 -1.0206
10327TIP3    H252397   0.709   5.318  12.125 -0.0871  0.3329  0.5785
10328TIP3   OH252398   2.455   2.287  11.281 -0.2461 -0.3142 -0.4886
10328TIP3    H152399   2.448   2.192  11.266  1.0981 -0.5335  0.1644
10328TIP3    H252400   2.536   2.297  11.331  0.2931  1.3128 -1.6398
10329TIP3   OH252401   2.890   2.665   6.338 -0.1778 -0.1032  0.8064
10329TIP3    H152402   2.882   2.760   6.349 -2.5242  0.0092 -0.9893
10329TIP3    H252403   2.949   2.654   6.263 -1.7003  0.1086 -0.4826
10330TIP3   OH252404   0.886   3.478  12.116 -0.2813  0.0724 -0.1376
10330TIP3    H152405   0.936   3.558  12.126  0.0256 -0.1193 -0.1463
10330TIP3    H252406   0.797   3.502  12.141  0.1945 -0.0683  1.7995
10331TIP3   OH252407   4.037   0.712  12.272  0.5476 -1.0199  0.5245
10331TIP3    H152408   4.060   0.804  12.290 -1.1129 -0.2906 -0.7644
10331TIP3    H252409   3.966   0.694  12.334  2.1443 -2.1445  2.1434
10332TIP3   OH252410   4.496   6.552   3.065 -0.2455  0.0011  0.6517
10332TIP3    H152411   4.567   6.551   3.001 -0.5794 -1.9083  0.2431
10332TIP3    H252412   4.531   6.604   3.138  1.7171 -1.0965  0.5783
10333TIP3   OH252413   1.496   3.961   1.853  0.4160 -0.0632  0.6851
10333TIP3    H152414   1.582   3.965   1.811 -0.4423  0.6192 -1.1409
10333TIP3    H252415   1.484   3.869   1.876  0.5333 -0.6958 -1.5544
10334TIP3   OH252416   0.388   3.815   5.269  0.0066  0.4893  0.2621
10334TIP3    H152417   0.481   3.833   5.260  0.2753 -1.0381 -0.2717
10334TIP3    H252418   0.379   3.781   5.358  0.3569 -1.3892 -0.3701
10335TIP3   OH252419   3.521   3.176  13.718  0.6020  0.1384  0.3828
10335TIP3    H152420   3.517   3.220  13.633  0.5622 -0.6015 -0.0068
10335TIP3    H252421   3.446   3.212  13.767 -0.3808 -0.6559 -0.5030
10336TIP3   OH252422   6.227   2.353   4.141  0.7509  0.3061 -0.1358
10336TIP3    H152423   6.251   2.426   4.084 -0.8299  0.4638 -0.6688
10336TIP3    H252424   6.300   2.292   4.134  2.3264  1.9816  0.6586
10337TIP3   OH252425   5.957   6.493   0.310  0.1182  0.5094 -0.3217
10337TIP3    H152426   5.969   6.405   0.346  0.8088  1.4235  1.8824
10337TIP3    H252427   6.044   6.532   0.313 -0.1207  1.1702 -1.6005
10338TIP3   OH252428   2.136   1.838   6.860 -0.6352 -0.3054 -0.0994
10338TIP3    H152429   2.169   1.923   6.832  0.0078  0.7028  3.2500
10338TIP3    H252430   2.179   1.775   6.803 -0.5192  1.5124 -2.1585
10339TIP3   OH252431   6.524   3.321   5.325  0.3267  0.3317 -0.2130
10339TIP3    H152432   6.490   3.400   5.283  0.0967  0.4830  0.2551
10339TIP3    H252433   6.603   3.299   5.275  0.6665  1.1391 -0.0305
10340TIP3   OH252434   2.781   1.367  14.563 -0.3418  0.0655 -0.0321
10340TIP3    H152435   2.850   1.431  14.582  0.2489 -0.5249 -0.1437
10340TIP3    H252436   2.766   1.322  14.646  1.8025 -2.0899 -0.6730
10341TIP3   OH252437   4.234   3.418  14.217 -0.3959 -0.1333 -0.0829
10341TIP3    H152438   4.282   3.499  14.234 -0.7393  0.1190 -0.2974
10341TIP3    H252439   4.190   3.398  14.300  1.2147 -1.1529  0.5645
10342TIP3   OH252440   2.186   0.927  15.280 -0.0934 -0.2514 -0.2500
10342TIP3    H152441   2.123   0.862  15.311 -1.8384  1.8507  0.9344
10342TIP3    H252442   2.173   0.930  15.185  0.8563 -2.3838 -0.4897
10343TIP3   OH252443   6.643   4.683  12.547  0.6173  0.0561 -0.1590
10343TIP3    H152444   6.671   4.751  12.609  3.2799 -0.7607 -0.3343
10343TIP3    H252445   6.658   4.601  12.593 -2.0229 -0.5284 -0.1716
10344TIP3   OH252446   5.979   4.043  17.240 -0.1492  0.1885  0.1318
10344TIP3    H152447   5.917   4.089  17.297  1.2159  2.6232 -0.2236
10344TIP3    H252448   6.028   3.987  17.300 -0.4198  0.8212  0.9756
10345TIP3   OH252449   6.143   3.814  11.716  0.2226 -0.1508  0.2817
10345TIP3    H152450   6.148   3.794  11.810  0.5389  0.7311  0.4623
10345TIP3    H252451   6.227   3.786  11.681  0.0495 -0.6141  0.2303
10346TIP3   OH252452   0.398   1.473  13.895 -0.4372  0.2493  0.4094
10346TIP3    H152453   0.457   1.526  13.840  0.0596 -0.5128  0.2000
10346TIP3    H252454   0.437   1.476  13.982  0.3929 -0.9490  0.0955
10347TIP3   OH252455   0.181   5.089   2.392 -1.0748 -1.0187 -0.1045
10347TIP3    H152456   0.197   5.175   2.356 -0.0119 -0.7683  0.8837
10347TIP3    H252457   0.248   5.033   2.352  0.0658 -0.7535  1.3161
10348TIP3   OH252458   3.480   0.469   0.554 -0.9739 -0.2609  0.7049
10348TIP3    H152459   3.458   0.403   0.489 -1.7665 -0.3940  1.1034
10348TIP3    H252460   3.475   0.552   0.506 -1.8910 -0.3267  0.6745
10349TIP3   OH252461   4.270   2.276   4.979 -0.0200 -0.0440 -0.5767
10349TIP3    H152462   4.331   2.268   4.906  2.0087  1.2788  0.8666
10349TIP3    H252463   4.301   2.352   5.029 -2.9544  0.7971  0.1881
10350TIP3   OH252464   6.159   5.163   2.228 -0.3370  0.3362  0.3885
10350TIP3    H152465   6.101   5.090   2.207 -0.3959  0.7195 -0.8609
10350TIP3    H252466   6.184   5.199   2.143  1.2984  0.5271  0.9181
10351TIP3   OH252467   0.227   6.336  15.803  0.3241  0.6194  0.6377
10351TIP3    H152468   0.142   6.379  15.809 -1.1607 -1.9237 -0.8197
10351TIP3    H252469   0.219   6.258  15.858  1.1239 -0.5286 -0.8061
10352TIP3   OH252470   3.607   3.058  14.771 -0.7913 -0.1708 -0.4425
10352TIP3    H152471   3.560   3.032  14.692 -2.1092 -1.5582  0.7261
10352TIP3    H252472   3.565   3.139  14.799  0.3647  0.8848 -1.6953
10353TIP3   OH252473   1.073   1.342   2.707 -0.3048 -0.2880  0.0753
10353TIP3    H152474   1.153   1.322   2.660  0.3576 -0.6490  1.3106
10353TIP3    H252475   1.002   1.315   2.648  0.5062 -2.1733 -0.1075
10354TIP3   OH252476   4.761   5.045   3.731 -0.5549  0.4400 -0.5400
10354TIP3    H152477   4.738   5.138   3.733 -0.8895  0.3457  0.9272
10354TIP3    H252478   4.682   5.000   3.761  0.0288 -0.2110  0.0523
10355TIP3   OH252479   0.437   1.246   5.862  0.4074 -0.5827  0.1524
10355TIP3    H152480   0.444   1.311   5.792  0.8109 -0.6880  0.0902
10355TIP3    H252481   0.482   1.287   5.936  1.0598 -0.9676 -0.0202
10356TIP3   OH252482   6.720   3.688   0.487  0.1733  0.5401  0.0391
10356TIP3    H152483   6.764   3.660   0.407 -1.4453 -1.7255 -0.1488
10356TIP3    H252484   6.651   3.748   0.457 -0.4919 -0.3796 -0.3160
10357TIP3   OH252485   0.976   6.212   2.370 -0.0739 -0.0185 -0.1147
10357TIP3    H152486   0.987   6.307   2.382 -1.2076 -0.0720  1.6713
10357TIP3    H252487   1.046   6.188   2.309  0.6579  1.8536 -0.0990
10358TIP3   OH252488   5.833   6.494   2.402  0.1468 -0.1488 -0.8225
10358TIP3    H152489   5.772   6.422   2.387 -1.7255  0.8526  1.3480
10358TIP3    H252490   5.894   6.460   2.469 -0.4349  0.0911 -0.1599
10359TIP3   OH252491   2.654   0.829   1.790 -0.0825  0.2048 -0.3669
10359TIP3    H152492   2.647   0.795   1.701 -2.7900  0.2081 -0.2447
10359TIP3    H252493   2.726   0.779   1.829  0.5646 -0.4284 -2.2588
10360TIP3   OH252494   1.756   2.157   5.154  0.1568 -0.0683  0.1168
10360TIP3    H152495   1.751   2.154   5.059  1.2121 -0.1967  0.0474
10360TIP3    H252496   1.809   2.234   5.172 -0.9901  0.6161  0.6579
10361TIP3   OH252497   0.022   3.162  17.372  0.5536  0.2727  0.8949
10361TIP3    H152498  -0.019   3.092  17.320  1.0028  0.3572  0.4155
10361TIP3    H252499   0.037   3.233  17.310 -1.5451  1.5346  1.7372
10362TIP3   OH252500   0.270   4.937  11.368 -0.5193  0.3941 -0.3431
10362TIP3    H152501   0.229   4.872  11.310  0.5714 -0.0946 -0.5998
10362TIP3    H252502   0.293   4.887  11.447 -1.3488  0.8973  0.2279
10363TIP3   OH252503   6.239   3.440   3.337 -0.0048  0.0997  0.1376
10363TIP3    H152504   6.147   3.413   3.343 -0.0244  0.0829 -0.2188
10363TIP3    H252505   6.241   3.499   3.262  0.5550 -1.0300 -0.7630
10364TIP3   OH252506   5.118   6.715  12.463  0.2308 -0.4001  0.1275
10364TIP3    H152507   5.198   6.730  12.513  0.4958 -0.3275 -0.3248
10364TIP3    H252508   5.099   6.799  12.422 -1.2070  0.1951  1.8471
10365TIP3   OH252509   5.443   0.981  14.994  0.5316  0.5147 -0.4565
10365TIP3    H152510   5.366   0.931  14.967  0.0521  0.6100  0.6663
10365TIP3    H252511   5.424   1.071  14.965  1.1044  0.1988 -1.8959
10366TIP3   OH252512   1.102   5.716   5.624  0.4069  0.3259 -0.4421
10366TIP3    H152513   1.103   5.639   5.681 -1.1365  0.0323 -0.7774
10366TIP3    H252514   1.194   5.729   5.599  0.8115 -0.8113  0.3969
10367TIP3   OH252515   0.719   3.571  12.786  0.1245 -0.2815  0.0885
10367TIP3    H152516   0.748   3.480  12.788  3.3841  0.6169 -0.5518
10367TIP3    H252517   0.799   3.622  12.798 -1.6351  2.5259  0.7757
10368TIP3   OH252518   0.003   5.719  16.023 -0.2453  0.4027  0.2628
10368TIP3    H152519  -0.014   5.795  16.080 -3.3239 -1.5276  2.1807
10368TIP3    H252520   0.040   5.758  15.943  2.0352  3.4902  2.5431
10369TIP3   OH252521   0.260   1.190   0.185  0.0780 -0.1775 -0.1128
10369TIP3    H152522   0.256   1.210   0.092  2.6476 -0.5401 -0.3730
10369TIP3    H252523   0.239   1.096   0.191  0.7165 -0.3439 -0.4377
10370TIP3   OH252524   0.959   4.288  15.839 -0.0435 -0.6688  0.6482
10370TIP3    H152525   0.963   4.198  15.806 -0.6327 -0.7828  0.8729
10370TIP3    H252526   0.925   4.279  15.928 -1.6326 -0.1073  0.1268
10371TIP3   OH252527   0.180   5.811   0.865 -0.3675 -0.0855  0.6108
10371TIP3    H152528   0.112   5.858   0.817 -0.1884  0.6260  1.0423
10371TIP3    H252529   0.183   5.724   0.824  0.8013  0.9494 -1.6386
10372TIP3   OH252530   4.518   6.336  15.146 -0.1424  0.1206  0.2838
10372TIP3    H152531   4.432   6.294  15.152 -1.1225  1.9627 -0.1996
10372TIP3    H252532   4.505   6.423  15.183  1.5332  0.4454  0.1916
10373TIP3   OH252533   3.767   5.461  15.571  0.4906  0.4362 -0.3127
10373TIP3    H152534   3.746   5.554  15.562 -0.6353  0.2866  0.5473
10373TIP3    H252535   3.695   5.416  15.527 -0.2628 -0.0632  1.3609
10374TIP3   OH252536   3.052   5.275   3.422 -0.1794 -0.5741 -0.2060
10374TIP3    H152537   2.962   5.268   3.391 -0.1799 -0.7564 -0.1597
10374TIP3    H252538   3.064   5.369   3.438 -0.3883 -0.5601 -0.1276
10375TIP3   OH252539   3.602   3.811   5.935  0.3249  0.0439 -0.7548
10375TIP3    H152540   3.560   3.725   5.936  0.4013  0.0082 -0.3497
10375TIP3    H252541   3.543   3.865   5.882 -0.4460  0.0899  0.1174
10376TIP3   OH252542   5.243   5.424  15.501  0.3837 -0.2720  0.4096
10376TIP3    H152543   5.329   5.397  15.471  1.5692 -0.8381  3.9337
10376TIP3    H252544   5.191   5.344  15.500  0.8409 -0.5830  1.2078
10377TIP3   OH252545   3.270   5.086  12.053 -0.5182  0.6797  0.2925
10377TIP3    H152546   3.328   5.044  12.117 -0.6847 -1.9839 -1.1561
10377TIP3    H252547   3.327   5.145  12.004  0.8573 -1.1284 -0.4372
10378TIP3   OH252548   3.263   5.632  13.970 -0.5594 -0.7972  0.0366
10378TIP3    H152549   3.173   5.602  13.956 -1.2663 -0.0738  2.5310
10378TIP3    H252550   3.300   5.569  14.032  1.1148 -1.7749 -1.8514
10379TIP3   OH252551   3.878   3.911   3.144  0.0028 -0.1565  0.1366
10379TIP3    H152552   3.793   3.875   3.171 -0.6308  1.1195 -0.0412
10379TIP3    H252553   3.882   3.996   3.188  1.3961 -0.3843  0.4830
10380TIP3   OH252554   0.990   1.843   1.447 -0.2753 -0.1363 -0.2981
10380TIP3    H152555   0.898   1.831   1.470  0.0278 -1.1584  0.4326
10380TIP3    H252556   1.014   1.927   1.487 -0.6664 -0.2753  0.2342
10381TIP3   OH252557   6.229   3.593   4.578 -0.5765  0.4500  0.2465
10381TIP3    H152558   6.187   3.668   4.620  1.1165  1.4544  0.2132
10381TIP3    H252559   6.218   3.609   4.484 -0.7877  0.3068  0.2456
10382TIP3   OH252560   1.707   3.420  14.346  0.2986 -0.1614  0.1965
10382TIP3    H152561   1.636   3.372  14.388 -0.3030  1.3220  0.9425
10382TIP3    H252562   1.779   3.357  14.342 -1.5969 -2.3894 -2.4393
10383TIP3   OH252563   6.458   2.324   2.910 -0.1659 -0.3065 -0.5700
10383TIP3    H152564   6.403   2.248   2.927 -0.0492 -0.9316 -2.7012
10383TIP3    H252565   6.545   2.297   2.938 -0.5648  0.0243  1.0954
10384TIP3   OH252566   2.215   5.082  15.431  0.3545 -0.2270 -0.0165
10384TIP3    H152567   2.227   5.161  15.379 -0.0375  1.0833  1.7897
10384TIP3    H252568   2.129   5.048  15.404  0.2081  0.3555 -0.3034
10385TIP3   OH252569   6.217   2.372  16.227 -0.1261  0.2329  0.0373
10385TIP3    H152570   6.158   2.296  16.225 -3.0414  2.2370  1.4530
10385TIP3    H252571   6.279   2.352  16.297  0.6252 -1.7146 -1.0966
10386TIP3   OH252572   0.106   6.330  12.213 -0.1908  0.6339 -0.0849
10386TIP3    H152573   0.053   6.251  12.200  0.3700 -0.0055  1.3661
10386TIP3    H252574   0.195   6.298  12.226 -0.3142  1.2286  3.1302
10387TIP3   OH252575   1.494   0.790   2.210 -0.0534  0.0930  0.1921
10387TIP3    H152576   1.426   0.818   2.271  0.8016  0.0983  1.1774
10387TIP3    H252577   1.501   0.696   2.224 -1.9255 -0.4771 -2.0893
10388TIP3   OH252578   4.498   6.453   6.571 -0.1027 -0.2986  0.3412
10388TIP3    H152579   4.548   6.374   6.594  0.4005 -1.0189 -2.7738
10388TIP3    H252580   4.419   6.448   6.626  1.0156 -1.6772  1.9248
10389TIP3   OH252581   1.031   4.547  11.386 -0.3865 -0.4662  0.2646
10389TIP3    H152582   1.022   4.455  11.412 -0.2318 -0.5161  0.1451
10389TIP3    H252583   1.123   4.568  11.405 -0.5382 -0.2047  0.7127
10390TIP3   OH252584   0.927   3.915   0.569  0.2568 -0.2398  0.7723
10390TIP3    H152585   0.952   4.007   0.560  0.9683 -0.4624  0.3676
10390TIP3    H252586   0.851   3.916   0.626 -0.2222  0.6737  0.1486
10391TIP3   OH252587   2.187   0.335   1.515 -0.1866  0.0105 -0.0692
10391TIP3    H152588   2.115   0.352   1.577 -1.5106 -0.1825 -1.4843
10391TIP3    H252589   2.219   0.248   1.540 -1.2744 -0.4370 -0.1342
10392TIP3   OH252590   6.162   3.120  17.133  0.1145 -0.0582  0.0308
10392TIP3    H152591   6.189   3.031  17.111 -0.7691 -0.3066 -0.0754
10392TIP3    H252592   6.177   3.126  17.228  0.4299 -0.2197 -0.0045
10393TIP3   OH252593   4.262   4.315   6.445 -0.2091 -0.1562  0.4676
10393TIP3    H152594   4.193   4.263   6.405  0.3154 -1.2649  0.9456
10393TIP3    H252595   4.324   4.250   6.479 -0.5542  0.6887  2.9397
10394TIP3   OH252596   5.052   3.193   3.068 -0.3365 -0.0756 -0.4225
10394TIP3    H152597   4.975   3.193   3.011  0.9465  0.5855 -2.2479
10394TIP3    H252598   5.126   3.183   3.009  0.9935 -0.9886  1.3103
10395TIP3   OH252599   0.481   5.141  16.851  0.0824 -0.0035  0.4479
10395TIP3    H152600   0.481   5.215  16.912 -0.7269  0.6095 -0.2666
10395TIP3    H252601   0.431   5.172  16.776 -0.1902 -1.2526  0.0905
10396TIP3   OH252602   6.499   1.074  14.515 -0.4284 -0.3211 -0.5255
10396TIP3    H152603   6.583   1.068  14.468 -0.9813 -2.8944 -1.3306
10396TIP3    H252604   6.459   0.988  14.503 -1.8923 -0.1472  2.3377
10397TIP3   OH252605   6.464   4.244   2.187  0.2875 -0.3529 -0.2158
10397TIP3    H152606   6.439   4.190   2.112  0.0751 -1.5335  0.6874
10397TIP3    H252607   6.555   4.220   2.204 -0.0424 -1.0115  0.6673
10398TIP3   OH252608   4.692   6.521  11.120 -0.4596 -0.0569  0.6908
10398TIP3    H152609   4.756   6.592  11.118  1.8601 -2.0251  1.1417
10398TIP3    H252610   4.671   6.506  11.028  1.1447 -0.5379  0.3684
10399TIP3   OH252611   2.235   2.403  11.986  0.0719 -0.3967 -0.9093
10399TIP3    H152612   2.145   2.436  11.989  0.2757  0.3078 -2.1493
10399TIP3    H252613   2.250   2.369  12.074 -0.5683  1.7204  0.0843
10400TIP3   OH252614   2.616   1.442  15.385  0.2391 -0.2132  0.4456
10400TIP3    H152615   2.526   1.443  15.417  0.4479 -2.0393  1.2294
10400TIP3    H252616   2.623   1.360  15.337  0.6207  1.3545 -2.4369
10401TIP3   OH252617   3.590   2.143   2.337 -0.0297  0.0694  0.4747
10401TIP3    H152618   3.612   2.088   2.262  0.2312  0.1616  0.4815
10401TIP3    H252619   3.652   2.216   2.332 -0.5331  0.4865  0.3290
10402TIP3   OH252620   3.242   5.374  14.261  0.0213 -0.2048 -0.0301
10402TIP3    H152621   3.328   5.415  14.264 -0.4873  0.8955 -0.2167
10402TIP3    H252622   3.243   5.311  14.333  0.1854  1.3963  1.4095
10403TIP3   OH252623   5.146   6.543   3.638  0.2573  0.0665 -0.4998
10403TIP3    H152624   5.178   6.468   3.587  0.7373  0.4533 -0.7816
10403TIP3    H252625   5.216   6.608   3.631 -0.2244  0.6084 -0.4064
10404TIP3   OH252626   1.200   3.713   3.845  0.3682 -0.2280  0.0935
10404TIP3    H152627   1.276   3.732   3.901  0.7399 -0.4114 -0.3417
10404TIP3    H252628   1.143   3.789   3.856  0.5206 -0.1781  0.5786
10405TIP3   OH252629   1.477   4.683   3.954  0.3113 -0.0828  0.4400
10405TIP3    H152630   1.557   4.634   3.971  0.1021 -0.7312 -0.3818
10405TIP3    H252631   1.472   4.689   3.859 -0.1527  0.7368  0.5071
10406TIP3   OH252632   2.403   1.137  16.466 -0.0455  0.7573  0.5064
10406TIP3    H152633   2.323   1.086  16.455 -0.1711  0.8544  0.9354
10406TIP3    H252634   2.434   1.112  16.554 -0.6373  2.1460  1.1389
10407TIP3   OH252635   4.083   0.373  12.111  0.0465 -0.3880 -0.1730
10407TIP3    H152636   4.162   0.402  12.158  1.6881 -1.3165 -2.1548
10407TIP3    H252637   4.070   0.440  12.044  0.7359 -1.4918 -1.4621
10408TIP3   OH252638   0.426   5.838  13.706 -0.1858  0.0898 -0.2775
10408TIP3    H152639   0.480   5.878  13.638 -1.5394  2.1851 -0.2115
10408TIP3    H252640   0.488   5.788  13.760  1.0177 -1.1558 -2.6271
10409TIP3   OH252641   2.119   3.373  12.278 -0.0133  0.0782  0.3750
10409TIP3    H152642   2.179   3.298  12.278  0.1967  0.1463 -2.2081
10409TIP3    H252643   2.174   3.448  12.302  0.2539 -0.2793  0.8933
10410TIP3   OH252644   2.014   1.929   5.259 -0.2019 -0.2156  0.5081
10410TIP3    H152645   2.020   1.948   5.352  1.9468  0.4677  0.2745
10410TIP3    H252646   1.924   1.898   5.247 -0.2241 -1.3337  2.9680
10411TIP3   OH252647   4.647   1.609  17.345  0.1881  0.2009  0.0458
10411TIP3    H152648   4.567   1.651  17.312  0.6837 -0.1557 -1.7717
10411TIP3    H252649   4.692   1.677  17.395 -1.1482  0.4550  0.9493
10412TIP3   OH252650   6.184   1.723   4.050  0.4103  0.3692  0.1197
10412TIP3    H152651   6.217   1.634   4.061  0.9739  0.7211  1.3724
10412TIP3    H252652   6.090   1.712   4.035  0.8250 -0.5608 -2.1599
10413TIP3   OH252653   4.439   1.112  15.319  0.2372  0.2928  1.0128
10413TIP3    H152654   4.478   1.076  15.240 -1.0178 -0.3920  0.6788
10413TIP3    H252655   4.483   1.066  15.391  0.7366  0.2574  0.6918
10414TIP3   OH252656   3.966   4.409  13.555 -0.2414  0.0925 -0.0349
10414TIP3    H152657   3.899   4.427  13.489 -0.2529 -0.1333 -0.0842
10414TIP3    H252658   4.041   4.378  13.505 -0.6146 -1.1451  0.1356
10415TIP3   OH252659   3.975   6.040  13.747  0.2369  0.1306  0.6372
10415TIP3    H152660   4.034   5.967  13.731  0.6800  0.5431  0.3632
10415TIP3    H252661   3.888   6.000  13.754  0.5135 -0.4499  0.7957
10416TIP3   OH252662   5.623   1.634  12.014 -0.0002  0.2263 -0.1121
10416TIP3    H152663   5.558   1.576  12.055 -0.5957  2.3889  2.2089
10416TIP3    H252664   5.707   1.595  12.038 -0.3783  0.4556  1.7898
10417TIP3   OH252665   3.448   2.276  12.647 -0.2192  0.0073  0.1979
10417TIP3    H152666   3.527   2.290  12.700  0.6930  3.2801 -1.7394
10417TIP3    H252667   3.386   2.341  12.677  0.2936  1.9232 -2.4951
10418TIP3   OH252668   5.584   5.861  16.214 -0.4845 -0.4259  0.1319
10418TIP3    H152669   5.535   5.915  16.277 -1.2115 -0.9153  0.0022
10418TIP3    H252670   5.580   5.910  16.132 -0.0858 -0.0917  0.3116
10419TIP3   OH252671   5.368   3.975   2.412  0.1540 -0.4210 -0.3251
10419TIP3    H152672   5.462   3.967   2.394  0.5992  1.0884  1.1438
10419TIP3    H252673   5.332   4.012   2.332  1.2740  1.4927 -0.0072
10420TIP3   OH252674   5.190   3.856  15.222  0.7723  0.4956 -0.2563
10420TIP3    H152675   5.283   3.860  15.199  0.7494  0.9912 -0.2692
10420TIP3    H252676   5.168   3.945  15.247  0.0985  0.5577 -1.0251
10421TIP3   OH252677   1.422   2.397  14.079 -0.1069  0.0720  0.4784
10421TIP3    H152678   1.451   2.449  14.154  1.0734  0.8080 -0.4467
10421TIP3    H252679   1.493   2.405  14.015 -0.6237 -1.3850 -0.3248
10422TIP3   OH252680   5.118   2.080  17.240  0.3745 -0.2598  0.1963
10422TIP3    H152681   5.131   2.021  17.314  2.0550  0.1784  0.2826
10422TIP3    H252682   5.114   2.168  17.279  0.2872 -0.1017 -0.1569
10423TIP3   OH252683   4.767   1.033   2.964  0.0294  0.0256 -0.1088
10423TIP3    H152684   4.749   1.019   3.057  2.2748  0.6533  0.4600
10423TIP3    H252685   4.734   1.121   2.946 -1.7670 -0.6354 -0.3462
10424TIP3   OH252686   5.593   1.323  12.366  0.4874 -0.6301  0.0765
10424TIP3    H152687   5.550   1.248  12.324 -1.2437 -0.0112  0.6350
10424TIP3    H252688   5.671   1.286  12.407  0.1144 -1.9741 -0.3669
10425TIP3   OH252689   0.577   6.644  11.301  0.2264 -0.4379 -0.0681
10425TIP3    H152690   0.672   6.649  11.308  0.1040  0.4055  1.1654
10425TIP3    H252691   0.551   6.724  11.255  0.1104 -0.6973 -0.4614
10426TIP3   OH252692   1.029   4.218  16.219 -0.5340  0.2299  0.3234
10426TIP3    H152693   1.051   4.289  16.280 -1.0613 -0.0015  0.7903
10426TIP3    H252694   0.941   4.241  16.187 -1.6719 -1.3051  2.1310
10427TIP3   OH252695   4.468   4.408  11.965 -0.2237 -0.0599  0.1443
10427TIP3    H152696   4.409   4.397  11.890  0.8917 -0.3211 -0.7186
10427TIP3    H252697   4.523   4.482  11.941  1.0426 -0.9965  0.0870
10428TIP3   OH252698   3.518   6.573   6.133  0.7407 -0.1404  0.0966
10428TIP3    H152699   3.599   6.560   6.183  0.9553  0.4687 -0.0868
10428TIP3    H252700   3.470   6.639   6.182  0.3574 -0.4810  0.1900
10429TIP3   OH252701   0.998   0.488  14.627  0.6255  0.2862 -0.0463
10429TIP3    H152702   1.038   0.402  14.614 -0.1470 -0.2286  0.8742
10429TIP3    H252703   1.072   0.547  14.643  1.0749 -0.4793  0.7536
10430TIP3   OH252704   3.649   2.693  16.214  0.1892 -0.6365 -0.5120
10430TIP3    H152705   3.661   2.769  16.272  0.3388 -0.8068 -0.3190
10430TIP3    H252706   3.647   2.731  16.126 -0.5197 -0.3238 -0.3695
10431TIP3   OH252707   6.618   5.051  14.761 -0.0303 -0.1161  0.2159
10431TIP3    H152708   6.704   5.092  14.769  0.0809  0.1811 -2.0148
10431TIP3    H252709   6.577   5.093  14.685 -0.9533 -2.2976 -0.5970
10432TIP3   OH252710   5.631   5.511  16.989 -0.4955  0.1189  0.0980
10432TIP3    H152711   5.641   5.533  17.081  1.0629  1.0980 -0.2739
10432TIP3    H252712   5.579   5.583  16.953 -0.6357  0.0162  0.0925
10433TIP3   OH252713   2.129   5.855   2.567 -0.4516  0.1774 -0.0968
10433TIP3    H152714   2.086   5.931   2.529  0.7164  0.0275 -1.8244
10433TIP3    H252715   2.219   5.883   2.581 -0.3688 -0.4350  0.6503
10434TIP3   OH252716   4.593   5.755   5.228 -0.3819  0.1454  0.0390
10434TIP3    H152717   4.649   5.717   5.160 -2.4593 -0.7440 -1.2855
10434TIP3    H252718   4.537   5.817   5.181 -3.0181 -1.7076  0.5043
10435TIP3   OH252719   5.767   3.114  12.191  0.1784  0.2482 -0.0667
10435TIP3    H152720   5.730   3.192  12.232  0.6920  0.1451  0.6195
10435TIP3    H252721   5.806   3.145  12.110 -0.8377  0.4662 -0.4890
10436TIP3   OH252722   6.475   5.816  12.779 -0.4710 -0.2150 -0.5317
10436TIP3    H152723   6.492   5.865  12.859 -2.1174 -1.1773  0.4751
10436TIP3    H252724   6.562   5.800  12.742  0.3056  0.6664  0.8041
10437TIP3   OH252725   0.817   1.391   1.147 -0.7912  0.3005 -0.3477
10437TIP3    H152726   0.737   1.437   1.123 -1.9019 -0.3417  1.8323
10437TIP3    H252727   0.834   1.418   1.238  1.8158  0.8664 -0.9183
10438TIP3   OH252728   5.685   5.363   0.934  0.1438 -0.0399  0.1005
10438TIP3    H152729   5.656   5.321   1.014  0.8228 -0.9406 -0.1060
10438TIP3    H252730   5.623   5.435   0.920 -0.6951 -0.6167  0.7762
10439TIP3   OH252731   2.452   1.960  12.244 -0.1355  0.1314 -0.2221
10439TIP3    H152732   2.424   1.985  12.156 -1.2345 -1.5856 -0.4085
10439TIP3    H252733   2.464   2.043  12.290 -0.0303  1.0476 -1.8287
10440TIP3   OH252734   2.127   0.916   3.663  0.3708 -0.5381  0.4696
10440TIP3    H152735   2.129   0.836   3.716 -2.3613 -0.6189  0.6005
10440TIP3    H252736   2.145   0.986   3.726 -2.7646 -0.6438  1.6526
10441TIP3   OH252737   6.506   3.581  14.154  0.6647  0.0997 -0.3224
10441TIP3    H152738   6.531   3.665  14.115 -0.6031 -0.2911 -2.0868
10441TIP3    H252739   6.502   3.599  14.248 -0.8965  2.3932 -0.7457
10442TIP3   OH252740   6.325   2.390  15.886  0.3744 -0.1777  0.4679
10442TIP3    H152741   6.275   2.317  15.849  2.6901 -1.3954 -0.4634
10442TIP3    H252742   6.351   2.358  15.973  1.8263 -0.7200 -0.1433
10443TIP3   OH252743   3.679   3.210   5.164 -0.1893  0.4130 -0.2551
10443TIP3    H152744   3.586   3.212   5.141  0.0322  2.0340 -1.1895
10443TIP3    H252745   3.681   3.180   5.255 -1.3136 -3.5719 -1.3358
10444TIP3   OH252746   1.886   2.495  14.403  0.3421 -0.2217  0.3083
10444TIP3    H152747   1.947   2.423  14.418  1.0478  0.4668  0.8508
10444TIP3    H252748   1.934   2.573  14.430 -1.7032  0.1215  3.4663
10445TIP3   OH252749   4.185   6.249  13.724 -0.1161  0.0966 -0.3235
10445TIP3    H152750   4.170   6.256  13.629  0.9075  0.9070 -0.4383
10445TIP3    H252751   4.123   6.182  13.752 -1.7685  1.1668 -1.2516
10446TIP3   OH252752   2.528   2.285  16.553  0.0647  0.5775 -0.1558
10446TIP3    H152753   2.496   2.243  16.633  0.3920  1.0384  0.2181
10446TIP3    H252754   2.614   2.247  16.538  0.0736  0.6138 -0.1987
10447TIP3   OH252755   0.957   0.102   3.494 -0.2187 -0.4389 -0.2202
10447TIP3    H152756   1.038   0.097   3.442 -0.1180 -1.5944  0.0080
10447TIP3    H252757   0.926   0.191   3.482  1.2887  0.1315 -0.0200
10448TIP3   OH252758   4.272   5.624   5.726  0.8181 -0.0869 -0.0178
10448TIP3    H152759   4.367   5.610   5.731  0.6391 -1.1163  1.0235
10448TIP3    H252760   4.250   5.671   5.806  0.3447 -0.5783  0.1490
10449TIP3   OH252761   1.156   6.671  15.496  0.0809 -0.0852  0.0275
10449TIP3    H152762   1.171   6.587  15.540  0.4742  0.9364  1.9559
10449TIP3    H252763   1.105   6.722  15.559 -1.4466  0.6428 -1.7055
10450TIP3   OH252764   3.135   3.607  15.535  0.5650  0.6130  0.2047
10450TIP3    H152765   3.066   3.628  15.598 -0.5500  1.2413 -1.1720
10450TIP3    H252766   3.105   3.526  15.493  1.6943 -0.2525  0.9907
10451TIP3   OH252767   1.364   0.389   1.031  0.1565  0.1151  0.1590
10451TIP3    H152768   1.272   0.413   1.044  0.2398  0.6060 -0.1620
10451TIP3    H252769   1.407   0.416   1.112  0.0129 -0.1548  0.3272
10452TIP3   OH252770   6.372   6.081   0.706  0.4473 -0.0684 -0.0713
10452TIP3    H152771   6.348   5.993   0.734  2.6994 -0.4926  0.7387
10452TIP3    H252772   6.468   6.080   0.703  0.5165  1.2405 -3.7809
10453TIP3   OH252773   5.210   4.448  16.043  0.7953  0.3209  0.3528
10453TIP3    H152774   5.275   4.456  15.973  2.0985  0.3940  1.5336
10453TIP3    H252775   5.246   4.381  16.101 -0.7086 -0.3910  0.5016
10454TIP3   OH252776   0.968   1.648  14.714 -0.1271 -0.1677  0.6740
10454TIP3    H152777   1.058   1.677  14.704 -0.1156 -0.2804  0.4366
10454TIP3    H252778   0.933   1.646  14.625 -0.6346  0.7257  0.8397
10455TIP3   OH252779   3.010   3.372  12.281 -0.9336  0.0838 -0.3673
10455TIP3    H152780   3.034   3.300  12.339 -2.6567 -0.5410 -0.3750
10455TIP3    H252781   3.053   3.449  12.319  1.2355 -0.9533 -0.5529
10456TIP3   OH252782   3.103   2.161   3.705  0.0282  0.3935 -0.1441
10456TIP3    H152783   3.112   2.241   3.757 -0.3512  0.0916  0.3935
10456TIP3    H252784   3.193   2.135   3.685  0.2424 -0.1699  1.4224
10457TIP3   OH252785   6.435   5.896  14.955  0.3831  0.1587 -0.3717
10457TIP3    H152786   6.438   5.888  15.051 -0.2863 -0.6866 -0.4105
10457TIP3    H252787   6.487   5.822  14.924 -0.6118 -0.4218 -0.6794
10458TIP3   OH252788   0.024   1.829  14.357 -0.5359  0.1765 -0.5187
10458TIP3    H152789  -0.034   1.753  14.353 -0.9749  0.5415 -1.5374
10458TIP3    H252790  -0.019   1.890  14.416 -0.6707  0.0190 -0.4541
10459TIP3   OH252791   0.484   3.557   2.919  0.2434  0.2549 -0.7494
10459TIP3    H152792   0.427   3.616   2.870 -2.5486 -0.8995  0.8448
10459TIP3    H252793   0.539   3.515   2.852  0.8334  3.0209 -2.1139
10460TIP3   OH252794   2.198   3.350   4.073 -0.0601 -0.0792 -0.2878
10460TIP3    H152795   2.239   3.432   4.099 -0.5847 -0.1490  0.8216
10460TIP3    H252796   2.137   3.374   4.004  1.5405  0.0802 -1.7157
10461TIP3   OH252797   2.760   2.114  13.255 -0.1169 -0.7704  1.0099
10461TIP3    H152798   2.738   2.207  13.262 -1.1028 -0.7390 -1.5197
10461TIP3    H252799   2.711   2.073  13.327 -2.5495  0.2809  0.0835
10462TIP3   OH252800   0.558   4.270   6.685  0.4634  0.2495 -0.1695
10462TIP3    H152801   0.650   4.247   6.681  0.1056 -1.3582  0.0294
10462TIP3    H252802   0.549   4.344   6.626  2.0744  1.1965  0.7085
10463TIP3   OH252803   0.374   3.728  11.019 -0.3365 -0.8078  1.4810
10463TIP3    H152804   0.353   3.651  11.072 -0.0976 -1.7702  0.2200
10463TIP3    H252805   0.289   3.770  11.003 -0.8225 -2.2660  0.0275
10464TIP3   OH252806   1.791   3.312   2.631  0.1482  0.2123  0.2497
10464TIP3    H152807   1.867   3.369   2.647  0.0795  0.8995 -1.5908
10464TIP3    H252808   1.730   3.367   2.582 -2.0301 -0.0184  2.5284
10465TIP3   OH252809   1.269   0.651   0.088  0.7637  0.6140  0.1006
10465TIP3    H152810   1.358   0.623   0.106  0.4533 -0.7357 -0.3264
10465TIP3    H252811   1.229   0.577   0.041 -0.4619  1.3338 -0.0548
10466TIP3   OH252812   5.991   0.360   1.303  0.7473  0.5231 -0.0836
10466TIP3    H152813   6.043   0.374   1.224  1.7709  0.1121  0.5057
10466TIP3    H252814   5.923   0.298   1.275 -0.3388  2.1523 -1.2171
10467TIP3   OH252815   5.478   3.848  11.387  0.1373  0.3861  0.2316
10467TIP3    H152816   5.560   3.883  11.423 -1.0162  1.3630  2.0899
10467TIP3    H252817   5.452   3.912  11.321  0.7492  0.1744 -0.2252
10468TIP3   OH252818   1.883   0.266  11.860 -0.0299  0.0156  0.3782
10468TIP3    H152819   1.917   0.268  11.950 -1.5038 -1.8036  1.0461
10468TIP3    H252820   1.797   0.307  11.866  0.6671  1.7301 -0.6589
10469TIP3   OH252821   6.727   2.104  17.266  0.0140  0.0221  0.1264
10469TIP3    H152822   6.794   2.166  17.239 -0.2645 -0.2907 -1.3951
10469TIP3    H252823   6.774   2.038  17.317  0.3979  1.1717  1.3115
10470TIP3   OH252824   0.261   1.476  14.852 -0.6337  0.5528 -0.0413
10470TIP3    H152825   0.235   1.388  14.881 -0.0664  0.5341  0.4128
10470TIP3    H252826   0.203   1.535  14.901 -0.6758  0.4567  0.0254
10471TIP3   OH252827   1.931   6.700  16.165 -0.5255  0.7680 -0.0643
10471TIP3    H152828   1.890   6.614  16.172  1.1575 -0.1040 -0.3006
10471TIP3    H252829   1.942   6.713  16.070 -0.1964  0.9473 -0.0035
10472TIP3   OH252830   0.727   3.272   1.753  0.0655  0.3710 -0.2735
10472TIP3    H152831   0.721   3.269   1.849  0.9907  0.3994 -0.2131
10472TIP3    H252832   0.655   3.329   1.727 -0.1342  0.4441  0.4085
10473TIP3   OH252833   0.675   3.036   4.245 -0.5507 -0.2334  0.0665
10473TIP3    H152834   0.613   3.035   4.172  0.9357  0.7649 -1.2602
10473TIP3    H252835   0.700   3.128   4.255  0.5063 -0.5700  0.7485
10474TIP3   OH252836   0.297   1.097   3.437 -0.0487  0.0495  0.1165
10474TIP3    H152837   0.387   1.127   3.426  0.2370 -0.1761  1.7035
10474TIP3    H252838   0.281   1.041   3.361  1.4823 -0.7086  0.3211
10475TIP3   OH252839   5.648   3.567   5.923  0.2223 -0.4465  0.0105
10475TIP3    H152840   5.588   3.588   5.852  1.1971  0.1711 -0.6479
10475TIP3    H252841   5.689   3.650   5.946 -1.4115 -0.2384  2.6028
10476TIP3   OH252842   4.757   1.912   5.940 -0.2053  0.4424  0.1569
10476TIP3    H152843   4.752   1.999   5.980 -1.8927 -0.4647  2.1377
10476TIP3    H252844   4.666   1.882   5.937  0.3330 -1.2336 -0.5639
10477TIP3   OH252845   1.286   4.627  12.536 -0.3136  0.2388 -0.4060
10477TIP3    H152846   1.216   4.633  12.601  0.1772  0.7528  0.0785
10477TIP3    H252847   1.357   4.681  12.571  1.6533 -2.8149  0.7453
10478TIP3   OH252848   6.547   1.607  16.751 -0.3840  0.1904 -0.2228
10478TIP3    H152849   6.617   1.653  16.705  0.5091  0.8576  1.6746
10478TIP3    H252850   6.504   1.674  16.803  0.2609 -0.8598  1.7900
10479TIP3   OH252851   4.565   1.514  13.397  0.2839 -0.0404 -0.1469
10479TIP3    H152852   4.529   1.602  13.403  0.5395  0.0309  0.4437
10479TIP3    H252853   4.655   1.527  13.367  0.0642 -0.1643 -0.8790
10480TIP3   OH252854   2.812   0.510   0.592 -0.0473 -0.4764 -0.2296
10480TIP3    H152855   2.862   0.431   0.608  0.9234 -0.1437 -1.4856
10480TIP3    H252856   2.851   0.548   0.513 -2.5519 -0.4411 -1.5441
10481TIP3   OH252857   0.647   5.635   1.269 -0.5534  0.5380 -0.2578
10481TIP3    H152858   0.689   5.642   1.183 -0.0220  2.1440  0.0927
10481TIP3    H252859   0.719   5.630   1.331 -0.8838  1.3317  0.2107
10482TIP3   OH252860   3.079   3.219   2.580 -0.1603  0.0645  0.0386
10482TIP3    H152861   3.098   3.168   2.502 -0.2873 -2.7778  1.7355
10482TIP3    H252862   2.984   3.227   2.581 -0.1140  0.8426 -0.4773
10483TIP3   OH252863   3.585   2.373  13.138 -0.5179 -0.5419 -0.0191
10483TIP3    H152864   3.543   2.422  13.208 -0.2316  0.4380 -0.5054
10483TIP3    H252865   3.643   2.437  13.096  0.9375 -1.6637  0.2072
10484TIP3   OH252866   4.822   0.756  14.531 -0.0413 -0.2657 -0.2160
10484TIP3    H152867   4.799   0.844  14.501 -1.6449  0.4087  2.5912
10484TIP3    H252868   4.751   0.701  14.499 -0.5141  0.0146  0.3226
10485TIP3   OH252869   1.226   3.123  15.978 -0.3508  0.2053 -0.2586
10485TIP3    H152870   1.261   3.035  15.989 -1.4986 -0.2099  0.3290
10485TIP3    H252871   1.132   3.114  15.998 -0.4614  1.5804 -0.0430
10486TIP3   OH252872   2.890   0.114  16.785  0.7744 -0.5152  0.0168
10486TIP3    H152873   2.872   0.187  16.845 -2.0169 -1.3520  0.3608
10486TIP3    H252874   2.892   0.037  16.841 -0.9009 -1.1948 -0.7879
10487TIP3   OH252875   0.654   2.431  15.713 -0.2885 -0.3211  0.0028
10487TIP3    H152876   0.726   2.489  15.737 -0.8514  0.3504  0.1129
10487TIP3    H252877   0.592   2.488  15.668  0.1555 -1.2805 -1.9428
10488TIP3   OH252878   2.859   5.879   0.663  0.2093 -0.3542  0.0257
10488TIP3    H152879   2.780   5.826   0.654 -0.1316  0.1250  0.1212
10488TIP3    H252880   2.894   5.856   0.749  0.5168 -1.0178 -0.2718
10489TIP3   OH252881   0.627   1.703   5.970  0.3090  0.3812  0.4271
10489TIP3    H152882   0.589   1.713   5.882  2.3308 -1.1273 -0.7027
10489TIP3    H252883   0.558   1.660   6.020 -0.4342  0.0856 -0.7937
10490TIP3   OH252884   6.294   0.628   1.138  0.0234  0.1755  0.1456
10490TIP3    H152885   6.332   0.627   1.226  0.7993 -0.4653 -0.1796
10490TIP3    H252886   6.308   0.717   1.106 -0.0270  0.3362  0.5778
10491TIP3   OH252887   1.690   5.186   3.988 -0.5729  0.0188  0.3239
10491TIP3    H152888   1.651   5.227   4.065 -2.5160 -0.4712 -0.3646
10491TIP3    H252889   1.644   5.103   3.978  1.0993 -0.9075 -0.1793
10492TIP3   OH252890   5.278   5.123  10.763 -0.0948  0.3333 -0.1021
10492TIP3    H152891   5.228   5.046  10.738 -1.3819  0.8948  0.6111
10492TIP3    H252892   5.214   5.195  10.760  0.5945  1.0374  1.0482
10493TIP3   OH252893   5.580   5.109   4.580  0.0861 -0.2078 -0.5708
10493TIP3    H152894   5.495   5.071   4.560  0.4360 -1.3813  0.0589
10493TIP3    H252895   5.589   5.098   4.675  0.9841 -0.2122 -0.6473
10494TIP3   OH252896   0.680   1.503  13.405  0.4160 -0.1256 -0.7366
10494TIP3    H152897   0.727   1.420  13.403  1.2860  0.2893  0.7846
10494TIP3    H252898   0.750   1.569  13.409 -0.2722  0.6262 -0.8715
10495TIP3   OH252899   1.113   0.978  11.807  0.0505 -0.0357 -0.0796
10495TIP3    H152900   1.106   1.064  11.848 -0.2817  0.3062 -0.8182
10495TIP3    H252901   1.197   0.943  11.837 -0.2732  0.1100  1.0303
10496TIP3   OH252902   2.472   0.838  16.743  0.0956 -0.3304 -0.6106
10496TIP3    H152903   2.398   0.894  16.768 -1.0804 -1.7673 -0.7832
10496TIP3    H252904   2.438   0.783  16.672  1.3497 -1.0038 -0.7169
10497TIP3   OH252905   2.541   2.150   3.629 -0.0466 -0.2931 -0.3397
10497TIP3    H152906   2.562   2.060   3.654 -0.6947 -0.5124 -0.5675
10497TIP3    H252907   2.457   2.168   3.673 -1.1514 -0.6426 -2.1989
10498TIP3   OH252908   5.620   4.631   3.270  0.4111  0.2010 -0.4897
10498TIP3    H152909   5.606   4.589   3.355 -1.4359  1.3463 -0.1562
10498TIP3    H252910   5.546   4.603   3.217 -0.0781  1.8008 -0.7201
10499TIP3   OH252911   1.835   1.573  14.594  0.3417  0.0769  0.3922
10499TIP3    H152912   1.775   1.521  14.646  0.7089  0.5624  1.3213
10499TIP3    H252913   1.779   1.639  14.551  0.4379  2.5433  3.6654
10500TIP3   OH252914   4.656   4.159   2.210 -0.7556  0.5286 -0.3176
10500TIP3    H152915   4.630   4.206   2.290 -1.2857 -0.7186  0.2734
10500TIP3    H252916   4.740   4.120   2.232 -1.0510 -0.0812 -0.2352
10501TIP3   OH252917   3.787   5.457  10.788  0.1378 -0.0117  0.1712
10501TIP3    H152918   3.820   5.547  10.781 -0.0718 -0.0715 -3.0649
10501TIP3    H252919   3.861   5.402  10.764  0.0244 -0.7146  1.3252
10502TIP3   OH252920   3.034   5.335   1.180  0.6792 -0.1532  0.0296
10502TIP3    H152921   2.958   5.293   1.140 -0.5486  1.4844  0.5284
10502TIP3    H252922   3.108   5.308   1.126 -0.5116 -0.3525 -1.5628
10503TIP3   OH252923   1.446   2.577  13.305 -0.0607 -0.2995  1.0110
10503TIP3    H152924   1.453   2.484  13.282  0.2671 -0.3490  1.2997
10503TIP3    H252925   1.502   2.587  13.382  0.3128  0.2427  0.6827
10504TIP3   OH252926   1.797   3.981  11.664 -0.2445 -0.7372  0.2053
10504TIP3    H152927   1.879   4.013  11.625 -0.6987  0.9781  0.5638
10504TIP3    H252928   1.777   3.901  11.616  0.8495 -0.3535 -0.9406
10505TIP3   OH252929   0.906   2.515   2.097 -0.1202  0.1489  0.2768
10505TIP3    H152930   0.928   2.590   2.152 -0.7797  1.3642 -1.0470
10505TIP3    H252931   0.891   2.444   2.159  0.3516  1.1437  1.5855
10506TIP3   OH252932   5.957   3.868   3.899  0.1199  0.5465 -0.2617
10506TIP3    H152933   6.043   3.829   3.917  0.2179  0.2444 -1.3113
10506TIP3    H252934   5.940   3.924   3.974  0.1208 -1.2611  1.1496
10507TIP3   OH252935   2.926   6.498  16.365  0.0913  0.0557  0.0725
10507TIP3    H152936   2.835   6.468  16.362  0.0363  0.1466  0.6492
10507TIP3    H252937   2.946   6.526  16.276  0.6876 -3.2730 -1.0009
10508TIP3   OH252938   3.614   2.012  11.607 -0.3366  0.3163  0.0216
10508TIP3    H152939   3.680   1.956  11.647 -0.3566 -0.1962 -0.6467
10508TIP3    H252940   3.544   1.952  11.581 -0.4600  0.6765 -0.4881
10509TIP3   OH252941   3.223   5.814  14.670  1.1741 -0.0715 -0.2379
10509TIP3    H152942   3.199   5.757  14.743  3.3747 -1.0449 -0.1689
10509TIP3    H252943   3.239   5.899  14.710  2.2485 -0.5650  0.4405
10510TIP3   OH252944   4.554   5.535   5.738  0.3103  0.0515 -0.0830
10510TIP3    H152945   4.568   5.629   5.730  0.0230  0.1313  0.3082
10510TIP3    H252946   4.538   5.521   5.831 -0.0147 -0.3331 -0.1910
10511TIP3   OH252947   1.887   0.790  11.649  0.1831 -0.4244  0.1190
10511TIP3    H152948   1.816   0.831  11.599  0.5601 -1.7319 -1.5921
10511TIP3    H252949   1.844   0.728  11.706 -0.3016  1.4631  1.9385
10512TIP3   OH252950   1.058   6.711  11.114 -0.1633  0.4172 -0.1089
10512TIP3    H152951   0.978   6.701  11.166 -0.1173  1.3215  0.1447
10512TIP3    H252952   1.089   6.799  11.134  1.0304 -0.0031 -0.0283
10513TIP3   OH252953   3.429   1.429   0.619  0.2914 -0.0606 -0.1466
10513TIP3    H152954   3.520   1.459   0.611  0.3393 -0.3868 -1.0580
10513TIP3    H252955   3.384   1.499   0.665  0.7156  0.7460 -0.9185
10514TIP3   OH252956   2.827   3.368   2.439  0.1082  0.1489 -0.3617
10514TIP3    H152957   2.893   3.424   2.480 -0.2644  0.3876 -0.0791
10514TIP3    H252958   2.746   3.419   2.445  0.2756  0.7713 -2.6119
10515TIP3   OH252959   4.854   2.276  13.610 -0.1128 -0.5162  0.8663
10515TIP3    H152960   4.921   2.229  13.660 -0.1568 -1.3905  0.1272
10515TIP3    H252961   4.888   2.277  13.520 -1.1756 -1.1367  0.4447
10516TIP3   OH252962   5.076   5.865  12.494 -0.3781 -0.1463  0.2787
10516TIP3    H152963   5.020   5.830  12.564  0.6085 -1.8548  0.2859
10516TIP3    H252964   5.142   5.797  12.481  1.2433  1.4547 -0.2680
10517TIP3   OH252965   0.465   5.887   4.092 -0.6448  0.4160  0.2954
10517TIP3    H152966   0.503   5.854   4.174  0.9163  2.3664  0.4395
10517TIP3    H252967   0.513   5.840   4.023 -2.3122 -1.6062  0.4234
10518TIP3   OH252968   3.222   0.752   4.550  0.0342 -0.0551  0.1698
10518TIP3    H152969   3.214   0.844   4.575  1.1593  0.2153 -0.3769
10518TIP3    H252970   3.183   0.748   4.463 -0.0715 -0.0969  0.2204
10519TIP3   OH252971   2.690   1.331   1.176 -0.0509  0.4140 -0.3537
10519TIP3    H152972   2.724   1.419   1.192  3.0198 -0.9728  1.7247
10519TIP3    H252973   2.765   1.283   1.140 -0.6952 -2.0658  1.4060
10520TIP3   OH252974   3.285   5.395   0.012  0.1791 -0.5347 -0.0516
10520TIP3    H152975   3.225   5.469  -0.003  1.4766  0.5717 -0.0083
10520TIP3    H252976   3.344   5.426   0.081  1.4508 -1.1875 -0.8172
10521TIP3   OH252977   1.354   4.911  11.782 -0.1025  0.4011  0.3481
10521TIP3    H152978   1.418   4.876  11.721 -0.6110  1.8352 -1.0879
10521TIP3    H252979   1.277   4.855  11.771 -0.4215  1.0346 -0.8730
10522TIP3   OH252980   5.076   0.210   3.359 -0.6529 -0.0896 -0.1679
10522TIP3    H152981   5.016   0.279   3.387 -0.4914 -0.4557  1.1370
10522TIP3    H252982   5.154   0.257   3.330 -0.0701  0.2823  1.8383
10523TIP3   OH252983   1.672   1.953  14.849 -0.3311  0.2274 -0.1888
10523TIP3    H152984   1.646   1.983  14.936 -2.4982  1.2423 -1.0872
10523TIP3    H252985   1.620   2.008  14.789 -0.4770 -1.8113 -2.0573
10524TIP3   OH252986   2.387   0.516   5.273  0.5244 -0.6584  0.2671
10524TIP3    H152987   2.462   0.513   5.332  0.3225 -0.9158  0.5132
10524TIP3    H252988   2.318   0.560   5.323  1.6345  3.2318 -1.2542
10525TIP3   OH252989   1.695   2.056  13.217 -0.4491 -0.3754 -0.3993
10525TIP3    H152990   1.605   2.030  13.234 -0.6833  1.3405  1.3982
10525TIP3    H252991   1.747   1.979  13.242 -1.3067 -0.5850  0.8669
10526TIP3   OH252992   5.035   0.486  14.521  0.6186 -0.7392  0.6172
10526TIP3    H152993   5.016   0.451  14.434  0.1941  0.0275  0.3960
10526TIP3    H252994   5.129   0.474  14.532  0.2750 -3.6172  1.2840
10527TIP3   OH252995   1.509   4.478   0.959  0.1578  0.6514  0.4733
10527TIP3    H152996   1.463   4.461   1.041  0.7893  0.4761  0.7974
10527TIP3    H252997   1.538   4.392   0.930  0.1460  0.7420  0.1890
10528TIP3   OH252998   2.175   3.229   1.312  0.9719  0.0131 -0.7501
10528TIP3    H152999   2.139   3.165   1.373  0.2194  1.1482  0.0421
10528TIP3    H253000   2.140   3.204   1.227 -0.6365  0.2933 -0.2031
10529TIP3   OH253001   2.864   1.713  13.772 -0.0535 -0.1461  0.2134
10529TIP3    H153002   2.858   1.796  13.724 -1.4875 -0.8081 -0.8252
10529TIP3    H253003   2.839   1.735  13.861 -2.5317  0.2120 -0.5007
10530TIP3   OH253004   0.124   4.606  15.562  0.4455 -1.0396  0.5020
10530TIP3    H153005   0.129   4.560  15.646 -1.6909 -0.9240  0.7615
10530TIP3    H253006   0.076   4.545  15.505  1.0257 -0.7135 -0.3394
10531TIP3   OH253007   5.770   3.789  12.716 -0.4529 -0.6651  0.4034
10531TIP3    H153008   5.809   3.872  12.741  2.5052 -2.0368  0.6844
10531TIP3    H253009   5.772   3.789  12.621 -0.5460 -0.3853  0.4003
10532TIP3   OH253010   3.978   3.803  11.351  0.1916  0.2521 -0.3145
10532TIP3    H153011   3.895   3.821  11.307 -0.1866 -0.1956  0.1978
10532TIP3    H253012   3.981   3.708  11.357  0.6571  0.2773 -0.1621
10533TIP3   OH253013   3.405   5.954  16.213 -0.3541 -0.2318  0.1871
10533TIP3    H153014   3.327   5.905  16.238  0.4001 -1.7022 -0.2378
10533TIP3    H253015   3.395   6.039  16.255 -1.2722 -1.0550  1.6892
10534TIP3   OH253016   0.437   1.546   6.093  0.3355  0.1394  0.2041
10534TIP3    H153017   0.417   1.526   6.185  0.2103 -2.2553 -0.2870
10534TIP3    H253018   0.352   1.563   6.053  0.3126  0.4186  0.3710
10535TIP3   OH253019   2.560   0.656  13.212  0.0299 -0.0233 -0.2580
10535TIP3    H153020   2.604   0.726  13.261  0.9444 -0.1546 -0.8721
10535TIP3    H253021   2.560   0.686  13.121 -0.6320 -0.2957 -0.3518
10536TIP3   OH253022   5.536   0.947  16.650 -0.3223 -0.2775 -1.0541
10536TIP3    H153023   5.543   1.014  16.581 -1.0877  1.2436  0.2796
10536TIP3    H253024   5.444   0.951  16.677 -0.8886 -3.1788 -2.1430
10537TIP3   OH253025   1.971   4.077   4.247  0.0928 -0.3026  0.1449
10537TIP3    H153026   1.984   3.983   4.260 -0.3745 -0.3000  0.6650
10537TIP3    H253027   2.059   4.114   4.255  0.7366 -0.9661 -2.7362
10538TIP3   OH253028   5.724   1.535   4.003 -0.0523  0.0614 -0.0035
10538TIP3    H153029   5.754   1.625   3.999  1.1927 -0.3471 -0.3533
10538TIP3    H253030   5.635   1.540   4.038 -0.1681  1.4468 -0.4693
10539TIP3   OH253031   5.124   5.311  12.513  0.4497 -0.3322 -0.1379
10539TIP3    H153032   5.045   5.259  12.508 -0.5609  1.0020  1.0139
10539TIP3    H253033   5.093   5.402  12.510  2.0514  0.2333 -0.9879
10540TIP3   OH253034   4.382   0.590  13.862 -0.2969 -0.5213 -0.1365
10540TIP3    H153035   4.401   0.663  13.921 -1.4037 -1.5361  1.5772
10540TIP3    H253036   4.468   0.558  13.835  0.2104  1.5103 -1.0928
10541TIP3   OH253037   3.843   3.532   4.304  0.1070 -0.5029 -0.0909
10541TIP3    H153038   3.876   3.466   4.366  0.3992 -0.5593 -0.3065
10541TIP3    H253039   3.748   3.521   4.307 -0.0143  0.6165  1.6053
10542TIP3   OH253040   4.363   4.842   0.458 -0.2331  0.0808  0.6731
10542TIP3    H153041   4.406   4.927   0.456 -1.0073  0.4985 -2.0281
10542TIP3    H253042   4.398   4.796   0.382 -0.9052 -1.4625  1.2596
10543TIP3   OH253043   2.762   5.348  11.668  0.3430  0.2074  0.2470
10543TIP3    H153044   2.824   5.366  11.597  0.5826 -0.6838  0.2145
10543TIP3    H253045   2.790   5.263  11.702 -1.7844 -0.9728 -0.7709
10544TIP3   OH253046   6.694   1.705   6.475  0.1583 -0.0746 -0.1291
10544TIP3    H153047   6.623   1.738   6.420  2.5710  0.3248 -3.3126
10544TIP3    H253048   6.763   1.772   6.467  1.5562 -1.2409  1.4167
10545TIP3   OH253049   2.050   1.864  15.355  0.0648  0.0547 -0.1001
10545TIP3    H153050   2.002   1.790  15.318  0.6387 -0.3459 -0.0637
10545TIP3    H253051   1.998   1.892  15.430  0.7227 -1.4536  0.9577
10546TIP3   OH253052   5.450   0.766   3.497 -0.3259 -0.1155 -0.3572
10546TIP3    H153053   5.485   0.687   3.539  0.1137  0.9096  1.2954
10546TIP3    H253054   5.380   0.795   3.556  0.0263  1.1529 -0.5350
10547TIP3   OH253055   4.732   2.994  13.275  0.1664 -0.1136 -0.7657
10547TIP3    H153056   4.772   2.907  13.268  0.0106 -0.2526 -0.0290
10547TIP3    H253057   4.762   3.028  13.359  0.5863  0.7446 -1.2494
10548TIP3   OH253058   4.188   2.740  11.807 -0.1089 -0.1705  0.2969
10548TIP3    H153059   4.163   2.702  11.722 -3.0794 -0.1208  1.0556
10548TIP3    H253060   4.123   2.707  11.868  1.3378  0.6584  2.3863
10549TIP3   OH253061   1.481   0.469   1.297  0.3454 -0.7689  0.1960
10549TIP3    H153062   1.424   0.443   1.369  2.4023 -1.9097  1.5093
10549TIP3    H253063   1.520   0.551   1.325 -0.3227 -0.1852 -0.5340
10550TIP3   OH253064   0.761   0.358   3.943  0.4110  0.4502 -0.1521
10550TIP3    H153065   0.788   0.443   3.909  0.9930  0.0281 -0.7900
10550TIP3    H253066   0.754   0.302   3.865 -1.3330  0.2553  0.0983
10551TIP3   OH253067   2.772   5.336  11.051 -0.2437  0.2092 -0.4139
10551TIP3    H153068   2.727   5.417  11.029 -1.5821 -0.5364 -0.5077
10551TIP3    H253069   2.702   5.275  11.077  0.8374 -0.4475  1.1701
10552TIP3   OH253070   1.771   0.943  15.557 -0.0172  0.2620  0.0766
10552TIP3    H153071   1.722   1.024  15.569 -0.2425  0.4245 -1.6217
10552TIP3    H253072   1.834   0.963  15.488  1.2761 -0.4562  1.0186
10553TIP3   OH253073   2.614   4.077  11.280 -0.1445  0.5869 -0.4062
10553TIP3    H153074   2.582   4.166  11.295 -1.0725  0.4020 -1.1657
10553TIP3    H253075   2.661   4.082  11.196  1.5115  0.7634  0.4912
10554TIP3   OH253076   3.185   0.758   1.541 -0.1324 -0.2417  0.2436
10554TIP3    H153077   3.227   0.679   1.507 -1.0656 -0.6669  0.0291
10554TIP3    H253078   3.168   0.739   1.633 -2.2558 -1.1728 -0.2790
10555TIP3   OH253079   5.486   2.093  16.367  0.1009 -0.3030  0.2052
10555TIP3    H153080   5.404   2.042  16.364 -0.8027  0.9427  2.1795
10555TIP3    H253081   5.462   2.179  16.333  0.4209  0.2709  1.3961
10556TIP3   OH253082   4.130   2.746   6.013  0.2551 -0.1581 -0.3149
10556TIP3    H153083   4.178   2.822   6.048 -1.9343  0.5457  1.3990
10556TIP3    H253084   4.186   2.671   6.034  1.0877  0.7053  0.7145
10557TIP3   OH253085   5.876   5.157   2.072 -0.2544 -0.3077  0.2323
10557TIP3    H153086   5.919   5.080   2.107  2.5994  1.2553  0.4917
10557TIP3    H253087   5.947   5.211   2.038 -2.0171  2.5111  0.6529
10558TIP3   OH253088   5.426   1.329  12.738 -0.0783 -0.2442  0.1103
10558TIP3    H153089   5.376   1.376  12.671  0.6662 -0.9247 -0.9373
10558TIP3    H253090   5.449   1.246  12.698 -0.5010 -1.1150  1.5839
10559TIP3   OH253091   3.725   5.054   0.448 -0.0094 -0.4195  0.5782
10559TIP3    H153092   3.724   5.080   0.540  1.2535 -2.5030  1.2504
10559TIP3    H253093   3.669   4.976   0.445  0.8037 -0.9965 -0.1811
10560TIP3   OH253094   4.164   1.130  13.445  0.1034 -0.1442 -0.1868
10560TIP3    H153095   4.151   1.211  13.494  0.2246 -0.9289  1.1956
10560TIP3    H253096   4.161   1.157  13.354 -1.0149  1.2473  0.2169
10561TIP3   OH253097   2.038   1.286  11.382  0.2333  0.0041 -0.7362
10561TIP3    H153098   2.030   1.358  11.320 -0.9790  1.5847  1.1610
10561TIP3    H253099   2.122   1.302  11.426 -0.0996  0.3681 -0.2197
10562TIP3   OH253100   4.392   4.840  15.063  0.0699 -0.7102 -0.3145
10562TIP3    H153101   4.488   4.834  15.061  0.3152  2.0080 -0.1981
10562TIP3    H253102   4.367   4.854  14.971 -0.1324 -0.5370 -0.2325
10563TIP3   OH253103   2.890   5.976   5.503 -0.0958  0.0748 -0.1744
10563TIP3    H153104   2.981   5.981   5.475  0.0647 -2.0878 -0.2059
10563TIP3    H253105   2.889   6.019   5.589  0.4054  2.2817 -1.1992
10564TIP3   OH253106   2.610   2.103   0.250  0.8986 -0.0948  0.3192
10564TIP3    H153107   2.594   2.190   0.214  1.7862  0.9293  2.2550
10564TIP3    H253108   2.679   2.067   0.194  0.8490  0.6298 -0.2258
10565TIP3   OH253109   4.087   2.201   2.140  0.2331  0.2428 -0.1621
10565TIP3    H153110   4.073   2.294   2.157 -0.4957  0.0633  0.2842
10565TIP3    H253111   4.181   2.192   2.129  0.1734  1.3731 -2.2244
10566TIP3   OH253112   2.984   3.514   6.767  0.4722  0.4065  0.2361
10566TIP3    H153113   2.892   3.493   6.755  0.1831  1.1040  1.1019
10566TIP3    H253114   3.008   3.563   6.688 -0.0326  0.6256  0.2148
10567TIP3   OH253115   5.806   4.932   6.199 -0.1460 -0.2284  0.0947
10567TIP3    H153116   5.849   4.857   6.158  0.2378 -0.2074  0.4510
10567TIP3    H253117   5.871   5.002   6.195  0.2655 -0.4867  1.5679
10568TIP3   OH253118   5.121   3.124   0.047  0.2096 -0.1818  0.0547
10568TIP3    H153119   5.126   3.206   0.095  0.7608 -0.7261  0.9412
10568TIP3    H253120   5.126   3.056   0.114 -1.4713 -0.9528 -0.5400
10569TIP3   OH253121   2.754   4.338  16.533  0.1261 -0.2694 -0.5956
10569TIP3    H153122   2.678   4.301  16.489 -0.7526  1.7482 -0.9049
10569TIP3    H253123   2.829   4.297  16.490 -0.7441 -0.1644 -2.3169
10570TIP3   OH253124   5.593   6.628  14.068 -0.0661 -0.1465 -0.3420
10570TIP3    H153125   5.593   6.574  13.989 -3.0427 -0.0933 -0.4913
10570TIP3    H253126   5.621   6.570  14.138  0.8800 -0.6733 -1.1297
10571TIP3   OH253127   1.280   3.807   0.546  0.1243  0.1473  0.2997
10571TIP3    H153128   1.196   3.809   0.500  0.4493  0.6572 -0.2884
10571TIP3    H253129   1.335   3.869   0.499  1.4618 -1.5639 -0.5487
10572TIP3   OH253130   6.400   3.847   5.553 -0.3869 -0.0290  0.1273
10572TIP3    H153131   6.386   3.766   5.603  0.4408  0.1790  0.7228
10572TIP3    H253132   6.487   3.876   5.580  0.0006  0.1961 -1.2948
10573TIP3   OH253133   1.172   5.945  17.354 -0.7230  0.3284  0.4278
10573TIP3    H153134   1.256   5.924  17.395 -0.1626  0.1675 -0.7504
10573TIP3    H253135   1.138   5.861  17.323 -0.7307  0.5383 -0.1519
10574TIP3   OH253136   3.758   6.711  13.008 -0.1370  0.2745  0.2031
10574TIP3    H153137   3.748   6.690  13.101 -0.8842  0.1622  0.1069
10574TIP3    H253138   3.824   6.649  12.976 -2.5652 -2.3371 -0.1549
10575TIP3   OH253139   1.051   0.823  16.441  0.0734 -0.0377 -0.2000
10575TIP3    H153140   1.090   0.737  16.426  3.3446  1.5188 -1.5183
10575TIP3    H253141   1.122   0.885  16.426 -1.9165  2.9214  1.4901
10576TIP3   OH253142   4.976   5.420  16.486  0.6550  0.3810  0.7108
10576TIP3    H153143   4.893   5.433  16.531  1.5347 -1.9374  3.2725
10576TIP3    H253144   5.011   5.509  16.475 -2.8827  1.6365 -2.3048
10577TIP3   OH253145   1.453   0.782  16.474  0.3081  0.0241  0.5741
10577TIP3    H153146   1.394   0.827  16.414 -0.3829 -1.9860 -0.3131
10577TIP3    H253147   1.522   0.847  16.491  0.6109  0.6675 -2.4743
10578TIP3   OH253148   1.379   1.854   1.110 -0.2763 -0.1949  0.0367
10578TIP3    H153149   1.426   1.790   1.056 -0.0414  0.1521 -0.1776
10578TIP3    H253150   1.447   1.893   1.165  0.0013  1.4292 -1.3643
10579TIP3   OH253151   2.146   0.447   0.141 -0.6254  0.0816 -0.5374
10579TIP3    H153152   2.067   0.479   0.099 -1.3104  0.9628  1.2803
10579TIP3    H253153   2.121   0.363   0.179 -1.3633  1.2253  1.6961
10580TIP3   OH253154   5.188   1.192  11.466  0.4250  0.5333  0.5377
10580TIP3    H153155   5.174   1.248  11.542  0.3031  1.5691 -0.2286
10580TIP3    H253156   5.183   1.251  11.391  0.9625 -0.3967 -0.2568
10581TIP3   OH253157   5.273   5.799  17.104 -0.2318  0.2939  0.5204
10581TIP3    H153158   5.306   5.885  17.130  0.7710 -0.3087  1.3193
10581TIP3    H253159   5.180   5.801  17.125 -0.1905  1.1261  0.6583
10582TIP3   OH253160   1.475   2.751  14.876 -0.2460  0.3340  0.0100
10582TIP3    H153161   1.413   2.685  14.845 -0.0490 -0.9561  2.1932
10582TIP3    H253162   1.421   2.817  14.918 -0.3208  0.7546 -0.7259
10583TIP3   OH253163   0.280   4.839   0.312  0.3161  0.0963 -0.5685
10583TIP3    H153164   0.356   4.792   0.278  0.3927 -0.4191  0.2950
10583TIP3    H253165   0.205   4.785   0.287  0.3940 -0.4345  0.3046
10584TIP3   OH253166   2.072   6.295   0.812  0.0516  0.0105 -0.3934
10584TIP3    H153167   2.160   6.331   0.818  0.4670 -0.6299 -2.1914
10584TIP3    H253168   2.016   6.371   0.793  0.2825  0.3246  0.1571
10585TIP3   OH253169   6.009   3.008  13.194 -0.1165 -0.5483 -0.1154
10585TIP3    H153170   6.024   3.095  13.231 -2.9402 -0.1169  0.2341
10585TIP3    H253171   6.044   3.015  13.105  0.3516  0.7116  0.1356
10586TIP3   OH253172   5.157   1.700   1.515  0.4512 -0.0430  1.2662
10586TIP3    H153173   5.105   1.626   1.547 -0.5864  0.3786  0.5837
10586TIP3    H253174   5.188   1.673   1.428  2.4073 -0.7672  2.1158
10587TIP3   OH253175   5.533   6.462  15.209  0.3180 -0.0989  0.6211
10587TIP3    H153176   5.543   6.415  15.127 -0.5952 -0.0287  0.4592
10587TIP3    H253177   5.502   6.549  15.184  0.8206  0.2033  0.9963
10588TIP3   OH253178   1.527   6.410   0.615  0.1930 -0.0226 -0.1178
10588TIP3    H153179   1.490   6.441   0.533 -1.6559  0.8343  0.9822
10588TIP3    H253180   1.529   6.487   0.672 -0.2313 -0.9597  1.2156
10589TIP3   OH253181   4.776   2.856   3.995  0.6076  0.0967  0.8015
10589TIP3    H153182   4.796   2.789   3.929  1.1592 -1.4853  2.4710
10589TIP3    H253183   4.713   2.914   3.952  0.6674 -1.0678 -0.9822
10590TIP3   OH253184   1.389   3.630  14.074  1.0186 -0.2039 -0.2936
10590TIP3    H153185   1.444   3.699  14.111 -0.1412  0.8204 -0.3953
10590TIP3    H253186   1.308   3.675  14.049  0.6070 -1.4338 -1.2711
10591TIP3   OH253187   5.082   5.340   4.107  0.0467 -0.4156 -0.1516
10591TIP3    H153188   5.039   5.425   4.115  1.2962  0.1399  1.1783
10591TIP3    H253189   5.039   5.297   4.034 -2.3117  0.3547  0.7083
10592TIP3   OH253190   5.984   1.525  13.801  0.3548  0.4141 -0.5261
10592TIP3    H153191   6.058   1.463  13.799 -0.2125 -0.3880  1.1302
10592TIP3    H253192   5.996   1.573  13.883 -3.6965 -3.4498  2.8395
10593TIP3   OH253193   4.619   0.736   5.044  0.1598  0.0961 -0.2425
10593TIP3    H153194   4.696   0.684   5.022  1.1260  1.5001 -0.3024
10593TIP3    H253195   4.548   0.696   4.994  0.6690 -1.6406  0.3313
10594TIP3   OH253196   4.531   0.131   4.671 -0.1469  0.0738  0.6375
10594TIP3    H153197   4.614   0.140   4.716 -0.1197 -1.2992  0.9147
10594TIP3    H253198   4.554   0.127   4.578  0.3892 -2.6151  0.8028
10595TIP3   OH253199   6.239   5.039  12.706 -0.5393  0.0595  0.5600
10595TIP3    H153200   6.292   4.974  12.658 -0.0015  0.2406  0.9029
10595TIP3    H253201   6.298   5.073  12.773  0.3524  3.3740 -1.6874
10596TIP3   OH253202   3.191   6.511   3.645  0.3697 -0.5483  0.2902
10596TIP3    H153203   3.232   6.538   3.727 -0.6900  0.7593  0.4236
10596TIP3    H253204   3.107   6.474   3.672  0.9324 -2.1978 -0.0663
10597TIP3   OH253205   6.074   3.903   0.059  0.0490 -0.0760  0.2027
10597TIP3    H153206   6.170   3.902   0.059  0.1570  2.2805  1.0504
10597TIP3    H253207   6.051   3.951   0.139 -1.8979 -1.5980  0.6271
10598TIP3   OH253208   6.186   6.280  12.966 -0.1567 -0.2253  0.7079
10598TIP3    H153209   6.129   6.240  13.031 -1.9743  0.2763 -0.5191
10598TIP3    H253210   6.150   6.367  12.952 -1.3418 -1.1062 -2.6446
10599TIP3   OH253211   6.231   6.181   4.163  0.3578  0.4673  0.5671
10599TIP3    H153212   6.257   6.089   4.171  2.4153  1.0137  0.6593
10599TIP3    H253213   6.262   6.207   4.076  1.7059  1.6203  1.3569
10600TIP3   OH253214   4.494   2.492  12.548  0.3035  0.5921  0.1972
10600TIP3    H153215   4.405   2.481  12.582 -0.0746  3.7702  0.4981
10600TIP3    H253216   4.485   2.476  12.454 -0.3831  0.0527  0.3379
10601TIP3   OH253217   0.067   0.363  15.063  0.1738 -0.7907 -0.3836
10601TIP3    H153218   0.124   0.385  15.137  0.2567  0.8695 -0.9114
10601TIP3    H253219   0.072   0.439  15.005 -3.3588 -0.0854  0.0238
10602TIP3   OH253220   1.072   1.683  13.914 -0.1486 -0.2162 -0.5036
10602TIP3    H153221   1.077   1.745  13.987  2.2498  0.2722 -0.9995
10602TIP3    H253222   1.047   1.601  13.955  1.8277 -0.1249  1.0648
10603TIP3   OH253223   2.339   4.883  14.941 -0.2251  0.0244  0.3970
10603TIP3    H153224   2.334   4.910  14.850 -0.5921  1.9963  0.9600
10603TIP3    H253225   2.258   4.915  14.981 -0.3832 -1.3737  1.2964
10604TIP3   OH253226   2.349   4.707  11.814 -0.1325  0.3098  0.0398
10604TIP3    H153227   2.302   4.736  11.892 -0.3995  1.1864 -0.4211
10604TIP3    H253228   2.373   4.789  11.770 -0.9049 -0.1631 -1.3260
10605TIP3   OH253229   5.149   4.717  17.088 -0.2025  0.2361  0.5013
10605TIP3    H153230   5.199   4.640  17.114  0.3114  0.0527 -0.9069
10605TIP3    H253231   5.198   4.791  17.124 -0.4148 -0.0643  1.4232
10606TIP3   OH253232   4.736   1.636   0.801 -0.0590 -0.3537  0.7695
10606TIP3    H153233   4.675   1.668   0.866  0.5761  1.7117  0.4395
10606TIP3    H253234   4.681   1.596   0.733 -0.9428  0.2915  1.0931
10607TIP3   OH253235   3.129   3.779   6.152 -0.4351 -0.0132  0.0339
10607TIP3    H153236   3.193   3.847   6.171 -1.3122  0.6375  0.6938
10607TIP3    H253237   3.045   3.824   6.150 -1.1772 -1.2178  1.5837
10608TIP3   OH253238   6.462   6.595  15.860 -0.0749 -0.2153 -0.0879
10608TIP3    H153239   6.490   6.614  15.770 -2.3797 -0.9806 -1.0398
10608TIP3    H253240   6.376   6.637  15.868 -0.7955 -1.8133  1.0761
10609TIP3   OH253241   3.710   1.242  16.057 -0.7446 -0.2052  0.3826
10609TIP3    H153242   3.659   1.318  16.085 -0.0058  0.0995  0.9341
10609TIP3    H253243   3.709   1.183  16.132  1.1656  0.5727  1.0891
10610TIP3   OH253244   1.252   3.935  13.961 -0.4569  0.6132 -0.0929
10610TIP3    H153245   1.287   3.945  13.872 -0.8220  0.3943 -0.2659
10610TIP3    H253246   1.291   4.007  14.010 -0.0057  0.5542 -0.3542
10611TIP3   OH253247   4.177   3.014  14.900  0.2872  0.3986 -0.5690
10611TIP3    H153248   4.223   2.950  14.955 -1.1261  0.5855  0.9356
10611TIP3    H253249   4.146   2.963  14.825  1.3753 -0.1074 -0.6910
10612TIP3   OH253250   5.285   4.793  13.271  0.1029 -0.0571 -0.2821
10612TIP3    H153251   5.378   4.776  13.280 -0.1294 -0.5239  1.4789
10612TIP3    H253252   5.242   4.716  13.308 -0.9676  1.3188  1.4797
10613TIP3   OH253253   0.483   6.035   3.803  0.6494 -0.7544  0.8604
10613TIP3    H153254   0.514   6.126   3.807 -1.1111 -0.0815  0.3587
10613TIP3    H253255   0.456   6.015   3.893 -1.6791  0.2992  0.4680
10614TIP3   OH253256   4.344   1.306  13.094 -0.7013  0.2015  0.0989
10614TIP3    H153257   4.366   1.237  13.032  2.1730  0.0097  1.1710
10614TIP3    H253258   4.252   1.328  13.075 -0.6599 -1.4964 -2.5224
10615TIP3   OH253259   3.023   3.048  14.974  0.4688  0.4583  0.0816
10615TIP3    H153260   2.959   3.048  15.045 -0.4438 -0.9479 -0.7044
10615TIP3    H253261   2.973   3.077  14.897  0.4727 -1.5772 -0.7495
10616TIP3   OH253262   0.521   2.000  15.418  0.2782  0.8987 -0.2455
10616TIP3    H153263   0.451   1.936  15.407  1.7850 -0.9564  0.4735
10616TIP3    H253264   0.487   2.063  15.482 -0.6879  0.0028  0.1427
10617TIP3   OH253265   5.119   1.442   0.541 -0.2420 -0.7199 -0.3794
10617TIP3    H153266   5.165   1.372   0.588  0.3333 -0.1600 -0.0938
10617TIP3    H253267   5.182   1.513   0.537 -0.4624 -0.5819 -1.5884
10618TIP3   OH253268   2.788   5.907  15.897  0.0340 -0.7771 -0.5597
10618TIP3    H153269   2.731   5.892  15.972 -0.8516 -1.2605 -1.3052
10618TIP3    H253270   2.775   5.999  15.875 -0.3420 -0.8421 -0.6229
10619TIP3   OH253271   4.459   1.494   3.125  0.7255 -0.2320 -0.1239
10619TIP3    H153272   4.511   1.572   3.103  1.4654 -0.0292  2.0832
10619TIP3    H253273   4.370   1.527   3.138  0.7307 -0.0124 -0.6136
10620TIP3   OH253274   2.716   1.102  11.219 -0.4031  0.2990 -0.1124
10620TIP3    H153275   2.702   1.101  11.313 -0.9610  1.7600 -0.1524
10620TIP3    H253276   2.676   1.021  11.187 -0.2080 -0.1998  0.8988
10621TIP3   OH253277   0.447   2.146   0.961  0.0233 -0.2821  0.1194
10621TIP3    H153278   0.455   2.241   0.967  1.2259 -0.4114  0.9448
10621TIP3    H253279   0.476   2.114   1.047  0.8303 -1.4538 -0.5631
10622TIP3   OH253280   5.653   4.384  12.828 -0.1710 -0.2353 -0.2593
10622TIP3    H153281   5.673   4.477  12.839  0.3088 -0.5194  1.5395
10622TIP3    H253282   5.719   4.352  12.767 -0.6331  0.6754 -1.2862
10623TIP3   OH253283   5.014   5.847  17.175  0.6516  0.2445  0.1940
10623TIP3    H153284   4.956   5.795  17.120  0.8572 -0.2451  0.4337
10623TIP3    H253285   4.979   5.838  17.264  0.7427  0.4421  0.2530
10624TIP3   OH253286   2.966   0.018   2.486  0.4008  0.5730  0.9695
10624TIP3    H153287   2.891   0.020   2.426  1.4622 -0.8536 -0.4753
10624TIP3    H253288   2.977   0.109   2.513 -1.3830  0.9269  0.6345
10625TIP3   OH253289   4.033   0.052   1.150  0.1853 -0.0344 -0.3083
10625TIP3    H153290   3.954   0.002   1.170 -1.2260  1.6069 -1.5229
10625TIP3    H253291   4.046   0.108   1.226  0.7971 -0.9940  0.3215
10626TIP3   OH253292   1.688   3.620   5.033 -0.3191 -0.0910  0.1120
10626TIP3    H153293   1.777   3.585   5.036 -0.4742 -0.4502  0.7972
10626TIP3    H253294   1.634   3.549   5.069 -1.0284 -0.3199 -1.3325
10627TIP3   OH253295   4.913   1.763  15.567 -0.0687 -0.2796  0.0801
10627TIP3    H153296   4.932   1.854  15.543 -1.0254 -0.3584 -1.0417
10627TIP3    H253297   4.907   1.765  15.663  1.0604  0.6021  0.1560
10628TIP3   OH253298   1.729   6.464  14.132  0.3077 -0.4738  0.4505
10628TIP3    H153299   1.692   6.435  14.215  1.0747 -2.0842  0.2572
10628TIP3    H253300   1.796   6.399  14.111  0.4493  0.1596 -1.2036
10629TIP3   OH253301   3.975   4.113  12.556  0.2068  0.3917  0.7884
10629TIP3    H153302   3.996   4.049  12.624  1.3804 -1.1954 -0.9629
10629TIP3    H253303   3.948   4.191  12.604  0.2700 -0.8917  3.0436
10630TIP3   OH253304   6.510   3.311   4.185  0.2756 -0.0815 -0.1560
10630TIP3    H153305   6.415   3.325   4.181  0.1816 -0.9295 -1.2405
10630TIP3    H253306   6.533   3.333   4.276 -0.7822  1.1117 -0.1538
10631TIP3   OH253307   5.892   3.084  16.461 -0.0552 -0.6467  0.5398
10631TIP3    H153308   5.907   3.024  16.388  0.7509 -2.1652  1.8929
10631TIP3    H253309   5.923   3.037  16.538 -0.0015  1.2624  1.7690
10632TIP3   OH253310   2.406   5.234  16.800 -0.1513 -0.1280  0.1763
10632TIP3    H153311   2.386   5.153  16.755  1.6259 -0.9854  0.8093
10632TIP3    H253312   2.432   5.295  16.731 -2.7355  0.3737 -0.4296
10633TIP3   OH253313   2.427   5.446  10.653 -0.0227  0.3262  0.3557
10633TIP3    H153314   2.516   5.465  10.623 -0.9525  2.6275 -1.2309
10633TIP3    H253315   2.408   5.517  10.715 -0.6437 -0.3485  0.9538
10634TIP3   OH253316   6.211   4.748  12.814 -0.3403  0.5567 -0.1198
10634TIP3    H153317   6.290   4.738  12.760 -0.5978 -0.4144 -0.3357
10634TIP3    H253318   6.243   4.785  12.896  0.3164  0.3598 -0.2812
10635TIP3   OH253319   3.749   5.103   6.173  0.1772 -0.6083  0.2378
10635TIP3    H153320   3.683   5.109   6.243  0.1173 -1.8889  0.3100
10635TIP3    H253321   3.829   5.138   6.212  0.0589 -0.9988  0.8365
10636TIP3   OH253322   5.915   1.869   1.241 -0.1592 -0.3059 -0.1481
10636TIP3    H153323   5.941   1.781   1.268 -0.0832  0.0450  0.9674
10636TIP3    H253324   5.824   1.877   1.271  0.3944  0.6191  1.3538
10637TIP3   OH253325   3.368   5.146   2.137 -0.2086  0.0779  0.5111
10637TIP3    H153326   3.314   5.067   2.132 -0.9669  0.6215 -0.0708
10637TIP3    H253327   3.352   5.180   2.225  0.2467 -0.4922  0.8231
10638TIP3   OH253328   4.269   6.380  15.545 -0.1758 -0.1372  0.4495
10638TIP3    H153329   4.175   6.372  15.565 -0.0244 -0.6461  0.9631
10638TIP3    H253330   4.310   6.310  15.595  0.2805 -1.0907 -1.1990
10639TIP3   OH253331   6.585   4.500  11.449  0.1857  0.3380  0.5515
10639TIP3    H153332   6.605   4.573  11.507  1.2936  0.1338  0.4437
10639TIP3    H253333   6.510   4.530  11.398 -0.3752  0.7790  1.6048
10640TIP3   OH253334   4.095   0.788  14.957  0.6537  0.3026  0.5301
10640TIP3    H153335   4.077   0.823  14.869 -0.5904  0.0885  0.6765
10640TIP3    H253336   4.182   0.749  14.949  0.7184  0.6046 -0.5093
10641TIP3   OH253337   1.620   2.244  12.004 -0.2600  0.1099  0.1538
10641TIP3    H153338   1.689   2.305  12.031  0.3632 -0.7585  0.5848
10641TIP3    H253339   1.634   2.233  11.910  0.7349 -0.7071  0.3838
10642TIP3   OH253340   5.035   2.196  15.894 -0.0360  0.2745 -0.2367
10642TIP3    H153341   5.072   2.277  15.860  2.0481 -0.3334  0.4142
10642TIP3    H253342   5.030   2.210  15.989  0.9981 -0.5609 -0.0384
10643TIP3   OH253343   1.777   1.068   4.412 -0.0956  0.2387 -0.3013
10643TIP3    H153344   1.709   1.047   4.476  0.8424 -0.7417  0.4146
10643TIP3    H253345   1.780   1.164   4.411 -0.5895  0.2797  0.6287
10644TIP3   OH253346   0.478   6.123   0.165 -0.3621 -0.0605 -0.3556
10644TIP3    H153347   0.486   6.217   0.152 -4.4359  0.5648  0.5308
10644TIP3    H253348   0.563   6.097   0.200  2.1448  2.5508 -3.7673
10645TIP3   OH253349   0.549   0.974   2.002  0.0378 -0.1970 -0.7517
10645TIP3    H153350   0.595   1.055   2.022 -0.7163  0.1785 -0.5039
10645TIP3    H253351   0.456   0.996   2.011 -0.2082 -0.8649 -1.5105
10646TIP3   OH253352   1.942   0.941   4.817  0.3563  0.1030 -0.0381
10646TIP3    H153353   1.887   1.019   4.815  0.0372 -0.1042  0.4029
10646TIP3    H253354   1.915   0.892   4.739 -1.4679 -0.9021  1.1512
10647TIP3   OH253355   1.368   0.123  16.595  0.4461 -0.2854 -0.1722
10647TIP3    H153356   1.353   0.106  16.502  1.2060 -0.9048 -0.1935
10647TIP3    H253357   1.459   0.151  16.600  0.1759  0.5618  0.2943
10648TIP3   OH253358   3.606   5.055   1.896  0.2287 -0.2502  0.5856
10648TIP3    H153359   3.620   5.080   1.987 -2.7064  0.6767  0.9025
10648TIP3    H253360   3.525   5.003   1.898 -0.8777  1.2409 -1.6355
10649TIP3   OH253361   4.589   5.437   2.508 -0.1246 -0.5761 -0.1936
10649TIP3    H153362   4.564   5.471   2.594 -1.8432 -0.9931 -0.4807
10649TIP3    H253363   4.618   5.347   2.526  3.5234  0.5671  0.4368
10650TIP3   OH253364   0.352   4.737  14.784  0.0951  0.0467  0.5380
10650TIP3    H153365   0.302   4.655  14.791  1.2682 -0.7617 -0.2050
10650TIP3    H253366   0.340   4.763  14.693  1.4815 -0.4761  0.1900
10651TIP3   OH253367   6.609   3.279   3.202  0.5389  0.0615 -0.4570
10651TIP3    H153368   6.703   3.291   3.188  0.2775  1.9429 -0.8785
10651TIP3    H253369   6.584   3.351   3.260 -0.8626  0.3713 -1.3969
10652TIP3   OH253370   2.773   1.571  14.205 -0.0982 -0.5258  0.4802
10652TIP3    H153371   2.774   1.495  14.147 -0.3867  0.0732 -0.3176
10652TIP3    H253372   2.777   1.647  14.147 -1.2093  0.1046  1.1751
10653TIP3   OH253373   2.248   3.006  12.750 -0.5612  0.0420 -0.5696
10653TIP3    H153374   2.153   3.005  12.754 -0.5679  1.7058  1.7014
10653TIP3    H253375   2.270   3.096  12.727  0.5049 -0.6680 -2.5616
10654TIP3   OH253376   2.784   2.674   3.811 -0.3330  0.5635  0.4242
10654TIP3    H153377   2.858   2.689   3.752 -0.4009  0.1669  0.2385
10654TIP3    H253378   2.711   2.652   3.754 -0.2482 -0.4351  0.6752
10655TIP3   OH253379   5.758   5.859  11.049 -0.0511  0.2940  0.7819
10655TIP3    H153380   5.785   5.891  11.136 -1.5585  2.8054  0.4289
10655TIP3    H253381   5.664   5.877  11.045  0.0141  0.3958 -1.4135
10656TIP3   OH253382   2.478   6.359   1.704  0.2135 -0.3987  0.7148
10656TIP3    H153383   2.562   6.393   1.674  0.2977 -0.7938  0.4931
10656TIP3    H253384   2.413   6.421   1.672  0.2909 -0.8721 -0.3822
10657TIP3   OH253385   1.110   4.276  13.196 -0.1397  0.2134  0.3635
10657TIP3    H153386   1.131   4.347  13.136  0.9350 -0.4590 -0.0945
10657TIP3    H253387   1.184   4.273  13.257 -0.7535  0.2583  1.1239
10658TIP3   OH253388   4.477   5.565   6.017 -0.0837  0.0263 -0.0195
10658TIP3    H153389   4.389   5.579   6.052  0.0352 -1.0089  0.7105
10658TIP3    H253390   4.498   5.474   6.039  1.3740  0.4095  0.2577
10659TIP3   OH253391   1.996   2.729   3.764 -0.3501 -0.1758  0.6815
10659TIP3    H153392   1.916   2.678   3.749 -0.3107 -0.3296  0.9960
10659TIP3    H253393   2.067   2.673   3.733 -0.5102  0.8467 -1.7787
10660TIP3   OH253394   4.015   2.530   2.853 -0.6159 -0.6045 -1.4497
10660TIP3    H153395   3.941   2.471   2.838  0.2567 -1.7337 -1.5147
10660TIP3    H253396   4.037   2.564   2.767 -0.9520 -0.3964 -1.4544
10661TIP3   OH253397   6.401   1.783   6.047 -0.2399  0.1108 -0.4978
10661TIP3    H153398   6.332   1.788   5.981 -0.9755 -0.2144  0.2266
10661TIP3    H253399   6.430   1.874   6.057 -2.7106  0.8140  1.3648
10662TIP3   OH253400   6.668   3.249   2.575  0.5326  0.7118  0.2693
10662TIP3    H153401   6.588   3.280   2.618  0.5298 -0.3486  1.0907
10662TIP3    H253402   6.636   3.190   2.507  0.5503  2.1666 -1.0491
10663TIP3   OH253403   4.247   6.245   4.582 -0.3888 -0.1057 -0.1264
10663TIP3    H153404   4.166   6.285   4.614  0.4713  2.0141 -0.4076
10663TIP3    H253405   4.298   6.230   4.662 -0.4289  0.0323 -0.0736
10664TIP3   OH253406   4.870   1.749   5.323  0.1842 -0.3190  0.4052
10664TIP3    H153407   4.901   1.839   5.311 -0.6702 -0.1153 -0.3869
10664TIP3    H253408   4.928   1.696   5.268  0.8947 -0.3081  1.1247
10665TIP3   OH253409   0.971   1.770   0.434  0.7281  0.2048  0.1234
10665TIP3    H153410   0.981   1.675   0.444 -0.2924  0.0869  0.0790
10665TIP3    H253411   1.059   1.805   0.451  1.1329 -0.7485  0.0628
10666TIP3   OH253412   4.211   6.515   3.757 -0.0287 -0.4602 -0.4271
10666TIP3    H153413   4.150   6.464   3.703  1.2408 -1.8510 -0.6181
10666TIP3    H253414   4.165   6.526   3.840 -0.8906 -0.7153 -0.8527
10667TIP3   OH253415   1.970   4.422  14.239  0.1221  0.1370 -0.1773
10667TIP3    H153416   1.933   4.345  14.283 -1.4023  1.2748  0.6696
10667TIP3    H253417   1.943   4.496  14.295  3.6603  1.1291  0.4493
10668TIP3   OH253418   3.218   4.680  10.866 -0.2671  0.0305 -0.2232
10668TIP3    H153419   3.216   4.776  10.872  0.3259  0.0750 -0.6583
10668TIP3    H253420   3.135   4.652  10.903  0.0201  0.6586  0.9203
10669TIP3   OH253421   0.654   4.467   2.787  0.6091  0.2690  0.5971
10669TIP3    H153422   0.712   4.522   2.734  1.6851 -1.0217  0.3541
10669TIP3    H253423   0.596   4.528   2.832  0.2475  1.4672 -1.3717
10670TIP3   OH253424   1.479   1.345  16.842  0.5422  0.0780  0.4106
10670TIP3    H153425   1.562   1.393  16.840  0.0235  0.9730 -0.0022
10670TIP3    H253426   1.417   1.401  16.796 -0.2029 -0.7715  0.3486
10671TIP3   OH253427   5.655   6.562   4.216 -0.2729 -0.1429  0.1080
10671TIP3    H153428   5.707   6.642   4.204  3.1885 -2.3676 -1.3688
10671TIP3    H253429   5.690   6.523   4.296 -0.2699 -1.2794 -0.4299
10672TIP3   OH253430   0.527   0.693   3.993  0.3580  0.3217 -0.1533
10672TIP3    H153431   0.510   0.602   3.968  0.3402 -0.0626  1.1687
10672TIP3    H253432   0.617   0.709   3.966  0.9410 -0.6562  1.0846
10673TIP3   OH253433   2.643   0.180  12.745 -0.1272  0.1045  0.0498
10673TIP3    H153434   2.680   0.093  12.731 -0.0790  0.3005 -1.1640
10673TIP3    H253435   2.583   0.169  12.819  0.3179 -0.8209  0.2856
10674TIP3   OH253436   3.680   3.984   2.733  0.5102 -0.2014 -0.4358
10674TIP3    H153437   3.736   4.024   2.667 -0.4948  0.9525 -0.6247
10674TIP3    H253438   3.653   4.057   2.789 -2.7595 -0.1923 -1.7911
10675TIP3   OH253439   0.936   2.785   2.276  0.1611 -0.2625 -0.3971
10675TIP3    H153440   0.858   2.747   2.318  0.3627  0.2551  0.4811
10675TIP3    H253441   0.903   2.826   2.197 -0.5462  0.3138  0.1761
10676TIP3   OH253442   5.824   0.594  11.499  0.0724  0.0055 -0.2374
10676TIP3    H153443   5.785   0.617  11.584  0.8181  0.2421  0.0505
10676TIP3    H253444   5.902   0.649  11.493 -0.4932  0.7139 -1.5336
10677TIP3   OH253445   4.714   6.278   4.105  0.6913  0.4384  0.2218
10677TIP3    H153446   4.696   6.188   4.080  0.9972  0.5602 -0.4575
10677TIP3    H253447   4.809   6.286   4.098  0.4892  1.5716 -2.4258
10678TIP3   OH253448   0.891   0.554  10.922 -0.5076  0.7725 -0.0245
10678TIP3    H153449   0.938   0.494  10.864 -1.8181  0.1991 -0.5365
10678TIP3    H253450   0.928   0.640  10.902  1.8166  0.1267  1.1309
10679TIP3   OH253451   0.147   4.459   0.500 -0.2780 -0.1985 -0.1762
10679TIP3    H153452   0.067   4.439   0.550 -1.7837  1.4128 -1.8264
10679TIP3    H253453   0.118   4.515   0.429  2.2657 -0.0839 -1.2261
10680TIP3   OH253454   3.805   1.061   0.253  0.0986  0.1290  0.1234
10680TIP3    H153455   3.858   0.984   0.276 -1.9004 -1.3529  0.0709
10680TIP3    H253456   3.838   1.130   0.311 -0.9503 -1.9456  3.5039
10681TIP3   OH253457   5.507   4.258   3.002  0.5513  0.1041  0.3479
10681TIP3    H153458   5.494   4.326   3.068  2.0108 -0.9035  1.7406
10681TIP3    H253459   5.594   4.275   2.967  0.2644 -0.0837 -0.4819
10682TIP3   OH253460   0.216   3.698   5.901  0.5941 -0.1071 -0.1852
10682TIP3    H153461   0.192   3.747   5.980  0.7748  2.4450 -1.6109
10682TIP3    H253462   0.133   3.676   5.860  0.5051 -1.2979  0.5697
10683TIP3   OH253463   0.685   5.377   3.768  0.2874 -0.3189 -0.3285
10683TIP3    H153464   0.681   5.311   3.699 -0.2982 -0.4061 -0.2182
10683TIP3    H253465   0.624   5.445   3.740  2.8902  1.5806 -1.8416
10684TIP3   OH253466   1.927   2.653  11.107 -0.3395  0.1457 -0.2092
10684TIP3    H153467   1.963   2.575  11.066 -1.5656  0.1104 -1.2661
10684TIP3    H253468   1.835   2.654  11.080 -0.3978  1.8304 -0.0272
10685TIP3   OH253469   5.963   5.374   0.336  0.5124  0.3637 -0.3024
10685TIP3    H153470   6.033   5.312   0.358  0.3181  0.1338 -0.3267
10685TIP3    H253471   5.967   5.382   0.241 -0.5942 -0.9808 -0.4948
10686TIP3   OH253472   1.699   5.755  17.228  0.1593 -0.3759  0.1088
10686TIP3    H153473   1.657   5.692  17.286 -1.0570  0.0146 -0.3271
10686TIP3    H253474   1.698   5.714  17.142  0.4510 -0.2548  0.0431
10687TIP3   OH253475   3.266   2.536   3.203 -0.4269  0.6155  0.6026
10687TIP3    H153476   3.269   2.484   3.284 -1.5409 -0.3288  0.0554
10687TIP3    H253477   3.348   2.514   3.158 -0.9183 -0.7502  0.3386
10688TIP3   OH253478   1.537   5.894  12.109  0.2034  0.0885 -0.3563
10688TIP3    H153479   1.528   5.833  12.182  0.6036 -0.8916 -1.1115
10688TIP3    H253480   1.549   5.980  12.151 -3.6806  0.2618  0.7791
10689TIP3   OH253481   2.318   6.185   0.262  0.5089 -0.2742 -0.4280
10689TIP3    H153482   2.401   6.227   0.285  0.7769 -1.2303  0.4361
10689TIP3    H253483   2.266   6.189   0.342  0.4704 -1.3777 -0.3802
10690TIP3   OH253484   5.703   1.442   3.717  0.2317  0.2560 -1.1339
10690TIP3    H153485   5.740   1.475   3.799 -2.8759 -1.1007  1.0022
10690TIP3    H253486   5.657   1.517   3.680  2.0588  1.0104 -2.0109
10691TIP3   OH253487   5.219   3.364   0.708 -0.0965  0.6403 -0.5553
10691TIP3    H153488   5.308   3.397   0.720 -0.4580  1.7774 -0.8772
10691TIP3    H253489   5.167   3.413   0.772 -0.3689 -0.6287  0.2313
10692TIP3   OH253490   4.056   5.954   0.898  0.0202 -0.4012  0.2872
10692TIP3    H153491   3.989   6.022   0.903  0.4723 -0.0349  1.9699
10692TIP3    H253492   4.139   6.001   0.910  0.3400 -1.2126  1.4858
10693TIP3   OH253493   6.218   6.041  14.950  0.3821  0.1105 -0.1587
10693TIP3    H153494   6.283   5.970  14.949 -0.2234 -0.5068 -2.6529
10693TIP3    H253495   6.261   6.112  14.999  2.1368 -0.9686 -0.0460
10694TIP3   OH253496   3.554   0.280  17.262  0.2629 -0.2785  0.1427
10694TIP3    H153497   3.507   0.201  17.235  0.4393  0.0532 -1.2255
10694TIP3    H253498   3.497   0.353  17.236  0.1954  0.0615  1.1991
10695TIP3   OH253499   1.350   2.634   1.964 -0.2140  0.0129 -0.2609
10695TIP3    H153500   1.407   2.680   1.903  0.7551 -1.8783 -0.8716
10695TIP3    H253501   1.396   2.552   1.983 -1.9342 -0.8173  0.5965
10696TIP3   OH253502   1.723   5.011  13.974  0.3096 -0.3401 -0.5323
10696TIP3    H153503   1.734   5.094  13.928  0.7214  0.1929  0.5011
10696TIP3    H253504   1.793   5.009  14.038  0.0491 -1.3014 -0.2567
10697TIP3   OH253505   5.066   0.706  14.711  0.6000  0.6515 -0.1042
10697TIP3    H153506   5.070   0.626  14.658  0.0528  1.6835 -1.7945
10697TIP3    H253507   4.976   0.710  14.742  0.6820  0.4973  0.1508
10698TIP3   OH253508   6.038   2.525  16.051 -0.2355  0.2158  0.1160
10698TIP3    H153509   6.126   2.536  16.015 -0.2844  2.1626  0.4964
10698TIP3    H253510   6.052   2.474  16.131 -0.0205 -3.3330 -1.9815
10699TIP3   OH253511   1.458   6.565  15.673 -0.1981 -0.6253  0.2075
10699TIP3    H153512   1.542   6.519  15.666 -0.0317 -0.4494  0.9720
10699TIP3    H253513   1.395   6.505  15.634  0.0533 -1.4226  0.9952
10700TIP3   OH253514   4.498   3.293  16.326 -0.2211  0.3451  0.1638
10700TIP3    H153515   4.466   3.207  16.299  1.2695 -0.4763  0.8780
10700TIP3    H253516   4.469   3.301  16.417  1.4159 -0.3776  0.7960
10701TIP3   OH253517   0.460   3.425  16.575 -0.1892 -0.3773 -0.3447
10701TIP3    H153518   0.523   3.353  16.572  0.4199  0.1499 -0.4533
10701TIP3    H253519   0.375   3.382  16.587  0.2961 -1.0402  0.8224
10702TIP3   OH253520   3.494   0.221  15.321 -0.4767  0.1328 -0.4110
10702TIP3    H153521   3.435   0.205  15.395  2.7679  1.1214  2.6841
10702TIP3    H253522   3.538   0.137  15.307 -1.7450 -0.3166 -1.9958
10703TIP3   OH253523   2.356   2.381   1.579 -0.3368  0.2121 -0.3744
10703TIP3    H153524   2.316   2.298   1.553  0.9982 -0.7879  0.6597
10703TIP3    H253525   2.437   2.386   1.528 -1.1716  1.7157 -1.6600
10704TIP3   OH253526   2.466   5.355   5.269  0.2996  0.4067 -0.5394
10704TIP3    H153527   2.382   5.362   5.224  0.4163  0.3106 -0.7704
10704TIP3    H253528   2.508   5.440   5.255  0.1749  0.5109 -0.2909
10705TIP3   OH253529   1.220   3.629   1.601  0.2054  0.0132 -0.0379
10705TIP3    H153530   1.133   3.627   1.562 -0.2405  3.1912  0.5477
10705TIP3    H253531   1.271   3.686   1.545  1.3395 -0.2091  0.7302
10706TIP3   OH253532   2.293   3.358   0.719  0.1365 -0.1043  0.2425
10706TIP3    H153533   2.247   3.308   0.787 -0.1932  0.4360  0.4252
10706TIP3    H253534   2.385   3.351   0.741  0.0912 -0.5983  0.2878
10707TIP3   OH253535   1.504   3.732   6.158  0.7812  0.4761 -0.1968
10707TIP3    H153536   1.468   3.811   6.117  2.8199  1.4267 -0.2820
10707TIP3    H253537   1.500   3.749   6.252 -0.0707  0.0655 -0.1525
10708TIP3   OH253538   0.095   5.680  13.486  0.3173 -0.0351  0.1464
10708TIP3    H153539   0.049   5.706  13.565  2.3506 -0.2711  1.4785
10708TIP3    H253540   0.026   5.651  13.426 -1.2454 -0.1421  1.9231
10709TIP3   OH253541   0.862   5.841   0.173  0.5524 -0.5774 -0.0132
10709TIP3    H153542   0.805   5.833   0.096  0.8366  0.8078 -0.3872
10709TIP3    H253543   0.847   5.760   0.222  0.3031 -1.4510 -1.4734
10710TIP3   OH253544   5.113   6.630  15.926  0.4323 -0.0247  0.3113
10710TIP3    H153545   5.116   6.573  16.002 -0.0719 -0.2220  0.1845
10710TIP3    H253546   5.125   6.718  15.962  1.5002 -0.2260  0.4741
10711TIP3   OH253547   4.940   3.622  14.474 -0.1648  0.4777 -0.2167
10711TIP3    H153548   4.945   3.696  14.535 -0.0848 -0.2011  0.6176
10711TIP3    H253549   4.960   3.546  14.528  1.4827  0.0124 -1.4263
10712TIP3   OH253550   4.698   0.689   4.253 -0.5642  0.4648  0.8766
10712TIP3    H153551   4.756   0.614   4.265  0.5291  1.3192  1.1404
10712TIP3    H253552   4.611   0.651   4.243 -0.1542 -0.7876  1.8548
10713TIP3   OH253553   2.576   5.790  15.317 -0.2759 -0.5448 -0.5344
10713TIP3    H153554   2.569   5.880  15.283  0.9681 -0.4074 -0.4895
10713TIP3    H253555   2.670   5.773  15.319 -0.3617 -1.0162  1.6743
10714TIP3   OH253556   3.857   1.073  13.464  0.1179  0.1038  0.0748
10714TIP3    H153557   3.814   1.003  13.414 -0.1680  0.5252 -0.2863
10714TIP3    H253558   3.944   1.080  13.426 -0.8909  2.1150 -2.1623
10715TIP3   OH253559   6.230   1.775   0.325 -0.3472 -0.3924  0.1128
10715TIP3    H153560   6.257   1.866   0.342 -2.0579 -0.3331  3.3018
10715TIP3    H253561   6.302   1.722   0.360 -0.2581 -0.2436  0.1556
10716TIP3   OH253562   5.136   0.602  11.238  1.1136 -0.5871 -0.6761
10716TIP3    H153563   5.121   0.663  11.165  0.3954 -1.4453 -1.2729
10716TIP3    H253564   5.157   0.519  11.195 -2.3185 -1.9200 -0.0510
10717TIP3   OH253565   1.925   6.258  15.150 -0.6671 -0.0633  0.2227
10717TIP3    H153566   1.921   6.193  15.220 -1.1958  1.3477  1.5280
10717TIP3    H253567   1.929   6.205  15.070 -1.5689 -1.7048  1.2065
10718TIP3   OH253568   4.376   6.553   2.830  0.2698  0.1897  0.3765
10718TIP3    H153569   4.402   6.520   2.916  0.9360  1.8372  0.8376
10718TIP3    H253570   4.406   6.644   2.829 -0.8301  0.5665 -1.1311
10719TIP3   OH253571   1.397   3.561  11.985 -0.5936 -0.1669 -0.0231
10719TIP3    H153572   1.339   3.496  12.026 -0.4023 -0.8354 -0.7827
10719TIP3    H253573   1.379   3.642  12.031 -1.7399 -0.4906  0.1169
10720TIP3   OH253574   2.484   0.160  12.987 -0.0083 -0.1868  0.3553
10720TIP3    H153575   2.518   0.142  13.075  2.5136  0.6940 -0.3378
10720TIP3    H253576   2.422   0.089  12.970  2.3471 -2.6594  1.3860
10721TIP3   OH253577   6.523   2.951   3.052  0.1170 -0.2927 -0.6335
10721TIP3    H153578   6.457   2.997   3.104  1.2476 -0.8501  1.4226
10721TIP3    H253579   6.549   3.013   2.985  0.1919  1.3663  0.8541
10722TIP3   OH253580   1.094   1.467   4.178 -0.2022  0.1651  0.3498
10722TIP3    H153581   1.106   1.492   4.086  0.2630 -0.4503  0.2388
10722TIP3    H253582   1.103   1.372   4.179  1.2800  0.2730  1.2337
10723TIP3   OH253583   4.656   2.302  12.346 -0.3583 -0.2133  0.4250
10723TIP3    H153584   4.564   2.273  12.340 -0.5019 -0.0726  1.6755
10723TIP3    H253585   4.671   2.351  12.265 -1.0992 -1.0220 -0.2279
10724TIP3   OH253586   0.809   3.255   3.162  0.2750  0.0160  0.3462
10724TIP3    H153587   0.847   3.169   3.176 -1.1210 -0.5743  0.6845
10724TIP3    H253588   0.732   3.257   3.219 -0.9216  0.6690 -1.2171
10725TIP3   OH253589   1.552   3.379  13.614  0.2738  0.0869 -0.0879
10725TIP3    H153590   1.630   3.331  13.642  1.1212  0.8622 -1.0608
10725TIP3    H253591   1.553   3.373  13.519  0.6008  2.3036 -0.2751
10726TIP3   OH253592   2.063   2.145  15.364 -0.7878 -0.3324 -0.1159
10726TIP3    H153593   2.043   2.126  15.455  1.6320 -0.0693  0.5384
10726TIP3    H253594   2.074   2.059  15.323 -1.8706 -0.4488 -0.1938
10727TIP3   OH253595   0.889   5.628   1.578  0.3789  0.1420  0.4105
10727TIP3    H153596   0.914   5.594   1.492 -0.4333  3.2536 -1.2353
10727TIP3    H253597   0.847   5.555   1.622 -1.3902 -0.9948 -2.8373
10728TIP3   OH253598   2.821   4.428   5.079 -0.0100 -0.3225  0.0264
10728TIP3    H153599   2.851   4.345   5.117  2.5402  0.1193 -0.8306
10728TIP3    H253600   2.825   4.491   5.150  1.3968 -0.2329 -0.1150
10729TIP3   OH253601   6.378   6.222   3.533  0.2372  0.2537  0.3760
10729TIP3    H153602   6.410   6.285   3.468 -0.0695  1.2821  1.1972
10729TIP3    H253603   6.309   6.268   3.580  1.6364  0.2335  2.6495
10730TIP3   OH253604   6.025   6.504  12.807 -0.7040  0.5035 -0.2156
10730TIP3    H153605   6.037   6.454  12.726 -0.5960 -0.0550  0.1366
10730TIP3    H253606   6.063   6.590  12.788 -0.7805  0.4134 -0.7918
10731TIP3   OH253607   6.545   1.672  14.998  0.2111 -0.2619 -0.5718
10731TIP3    H153608   6.582   1.603  14.944  1.1224  0.3412 -0.7405
10731TIP3    H253609   6.474   1.630  15.046  0.0083 -1.0340 -1.5259
10732TIP3   OH253610   6.118   0.964  13.197 -0.1023  0.0852  0.4026
10732TIP3    H153611   6.091   0.965  13.289  0.8002  0.0192  0.6873
10732TIP3    H253612   6.181   1.036  13.190 -2.6850  2.4138 -1.0235
10733TIP3   OH253613   6.209   2.462   6.715  0.2610  0.1640 -0.3083
10733TIP3    H153614   6.130   2.487   6.668  0.8230 -0.1544 -1.4715
10733TIP3    H253615   6.280   2.485   6.655  0.9772 -0.7246  0.1839
10734TIP3   OH253616   4.002   1.899   0.848 -0.8905  0.5463  0.4449
10734TIP3    H153617   4.022   1.828   0.908 -0.1830  0.1001 -0.3106
10734TIP3    H253618   3.924   1.869   0.801 -0.5751  0.2580  0.1060
10735TIP3   OH253619   6.076   5.891   0.170  0.6857 -0.2593  0.3195
10735TIP3    H153620   6.169   5.912   0.160 -0.0180  3.2386 -0.0177
10735TIP3    H253621   6.070   5.853   0.258  2.5347 -1.7243 -0.1147
10736TIP3   OH253622   5.046   5.860   4.909 -0.2534  0.0164 -0.4020
10736TIP3    H153623   5.020   5.818   4.990  0.1468  1.1579  0.3560
10736TIP3    H253624   5.062   5.788   4.848 -1.3125 -0.8276  0.2887
10737TIP3   OH253625   5.956   3.644  17.179  0.4297 -0.0331  0.1932
10737TIP3    H153626   5.872   3.616  17.141  0.5471  1.0488 -0.9248
10737TIP3    H253627   5.959   3.600  17.264  0.6009 -3.3819 -1.3568
10738TIP3   OH253628   3.910   0.023   5.249  0.1044  0.0734  0.0197
10738TIP3    H153629   3.913   0.091   5.181 -0.3823  1.1108  1.0003
10738TIP3    H253630   3.816   0.012   5.268  0.1691 -0.9752 -0.2131
10739TIP3   OH253631   3.932   1.397  13.324 -0.3990 -0.9203  0.2722
10739TIP3    H153632   3.987   1.430  13.395  0.2474 -0.2228 -0.5301
10739TIP3    H253633   3.848   1.442  13.335 -0.4506 -1.1601  0.8610
10740TIP3   OH253634   2.480   3.632   2.712 -0.7382  0.2242  0.2799
10740TIP3    H153635   2.492   3.721   2.746  2.1330 -0.2157  0.6163
10740TIP3    H253636   2.385   3.619   2.715 -1.1482  2.7562  1.5113
10741TIP3   OH253637   1.817   4.650   2.640  0.5688  0.5726  0.2069
10741TIP3    H153638   1.901   4.663   2.596  1.7466  1.3547  2.4845
10741TIP3    H253639   1.790   4.738   2.665 -0.5485  0.2467  0.1985
10742TIP3   OH253640   2.954   5.402  16.671 -0.4551  0.3665  0.1116
10742TIP3    H153641   2.934   5.491  16.642 -0.3177  0.6483  0.8677
10742TIP3    H253642   2.869   5.363  16.691 -0.6933 -0.3055 -1.9454
10743TIP3   OH253643   5.038   2.192   4.057  0.2351  0.0324  0.4417
10743TIP3    H153644   4.959   2.238   4.086 -0.0300  1.1773 -1.9528
10743TIP3    H253645   5.006   2.126   3.996  1.1129  0.6329 -0.7028
10744TIP3   OH253646   6.155   1.754   1.808 -0.5542 -0.6051 -0.2686
10744TIP3    H153647   6.249   1.745   1.795 -0.2266 -0.0379  1.3993
10744TIP3    H253648   6.122   1.665   1.809 -0.3205 -0.7716 -2.4589
10745TIP3   OH253649   4.990   1.189  15.250 -0.7528 -0.0132  0.0066
10745TIP3    H153650   5.020   1.100  15.237  0.2274  0.0588  1.5743
10745TIP3    H253651   4.941   1.210  15.170 -3.2485 -2.8220  0.6096
10746TIP3   OH253652   3.878   4.225  15.912  0.2699 -0.0954  0.3600
10746TIP3    H153653   3.864   4.148  15.858 -1.0545  0.7654 -0.6056
10746TIP3    H253654   3.791   4.243  15.950 -0.0562  2.1857 -1.2410
10747TIP3   OH253655   2.314   0.370   2.287 -0.3113  0.2636 -0.5172
10747TIP3    H153656   2.313   0.455   2.243 -3.3503 -0.0862 -1.3409
10747TIP3    H253657   2.342   0.308   2.220  0.5363  0.4005 -0.3062
10748TIP3   OH253658   0.806   1.406  11.625  0.6124 -0.0697 -0.0479
10748TIP3    H153659   0.838   1.430  11.538 -0.4579  1.8121  0.0370
10748TIP3    H253660   0.847   1.469  11.684  0.0469 -0.3008  0.6018
10749TIP3   OH253661   6.190   1.082  16.379 -0.2656  0.4812  0.2882
10749TIP3    H153662   6.258   1.118  16.435  0.0980  3.1040 -1.5953
10749TIP3    H253663   6.233   1.071  16.294 -1.7383  0.5906 -0.5050
10750TIP3   OH253664   3.228   4.709  15.115  0.0693 -0.3614  0.3802
10750TIP3    H153665   3.177   4.634  15.085 -0.4355 -1.0228  2.7167
10750TIP3    H253666   3.315   4.695  15.078 -0.3946 -1.3420 -0.3758
10751TIP3   OH253667   5.133   0.266  11.662  0.6200  0.2747  0.4178
10751TIP3    H153668   5.184   0.338  11.699  1.3306 -0.8160  1.6345
10751TIP3    H253669   5.119   0.206  11.735 -4.4996  1.5574  0.8519
10752TIP3   OH253670   3.633   4.311  10.712  0.2563 -0.0579 -0.2917
10752TIP3    H153671   3.637   4.247  10.783 -1.3669  0.9605  0.7928
10752TIP3    H253672   3.712   4.364  10.725 -0.3225  0.5102  1.2133
10753TIP3   OH253673   2.913   6.504   4.236 -0.0237 -0.3716  0.1157
10753TIP3    H153674   2.950   6.582   4.196  1.4614  0.0190  2.1407
10753TIP3    H253675   2.825   6.531   4.265 -0.2386 -0.0232 -0.8219
10754TIP3   OH253676   1.659   5.248   5.059  0.3250  1.0467  0.1418
10754TIP3    H153677   1.706   5.188   5.117  0.3027 -2.6634 -3.2324
10754TIP3    H253678   1.727   5.305   5.023  0.9845  0.6134  0.6710
10755TIP3   OH253679   4.580   5.225  14.074  0.3905  0.0602  0.3883
10755TIP3    H153680   4.625   5.195  14.152  0.8543 -1.8573 -0.5373
10755TIP3    H253681   4.502   5.169  14.068  0.2877  0.2688 -0.4460
10756TIP3   OH253682   6.332   1.472  11.449  0.0836 -0.3829  0.5005
10756TIP3    H153683   6.330   1.401  11.385 -3.6625  1.7152 -2.1346
10756TIP3    H253684   6.407   1.526  11.425  0.5412 -1.2778 -0.0965
10757TIP3   OH253685   3.541   5.451  13.213 -0.3719  0.7816  0.3358
10757TIP3    H153686   3.587   5.387  13.266 -0.1020  1.3374  0.7794
10757TIP3    H253687   3.508   5.401  13.138  0.8909  0.3686  0.0445
10758TIP3   OH253688   1.457   4.732   0.878  0.0139 -0.0991  0.0365
10758TIP3    H153689   1.378   4.729   0.824  0.0254 -0.1424  0.0212
10758TIP3    H253690   1.486   4.641   0.881  0.5165  0.0226 -0.6435
10759TIP3   OH253691   2.926   5.318   5.217  0.2365  0.3830  0.4102
10759TIP3    H153692   2.906   5.411   5.215 -3.2110 -0.2300 -1.3199
10759TIP3    H253693   2.869   5.282   5.285 -0.3508 -0.7392 -0.6298
10760TIP3   OH253694   3.186   5.820   1.271  0.1208 -0.3506 -0.3837
10760TIP3    H153695   3.216   5.740   1.229 -1.6490 -1.3261  0.0877
10760TIP3    H253696   3.159   5.792   1.359  2.8620  1.4424  1.2159
10761TIP3   OH253697   3.333   5.743   2.576 -0.3796 -0.0305 -0.5084
10761TIP3    H153698   3.288   5.692   2.643 -0.7048 -0.0808 -0.7598
10761TIP3    H253699   3.383   5.808   2.625 -2.5615  1.5681 -0.2504
10762TIP3   OH253700   5.313   4.073  11.731  0.2962  0.2161  0.1635
10762TIP3    H153701   5.238   4.016  11.713 -0.9502  0.9853  2.5022
10762TIP3    H253702   5.274   4.161  11.737  1.5417  0.7542  0.5238
10763TIP3   OH253703   2.795   1.816   3.287 -0.1847 -0.2029 -0.1808
10763TIP3    H153704   2.849   1.876   3.235  0.3085 -0.8837 -0.4580
10763TIP3    H253705   2.847   1.800   3.366 -0.9899  0.9422  0.6213
10764TIP3   OH253706   2.349   2.680  11.150 -0.3820 -0.1673  0.5948
10764TIP3    H153707   2.422   2.627  11.119 -1.8380 -1.0352 -1.6235
10764TIP3    H253708   2.307   2.712  11.069 -2.1937  0.6463  1.7879
10765TIP3   OH253709   5.767   2.573  12.091  0.0101  0.3378 -0.1238
10765TIP3    H153710   5.805   2.623  12.164 -0.6095  0.3867  0.1676
10765TIP3    H253711   5.718   2.503  12.133  0.3507 -0.1423 -0.5198
10766TIP3   OH253712   3.794   3.415  13.536  0.2340  0.0080  0.0019
10766TIP3    H153713   3.786   3.372  13.621  1.7462 -1.7468 -0.6594
10766TIP3    H253714   3.736   3.366  13.478 -1.2670  1.5875  0.1155
10767TIP3   OH253715   0.069   5.408  11.478 -0.6171  0.1585  0.3676
10767TIP3    H153716   0.091   5.315  11.469 -1.3453  0.0627 -0.6230
10767TIP3    H253717   0.091   5.445  11.392  0.1331  1.0146  0.9112
10768TIP3   OH253718   6.671   0.812   4.976 -0.4060 -0.4745 -0.2532
10768TIP3    H153719   6.752   0.776   4.940 -0.5880 -0.5675 -0.5751
10768TIP3    H253720   6.648   0.883   4.916  0.6119  1.0261  1.0402
10769TIP3   OH253721   5.683   2.615  15.293 -0.1023  0.1268 -0.4856
10769TIP3    H153722   5.734   2.696  15.299 -3.2148  2.2893 -0.4785
10769TIP3    H253723   5.665   2.604  15.199  2.0739 -1.9035 -0.7585
10770TIP3   OH253724   6.629   2.641  13.947 -0.3364 -0.0543  0.0797
10770TIP3    H153725   6.715   2.682  13.937 -0.4200  0.3438  0.9405
10770TIP3    H253726   6.640   2.553  13.911 -0.3829  0.9553 -2.6603
10771TIP3   OH253727   2.081   6.579   6.618  0.3340  0.0087  0.2714
10771TIP3    H153728   2.120   6.494   6.635 -0.9469 -0.4905  0.8760
10771TIP3    H253729   1.987   6.562   6.613  0.1681  1.1444 -1.2236
10772TIP3   OH253730   4.561   4.509  15.915  0.0255  0.3289  0.3276
10772TIP3    H153731   4.628   4.468  15.861  1.3800 -0.2282  2.3367
10772TIP3    H253732   4.478   4.474  15.881  0.9281 -1.2487 -0.3353
10773TIP3   OH253733   2.956   5.358  12.721 -0.0887  0.3286 -0.0750
10773TIP3    H153734   2.972   5.333  12.630 -0.2603  1.1943 -0.3569
10773TIP3    H253735   2.866   5.330  12.737 -0.6026  1.5272 -0.6833
10774TIP3   OH253736   2.583   1.563   0.318 -0.1926 -0.4547  0.4730
10774TIP3    H153737   2.613   1.583   0.407 -1.3272  1.1749  0.5406
10774TIP3    H253738   2.661   1.531   0.273  0.6509 -0.2850  1.7618
10775TIP3   OH253739   5.297   2.324  10.951 -0.1545 -0.0747 -0.2279
10775TIP3    H153740   5.214   2.371  10.944  1.3919  2.8174 -0.6394
10775TIP3    H253741   5.321   2.303  10.861  0.5693  1.1296 -0.3462
10776TIP3   OH253742   2.675   1.900   4.568 -0.7629  0.0720 -0.0774
10776TIP3    H153743   2.707   1.990   4.555  0.7321 -0.3360  0.5070
10776TIP3    H253744   2.603   1.891   4.505 -0.3504  1.3871 -0.7874
10777TIP3   OH253745   5.602   1.976   2.889 -0.2743 -0.6533 -0.0462
10777TIP3    H153746   5.571   2.065   2.875 -1.6981 -1.0245  0.6179
10777TIP3    H253747   5.665   1.983   2.961  1.6195  0.1666 -1.6763
10778TIP3   OH253748   1.493   4.929  13.458 -0.3966 -0.0105  0.0021
10778TIP3    H153749   1.445   5.004  13.493  0.0063  0.6072 -0.7316
10778TIP3    H253750   1.430   4.884  13.401 -0.6646 -0.2969  0.5101
10779TIP3   OH253751   6.113   2.209   0.448  0.2318  0.3211 -0.0910
10779TIP3    H153752   6.033   2.218   0.396 -0.2871 -0.4351  0.5558
10779TIP3    H253753   6.133   2.298   0.477 -0.4768  0.4884 -0.1029
10780TIP3   OH253754   0.484   0.388   6.009  0.1396 -0.2973 -0.3255
10780TIP3    H153755   0.404   0.410   6.057  0.6771 -0.7302  0.7890
10780TIP3    H253756   0.514   0.306   6.048  0.7118 -0.5577 -1.2680
10781TIP3   OH253757   4.249   5.567   1.478  0.4986 -0.0677  0.0860
10781TIP3    H153758   4.294   5.505   1.421 -4.0840 -2.1613 -1.8224
10781TIP3    H253759   4.221   5.637   1.419  0.1660  0.4684  0.8668
10782TIP3   OH253760   6.281   2.779   0.250  0.0577 -0.1632 -0.5316
10782TIP3    H153761   6.286   2.874   0.245 -0.6077 -0.0618  0.3191
10782TIP3    H253762   6.188   2.761   0.265  0.0417 -0.9996 -1.5667
10783TIP3   OH253763   5.858   1.891  12.686  0.3952  0.2356  0.6860
10783TIP3    H153764   5.772   1.897  12.726 -0.9005 -0.1061 -1.8125
10783TIP3    H253765   5.907   1.831  12.742 -0.1118  2.2751  3.4952
10784TIP3   OH253766   0.561   5.727  15.997  0.0839  0.4342  0.0965
10784TIP3    H153767   0.605   5.804  15.963  0.0539 -0.2469 -1.5634
10784TIP3    H253768   0.604   5.710  16.081 -0.2695  2.5231  0.7407
10785TIP3   OH253769   3.198   0.148   3.989  0.3465 -0.6087  0.1060
10785TIP3    H153770   3.184   0.243   3.987  0.2391 -0.6121  0.7049
10785TIP3    H253771   3.293   0.138   3.997  0.2235 -0.5163  2.1384
10786TIP3   OH253772   1.267   2.466   2.181 -0.1655  0.4445  0.1001
10786TIP3    H153773   1.300   2.539   2.128  2.3612 -0.3974  0.3853
10786TIP3    H253774   1.291   2.489   2.271  1.5324 -1.0820  0.1010
10787TIP3   OH253775   0.887   4.417   0.447 -0.1400 -0.1421  0.0356
10787TIP3    H153776   0.805   4.456   0.418  0.7815  2.3630  0.5683
10787TIP3    H253777   0.887   4.330   0.408 -1.8849  0.7141 -2.0554
10788TIP3   OH253778   5.365   4.652   5.860  0.0796  0.2034 -0.1436
10788TIP3    H153779   5.302   4.637   5.930  1.2671 -0.5458  0.7918
10788TIP3    H253780   5.435   4.702   5.901 -0.7108  2.7528 -1.6159
10789TIP3   OH253781   6.103   0.995  12.420  0.0833 -0.0724 -0.1360
10789TIP3    H153782   6.146   1.078  12.400  0.7733  0.3440  2.7304
10789TIP3    H253783   6.011   1.019  12.435  0.4064  0.3387  1.3430
10790TIP3   OH253784   2.071   6.057   0.965 -0.1980 -0.1934  0.0716
10790TIP3    H153785   2.092   6.148   0.945 -1.0789  0.1264  0.5404
10790TIP3    H253786   1.990   6.062   1.016  0.1823 -1.1917  0.7980
10791TIP3   OH253787   3.508   2.204   6.463 -0.0868 -0.1404 -0.3026
10791TIP3    H153788   3.468   2.275   6.513  0.0811  1.0985 -1.8285
10791TIP3    H253789   3.592   2.239   6.434 -0.2506 -0.7111 -1.5640
10792TIP3   OH253790   5.080   1.411  17.133 -0.6318 -0.0977 -0.4068
10792TIP3    H153791   4.993   1.425  17.097 -0.0440 -0.9866 -2.2695
10792TIP3    H253792   5.114   1.335  17.086  0.0655 -1.5969  2.3009
10793TIP3   OH253793   2.514   2.399   1.877 -0.0355  0.1487  0.1956
10793TIP3    H153794   2.535   2.488   1.849 -0.3395  0.2094  0.1553
10793TIP3    H253795   2.585   2.375   1.937  2.0279 -0.9055 -2.4888
10794TIP3   OH253796   2.341   3.108   4.113  0.3302 -0.6780  0.4924
10794TIP3    H153797   2.414   3.136   4.168  0.3156  0.9397 -0.2490
10794TIP3    H253798   2.304   3.189   4.079 -0.7893 -1.5491 -0.4663
10795TIP3   OH253799   1.299   3.438   3.590  0.4937 -0.1874 -0.3370
10795TIP3    H153800   1.238   3.396   3.530  0.8073 -1.5912  0.2866
10795TIP3    H253801   1.253   3.517   3.620 -0.7519 -0.8735 -0.3717
10796TIP3   OH253802   5.861   4.228   1.784  0.0725 -0.4810  0.1029
10796TIP3    H153803   5.956   4.239   1.779  0.4311 -2.9253  0.2982
10796TIP3    H253804   5.829   4.313   1.816  2.5342 -0.5071  3.1896
10797TIP3   OH253805   4.756   3.687   0.225  0.4519 -0.9522  0.8246
10797TIP3    H153806   4.741   3.592   0.235 -0.1050 -0.7366  2.3832
10797TIP3    H253807   4.849   3.695   0.207  0.4889 -1.7997  0.5689
10798TIP3   OH253808   6.603   3.177  13.757 -0.6050  0.1716  0.3251
10798TIP3    H153809   6.583   3.152  13.667 -2.1806 -1.5018  1.0703
10798TIP3    H253810   6.651   3.260  13.749 -1.3317  0.4405 -1.9892
10799TIP3   OH253811   4.759   0.051   4.129 -0.7357 -0.6175 -0.1629
10799TIP3    H153812   4.839   0.017   4.088 -1.7613 -0.9802 -1.9624
10799TIP3    H253813   4.724  -0.023   4.179 -0.8103 -0.9685 -0.7308
10800TIP3   OH253814   3.617   2.404  16.878  0.1996 -0.4708  0.2635
10800TIP3    H153815   3.641   2.335  16.940 -0.5740 -0.5454  0.5011
10800TIP3    H253816   3.695   2.458  16.870  0.8007 -1.3571  0.0959
10801TIP3   OH253817   3.261   4.791  13.737  0.5446  0.5325 -0.0993
10801TIP3    H153818   3.227   4.861  13.681 -0.8423  0.3097  0.4174
10801TIP3    H253819   3.212   4.800  13.819  2.0656  0.4539  0.8689
10802TIP3   OH253820   4.203   2.907  15.483  0.7899 -0.2303  0.1866
10802TIP3    H153821   4.126   2.924  15.538  0.9055  0.0375  0.2668
10802TIP3    H253822   4.168   2.856  15.410  0.5735 -0.2940  0.3323
10803TIP3   OH253823   2.824   1.738   4.410  0.0507 -0.5116  0.3000
10803TIP3    H153824   2.762   1.681   4.364 -0.9350  0.6186  0.1779
10803TIP3    H253825   2.776   1.769   4.487  0.6482 -0.0408  0.4922
10804TIP3   OH253826   4.474   5.727  15.128  0.4505  0.3647  0.4273
10804TIP3    H153827   4.422   5.715  15.207 -2.4170  0.8582 -1.2428
10804TIP3    H253828   4.476   5.821  15.114  0.0970  0.2288 -0.5925
10805TIP3   OH253829   6.692   2.091   4.064 -0.0614 -0.9412 -0.1439
10805TIP3    H153830   6.768   2.105   4.121 -0.9332  0.3477  0.7597
10805TIP3    H253831   6.721   2.122   3.978  0.2108  0.2843  0.3639
10806TIP3   OH253832   4.797   0.089   5.708  0.0187  0.0673 -0.1282
10806TIP3    H153833   4.826   0.120   5.793  1.1988 -2.7894  0.6293
10806TIP3    H253834   4.878   0.081   5.657 -0.5762  0.8848 -1.2397
10807TIP3   OH253835   0.925   0.478  12.684  0.3617  0.0832 -0.3837
10807TIP3    H153836   0.902   0.570  12.699  2.2964  0.3850  1.1070
10807TIP3    H253837   0.896   0.433  12.763  0.8525 -0.2996 -0.4191
10808TIP3   OH253838   0.639   4.526  14.446  0.1710  0.1487  0.2265
10808TIP3    H153839   0.665   4.527  14.354  1.1243  0.6151  0.4892
10808TIP3    H253840   0.662   4.613  14.478 -1.2551  0.4137  0.6256
10809TIP3   OH253841   0.749   3.175  14.496 -0.1079 -0.3366 -0.2931
10809TIP3    H153842   0.800   3.218  14.427 -0.1689  0.8146  0.3635
10809TIP3    H253843   0.677   3.133  14.449  1.7016 -2.5368 -1.3393
10810TIP3   OH253844   5.785   1.696  17.094 -0.2031  0.4768 -0.4192
10810TIP3    H153845   5.700   1.733  17.117  0.0506  2.0707 -1.8451
10810TIP3    H253846   5.839   1.709  17.172 -1.7997 -2.6988  1.4191
10811TIP3   OH253847   5.520   3.597  15.330 -0.8663 -0.4090  0.1221
10811TIP3    H153848   5.570   3.571  15.252 -2.5000 -0.8989 -0.8144
10811TIP3    H253849   5.587   3.615  15.396  0.5785 -0.0007 -1.3760
10812TIP3   OH253850   1.897   2.804  15.769 -0.3036  0.0637 -0.1093
10812TIP3    H153851   1.976   2.853  15.793 -0.8060  1.4665 -1.1834
10812TIP3    H253852   1.922   2.757  15.689 -0.1775 -0.5194  0.2691
10813TIP3   OH253853   6.401   4.651  11.332 -0.1841  0.1827  0.1136
10813TIP3    H153854   6.370   4.644  11.423 -0.5777  0.0327 -0.0336
10813TIP3    H253855   6.328   4.619  11.279  0.7678 -1.6429 -0.1732
10814TIP3   OH253856   0.664   1.426   4.823 -0.2151 -0.2205 -0.3743
10814TIP3    H153857   0.662   1.360   4.892 -0.0603  2.1321  2.0283
10814TIP3    H253858   0.747   1.412   4.778 -0.3389 -1.8403 -0.1565
10815TIP3   OH253859   6.245   0.188   1.355  1.2008  0.1198  0.2867
10815TIP3    H153860   6.255   0.224   1.267  0.6773 -0.1783  0.0969
10815TIP3    H253861   6.329   0.204   1.398  1.3258  0.6225 -0.1366
10816TIP3   OH253862   5.645   3.416   2.485  0.2491  0.4262 -0.3944
10816TIP3    H153863   5.622   3.489   2.543 -2.4853  1.0710 -2.1158
10816TIP3    H253864   5.652   3.341   2.544 -1.1440  1.2837  0.9666
10817TIP3   OH253865   2.377   3.508  16.959 -0.4526 -0.6638  0.3463
10817TIP3    H153866   2.383   3.600  16.932 -1.2002 -0.8811 -0.6018
10817TIP3    H253867   2.366   3.460  16.877 -2.0831 -1.4261  0.9771
10818TIP3   OH253868   3.851   4.769  13.775  0.1160  0.3243  0.3431
10818TIP3    H153869   3.829   4.785  13.867 -1.5193  1.1201 -0.1391
10818TIP3    H253870   3.901   4.847  13.749  0.0274  0.3929  0.3800
10819TIP3   OH253871   1.710   1.063   2.977 -0.2088  0.0499  0.3518
10819TIP3    H153872   1.781   1.035   2.919 -1.2396 -1.2532 -0.3104
10819TIP3    H253873   1.706   0.996   3.045 -1.4315 -0.4126 -0.1547
10820TIP3   OH253874   0.367   6.487   3.928 -0.1284 -0.0258  0.0291
10820TIP3    H153875   0.320   6.434   3.992 -0.4060  0.6485  0.3876
10820TIP3    H253876   0.303   6.505   3.859  0.0153 -0.3060 -0.1758
10821TIP3   OH253877   0.202   2.699   2.539  0.1452 -0.5100  0.4560
10821TIP3    H153878   0.138   2.768   2.556 -2.2071 -1.9593 -1.7171
10821TIP3    H253879   0.171   2.624   2.589  1.5002 -0.6309  1.1702
10822TIP3   OH253880   4.866   6.286  16.870 -0.0824 -0.3255  0.1814
10822TIP3    H153881   4.902   6.201  16.845 -0.2108 -0.8631  1.6941
10822TIP3    H253882   4.931   6.323  16.929 -0.0205  0.6517 -0.4784
10823TIP3   OH253883   5.375   0.960   2.473  0.1094  0.3018 -0.2436
10823TIP3    H153884   5.416   1.046   2.460 -1.8916  1.2449 -0.6286
10823TIP3    H253885   5.419   0.903   2.409 -0.3413  1.6965 -1.8744
10824TIP3   OH253886   6.197   3.998   4.947  1.2966 -0.1800  0.3919
10824TIP3    H153887   6.192   3.919   4.892  0.8449  0.4235 -0.4580
10824TIP3    H253888   6.121   3.991   5.004  0.8197  0.0070 -0.2050
10825TIP3   OH253889   2.184   0.049   2.362  0.4429  0.7842  0.2589
10825TIP3    H153890   2.135   0.026   2.283 -1.3392  1.1986  1.1965
10825TIP3    H253891   2.259   0.100   2.329  0.4417 -0.1168 -1.2386
10826TIP3   OH253892   6.130   4.267   3.010  0.0021  0.3021 -0.5169
10826TIP3    H153893   6.113   4.282   2.917 -0.1832  1.6620 -0.2899
10826TIP3    H253894   6.197   4.199   3.012  0.1548  0.3954 -1.6492
10827TIP3   OH253895   2.588   3.674   0.128  0.1245  0.4410 -0.5640
10827TIP3    H153896   2.648   3.620   0.179  0.4848  0.4018 -1.0365
10827TIP3    H253897   2.639   3.751   0.105 -0.8148  1.7402  1.4026
10828TIP3   OH253898   0.727   0.094   2.009 -0.4393  0.1564  0.1147
10828TIP3    H153899   0.714   0.123   1.918 -0.7705 -1.7762 -0.4978
10828TIP3    H253900   0.645   0.116   2.053 -0.3983  0.8121 -0.1241
10829TIP3   OH253901   4.041   3.867   0.769  0.2342  0.1033 -0.7304
10829TIP3    H153902   3.965   3.842   0.822  1.6137 -1.8416  0.4588
10829TIP3    H253903   4.038   3.962   0.767 -1.2312  0.1443  0.8195
10830TIP3   OH253904   0.523   3.845  12.158 -0.7080 -0.0053 -0.3446
10830TIP3    H153905   0.557   3.774  12.102 -3.0603 -0.5104 -1.2380
10830TIP3    H253906   0.481   3.800  12.231  1.6496  0.6442  1.5576
10831TIP3   OH253907   2.159   5.314   5.723  0.2338  0.2751 -0.1585
10831TIP3    H153908   2.249   5.323   5.756 -0.0122  0.5902  0.4349
10831TIP3    H253909   2.157   5.367   5.644  0.8740 -0.6153 -0.7992
10832TIP3   OH253910   4.887   5.512   1.189  0.2184 -0.5898 -0.2731
10832TIP3    H153911   4.871   5.590   1.137  0.1585  0.0660  0.6971
10832TIP3    H253912   4.878   5.439   1.128  0.6030  0.1797 -1.2665
10833TIP3   OH253913   3.985   2.136  14.170  0.0186 -0.2598 -0.3361
10833TIP3    H153914   3.985   2.043  14.145 -3.3277 -0.8673  1.3347
10833TIP3    H253915   3.901   2.169  14.140  0.9129  2.1530 -0.4197
10834TIP3   OH253916   3.287   3.705  12.338  0.5706 -0.6577 -0.1022
10834TIP3    H153917   3.308   3.613  12.319  0.8212 -0.3194 -1.5939
10834TIP3    H253918   3.203   3.720  12.293  0.9379  0.0622 -0.5631
10835TIP3   OH253919   4.761   4.332   4.434  0.4752 -0.7080 -0.2024
10835TIP3    H153920   4.717   4.269   4.377 -1.2114  0.0585  0.2059
10835TIP3    H253921   4.767   4.412   4.381 -0.5925 -0.1606  0.4723
10836TIP3   OH253922   6.242   5.914   5.692  0.0595 -0.0303  0.1160
10836TIP3    H153923   6.323   5.918   5.743  0.2754  1.0581 -0.2956
10836TIP3    H253924   6.243   5.826   5.653  0.9683 -0.0792  0.2272
10837TIP3   OH253925   6.353   3.956  13.963  0.7126 -0.6494 -0.6181
10837TIP3    H153926   6.339   4.033  13.910  0.0474 -0.9645 -0.9116
10837TIP3    H253927   6.336   3.985  14.053 -1.1851 -0.8227 -0.8769
10838TIP3   OH253928   3.274   2.936  11.602 -0.1325  0.6768 -0.2906
10838TIP3    H153929   3.224   2.971  11.528  0.1701  3.7115  0.8088
10838TIP3    H253930   3.348   2.996  11.612  0.6005 -0.4616  1.6246
10839TIP3   OH253931   3.762   5.675   4.657  1.1426  0.2762 -0.1713
10839TIP3    H153932   3.681   5.645   4.616  1.6522 -0.8436 -0.4015
10839TIP3    H253933   3.807   5.594   4.683  2.7198  0.8161 -1.0734
10840TIP3   OH253934   3.442   2.774  11.398 -0.0730 -0.2909  0.3202
10840TIP3    H153935   3.396   2.826  11.465 -1.1621  0.9040 -1.2638
10840TIP3    H253936   3.462   2.837  11.329  1.3843 -1.4102 -0.3180
10841TIP3   OH253937   0.285   2.399   3.214  0.0096  0.3217  0.1240
10841TIP3    H153938   0.276   2.451   3.294 -1.3846  0.4139 -0.0705
10841TIP3    H253939   0.261   2.310   3.241  1.5438 -0.0762  0.2585
10842TIP3   OH253940   0.215   0.744  15.126  0.3564  0.5741  0.9182
10842TIP3    H153941   0.244   0.835  15.131  1.2946  0.5119 -1.8541
10842TIP3    H253942   0.296   0.693  15.133 -0.0606 -0.0191  1.5058
10843TIP3   OH253943   5.415   1.788   2.795  0.2766 -0.3558 -0.0633
10843TIP3    H153944   5.331   1.824   2.823 -0.7648 -2.1030 -0.7867
10843TIP3    H253945   5.480   1.840   2.842 -1.2047  0.8402  0.7538
10844TIP3   OH253946   5.430   6.002   4.488 -0.1671  0.3673 -0.5165
10844TIP3    H153947   5.407   5.971   4.401  1.0906 -0.1706 -0.6759
10844TIP3    H253948   5.519   5.968   4.503 -0.8326 -0.6458  1.4859
10845TIP3   OH253949   2.507   3.878   0.816  0.2291 -0.4169  0.2833
10845TIP3    H153950   2.533   3.954   0.764 -1.6987  0.4239  0.4599
10845TIP3    H253951   2.513   3.804   0.756  1.3241 -0.0039 -0.1315
10846TIP3   OH253952   2.508   0.051  13.234  0.0079  0.2972  0.2270
10846TIP3    H153953   2.563  -0.027  13.226 -0.0666  0.2357  0.3176
10846TIP3    H253954   2.425   0.019  13.270 -0.1068  0.3814  0.0429
10847TIP3   OH253955   3.199   6.621  15.741 -0.5827 -0.4414 -0.1298
10847TIP3    H153956   3.257   6.562  15.693  0.6214  0.5937 -0.0067
10847TIP3    H253957   3.113   6.579  15.737  0.0316 -1.6841 -0.9016
10848TIP3   OH253958   6.110   5.252   4.309 -0.2220 -0.3520  0.2865
10848TIP3    H153959   6.088   5.342   4.284  2.0294  0.0349 -0.6249
10848TIP3    H253960   6.122   5.207   4.225 -0.7444 -1.3551  0.7378
10849TIP3   OH253961   6.716   0.769   5.775  0.7067 -0.2580  0.5143
10849TIP3    H153962   6.740   0.813   5.857  0.9060 -1.1889  0.9649
10849TIP3    H253963   6.746   0.679   5.787 -0.8285 -0.8378  0.1092
10850TIP3   OH253964   4.952   1.748  17.391  1.2829  0.5271  0.2359
10850TIP3    H153965   4.878   1.808  17.399  2.0816  1.7439 -1.0188
10850TIP3    H253966   5.022   1.790  17.441  1.2590 -0.4456  1.1222
10851TIP3   OH253967   5.716   5.066  13.708  0.4334 -0.9463  0.0435
10851TIP3    H153968   5.802   5.024  13.716  0.6303 -0.4388  0.7397
10851TIP3    H253969   5.737   5.154  13.675  0.1711 -0.8563  0.1199
10852TIP3   OH253970   6.412   5.908   2.794  0.0770  0.3784 -0.2693
10852TIP3    H153971   6.356   5.852   2.740 -1.2411  2.3211 -1.0226
10852TIP3    H253972   6.360   5.986   2.810  1.1112  0.6449  2.3620
10853TIP3   OH253973   3.006   1.471   3.794 -0.3660  0.3006  0.0928
10853TIP3    H153974   3.040   1.412   3.728 -1.8776  0.2229 -0.6512
10853TIP3    H253975   2.925   1.430   3.824  0.4507  0.1534  2.2799
10854TIP3   OH253976   2.503   6.009   1.862  0.1133  0.1417 -0.3119
10854TIP3    H153977   2.421   5.988   1.817 -0.4995  1.0439  0.3358
10854TIP3    H253978   2.506   5.948   1.935 -1.1445  1.5106  0.9662
10855TIP3   OH253979   6.734   1.092   1.296 -0.4622 -0.3718 -0.5908
10855TIP3    H153980   6.773   1.156   1.355 -1.8597  1.3994 -1.4806
10855TIP3    H253981   6.673   1.043   1.351 -0.5405  0.1415 -0.2141
10856TIP3   OH253982   4.730   5.245  14.942  0.1033  0.0318  0.1089
10856TIP3    H153983   4.714   5.153  14.924 -0.5931  0.3021 -0.7436
10856TIP3    H253984   4.704   5.257  15.033 -1.8233 -0.1893 -0.3665
10857TIP3   OH253985   6.389   5.475  16.823  0.5891  0.4483  0.6125
10857TIP3    H153986   6.368   5.416  16.751 -3.1917  2.4522 -0.1572
10857TIP3    H253987   6.352   5.434  16.901 -0.4705  0.9199  0.3738
10858TIP3   OH253988   6.353   5.359  16.464 -0.4267 -0.2528  0.1953
10858TIP3    H153989   6.301   5.340  16.386 -0.7031  0.3755  0.2199
10858TIP3    H253990   6.440   5.378  16.430 -0.9966  2.0620 -0.2063
10859TIP3   OH253991   5.562   2.189  11.508 -0.0627  0.1791  0.1205
10859TIP3    H153992   5.579   2.110  11.457  0.9897 -0.2932  1.1627
10859TIP3    H253993   5.513   2.245  11.449 -0.0758 -0.9038 -0.9367
10860TIP3   OH253994   1.268   4.131  10.744  0.6184 -0.4570 -0.0768
10860TIP3    H153995   1.343   4.146  10.803 -0.6784  1.2650  1.2764
10860TIP3    H253996   1.296   4.059  10.688  2.1409 -1.9411  2.3575
10861TIP3   OH253997   2.798   0.090   0.211 -0.0608  0.6906 -0.0320
10861TIP3    H153998   2.759   0.091   0.124  0.2824 -0.2591 -0.2055
10861TIP3    H253999   2.887   0.059   0.197 -0.2842 -0.3524  0.7684
10862TIP3   OH254000   1.300   3.069   2.737  0.6938  0.2621  0.3842
10862TIP3    H154001   1.280   3.004   2.670 -1.4360 -0.1801  1.3562
10862TIP3    H254002   1.351   3.022   2.803 -0.8136 -0.4874  1.0706
10863TIP3   OH254003   1.552   0.461  16.027  0.7585 -0.7291  0.2692
10863TIP3    H154004   1.564   0.504  15.943 -1.2190  0.9084  0.7570
10863TIP3    H254005   1.640   0.452  16.062  1.3601  2.0760 -0.3000
10864TIP3   OH254006   4.492   0.018  14.249  0.0078 -0.2254  0.0724
10864TIP3    H154007   4.559   0.050  14.309 -1.1140 -0.5465  1.5685
10864TIP3    H254008   4.413   0.065  14.274 -0.8809 -1.6392  0.0396
10865TIP3   OH254009   3.816   6.427  13.620  0.2713 -0.4116  0.0261
10865TIP3    H154010   3.862   6.364  13.564 -0.8207 -2.4920  1.3441
10865TIP3    H254011   3.885   6.464  13.675  1.1746  0.8152 -1.7899
10866TIP3   OH254012   0.694   6.383  11.569  0.4931 -0.6607  0.6230
10866TIP3    H154013   0.632   6.387  11.496  0.2253 -0.3156  0.8669
10866TIP3    H254014   0.650   6.430  11.640  0.8792 -0.7364  0.9121
10867TIP3   OH254015   1.336   1.689   0.769 -0.5207  0.2524 -0.1198
10867TIP3    H154016   1.397   1.659   0.836  0.2980  1.7681 -0.1186
10867TIP3    H254017   1.320   1.781   0.791 -0.7616  0.5940 -1.5885
10868TIP3   OH254018   3.444   0.473   4.213  0.2380  0.4981 -0.2154
10868TIP3    H154019   3.518   0.440   4.162 -0.8359 -0.0692 -1.4725
10868TIP3    H254020   3.374   0.411   4.196 -0.1245  0.1504  2.1892
10869TIP3   OH254021   1.106   4.584  15.075  0.4679 -0.0538 -0.4630
10869TIP3    H154022   1.011   4.583  15.086  0.5806 -0.1351  0.6086
10869TIP3    H254023   1.119   4.574  14.980 -0.5988  0.8194 -0.7274
10870TIP3   OH254024   4.685   2.932  14.722  0.0059 -0.0757 -0.7291
10870TIP3    H154025   4.646   2.845  14.716 -0.5024  0.1909 -1.3389
10870TIP3    H254026   4.630   2.978  14.785  0.5757 -0.3411 -0.0147
10871TIP3   OH254027   0.661   0.763   3.187 -0.5375  0.0147  0.2583
10871TIP3    H154028   0.632   0.797   3.272  0.1448  1.5271 -0.0781
10871TIP3    H254029   0.750   0.797   3.177 -0.1519 -1.1715 -0.5324
10872TIP3   OH254030   0.568   0.645  14.179  0.2252 -0.4433  0.4095
10872TIP3    H154031   0.490   0.691  14.210 -0.4846 -2.5916  2.0965
10872TIP3    H254032   0.609   0.611  14.258  1.7644 -1.0351 -0.6011
10873TIP3   OH254033   6.584   6.512  12.810 -0.4326 -0.5101  0.3781
10873TIP3    H154034   6.559   6.479  12.724  2.0664 -0.5554 -0.4118
10873TIP3    H254035   6.622   6.598  12.793 -1.3928  0.2136  1.6785
10874TIP3   OH254036   4.317   5.102  13.261  0.2601 -0.2335 -0.1803
10874TIP3    H154037   4.412   5.111  13.263  0.1821  1.0100  2.0571
10874TIP3    H254038   4.289   5.124  13.350 -1.9284 -3.5421  0.1359
10875TIP3   OH254039   5.590   4.019  11.887 -0.3529  0.0590 -0.0322
10875TIP3    H154040   5.644   4.052  11.815 -2.0618  3.6758  0.1527
10875TIP3    H254041   5.500   4.035  11.859 -1.0981  0.4698  2.3694
10876TIP3   OH254042   6.708   3.434   3.558  0.4402 -0.0218  0.2907
10876TIP3    H154043   6.771   3.367   3.531  1.4206  1.3502 -1.0160
10876TIP3    H254044   6.703   3.494   3.484 -1.6578  0.4819  0.7713
10877TIP3   OH254045   6.206   6.711  15.810  0.1626 -0.1113  0.5381
10877TIP3    H154046   6.181   6.708  15.902 -1.1463  0.4578  0.2225
10877TIP3    H254047   6.191   6.622  15.778  0.5376 -0.2880  0.8556
10878TIP3   OH254048   6.274   6.587  17.214 -0.6523  0.2919 -0.0116
10878TIP3    H154049   6.207   6.656  17.222 -0.7850  0.1002  0.6205
10878TIP3    H254050   6.357   6.633  17.227 -0.6857  0.4641 -0.3968
10879TIP3   OH254051   3.039   4.380   5.659 -0.0633 -0.5522 -0.1744
10879TIP3    H154052   2.971   4.330   5.705 -0.7839 -0.3140 -0.9451
10879TIP3    H254053   3.047   4.336   5.574 -2.0420  1.6431 -1.6276
10880TIP3   OH254054   1.736   1.820   1.606 -0.4266  0.5587 -0.1266
10880TIP3    H154055   1.806   1.862   1.554 -0.3976  0.9089  0.1895
10880TIP3    H254056   1.776   1.807   1.692 -0.5075  0.0685 -0.1632
10881TIP3   OH254057   1.515   0.190   0.627 -0.4286 -0.8800 -0.0785
10881TIP3    H154058   1.422   0.205   0.646 -0.0898  0.7913  0.4245
10881TIP3    H254059   1.524   0.214   0.534 -0.0594  1.4789  0.5041
10882TIP3   OH254060   4.674   2.903   0.719 -0.1202 -0.2934 -0.1669
10882TIP3    H154061   4.592   2.891   0.768 -0.8699 -0.4697 -1.4054
10882TIP3    H254062   4.668   2.991   0.682  0.5899 -0.0307  0.3311
10883TIP3   OH254063   5.694   0.033  11.833  0.0982 -0.1763 -0.5691
10883TIP3    H154064   5.706   0.006  11.924 -1.9816  0.7028  0.0214
10883TIP3    H254065   5.773   0.082  11.812  1.2231 -1.5434  0.2977
10884TIP3   OH254066   4.038   6.021   5.912  0.1585  0.0506  0.4768
10884TIP3    H154067   4.100   6.055   5.848 -0.5637 -2.0117 -1.4316
10884TIP3    H254068   3.967   6.086   5.913  0.0062 -0.0655 -1.1206
10885TIP3   OH254069   4.585   5.479  12.119  0.2256 -0.1267 -0.0226
10885TIP3    H154070   4.588   5.500  12.026  0.5288 -0.2489 -0.0397
10885TIP3    H254071   4.494   5.453  12.135 -0.1128  1.0280 -0.0334
10886TIP3   OH254072   0.590   0.183  17.367 -0.0196  0.0891 -0.4013
10886TIP3    H154073   0.607   0.262  17.419  0.0160 -1.0825  1.4488
10886TIP3    H254074   0.571   0.115  17.432 -3.5248 -0.6630 -1.9709
10887TIP3   OH254075   3.248   5.820   5.516  0.2226 -0.2785  0.6308
10887TIP3    H154076   3.188   5.811   5.443  0.2486  1.4287  0.3576
10887TIP3    H254077   3.198   5.790   5.592 -1.4862  2.1778  0.6110
10888TIP3   OH254078   5.465   0.393   2.111 -0.2609  0.6603 -0.1015
10888TIP3    H154079   5.438   0.304   2.136 -0.7064  0.6981 -0.4479
10888TIP3    H254080   5.453   0.396   2.017 -1.2324  1.4247  0.0436
10889TIP3   OH254081   4.857   0.358   3.468 -0.2343 -0.6669 -0.3268
10889TIP3    H154082   4.883   0.300   3.540 -0.9194  0.6145  1.0081
10889TIP3    H254083   4.828   0.438   3.511 -0.0588  0.3971 -2.0796
10890TIP3   OH254084   1.476   2.807   2.235  0.3889 -0.4833 -0.1510
10890TIP3    H154085   1.392   2.808   2.281  0.8601 -1.2366  0.7560
10890TIP3    H254086   1.520   2.886   2.264  0.7644 -1.0537  0.8805
10891TIP3   OH254087   5.516   2.349  13.314  0.2103 -0.2557  0.3162
10891TIP3    H154088   5.476   2.436  13.306  1.0772  0.2207  1.0013
10891TIP3    H254089   5.595   2.354  13.259  1.4802  0.1634  2.1031
10892TIP3   OH254090   4.588   1.155   4.156  0.2595  0.6016 -0.1743
10892TIP3    H154091   4.543   1.134   4.074 -0.2456  6.6519 -1.9197
10892TIP3    H254092   4.680   1.133   4.139  0.0181  0.8503 -2.1116
10893TIP3   OH254093   6.085   1.362  16.390 -0.2882  0.0605 -0.4083
10893TIP3    H154094   6.055   1.415  16.464 -2.2931  0.0661 -1.1653
10893TIP3    H254095   6.115   1.281  16.429  2.1684  1.3826  0.7076
10894TIP3   OH254096   1.736   2.704  14.599  0.0249  0.4520  0.0606
10894TIP3    H154097   1.676   2.630  14.595 -0.2724  0.5861  1.4718
10894TIP3    H254098   1.688   2.776  14.559  0.5773 -0.2401 -1.9688
10895TIP3   OH254099   0.694   2.130  13.293  0.3733  0.3575  0.2032
10895TIP3    H154100   0.642   2.194  13.245 -0.9898 -1.4962 -0.9306
10895TIP3    H254101   0.761   2.102  13.230 -1.2042 -1.8198 -0.6719
10896TIP3   OH254102   4.142   0.384   0.056  0.1106  0.1710 -0.2266
10896TIP3    H154103   4.133   0.478   0.074  2.0595  0.3367  0.1763
10896TIP3    H254104   4.210   0.355   0.117 -1.2065 -1.7697  0.4187
10897TIP3   OH254105   5.667   5.538   6.082  0.1102  0.2170 -0.1566
10897TIP3    H154106   5.738   5.601   6.073  0.1670  0.1978  0.1656
10897TIP3    H254107   5.675   5.483   6.004 -0.9582  1.6237 -1.3050
10898TIP3   OH254108   3.148   0.847   0.866  0.5443  0.3113  0.0536
10898TIP3    H154109   3.200   0.787   0.812 -0.6047  0.7828 -1.6373
10898TIP3    H254110   3.189   0.841   0.953  3.1921  0.3731 -1.0759
10899TIP3   OH254111   6.161   0.216  15.423  0.1488  0.5529 -0.8454
10899TIP3    H154112   6.192   0.275  15.493 -1.3789 -0.7810  1.0721
10899TIP3    H254113   6.225   0.145  15.422 -1.1258 -0.7243  1.0837
10900TIP3   OH254114   3.458   2.936   0.257 -0.0694 -0.2447  0.1273
10900TIP3    H154115   3.453   2.950   0.351 -0.1650 -0.9286  0.2265
10900TIP3    H254116   3.540   2.979   0.231  0.5535 -1.0455  0.7131
10901TIP3   OH254117   5.763   2.496  15.948 -0.2046  0.3039 -0.4804
10901TIP3    H154118   5.717   2.536  16.021  0.1493  0.9795 -0.6217
10901TIP3    H254119   5.856   2.504  15.970 -0.1350 -1.2352 -0.0962
10902TIP3   OH254120   1.923   3.016  12.161  0.1844 -0.1063 -0.0461
10902TIP3    H154121   1.995   3.077  12.176 -0.9956  1.3694 -0.1422
10902TIP3    H254122   1.850   3.071  12.133 -0.7294 -1.6558 -0.8505
10903TIP3   OH254123   0.936   5.479   2.072 -0.1272  0.3194 -0.1528
10903TIP3    H154124   0.876   5.453   2.142  0.6384 -0.3058  0.2827
10903TIP3    H254125   1.009   5.520   2.118 -0.2977  1.2518 -0.6964
10904TIP3   OH254126   5.631   5.655   1.020  0.2404 -0.0638  0.2254
10904TIP3    H154127   5.720   5.639   0.989 -0.1833 -0.4225 -0.8676
10904TIP3    H254128   5.642   5.701   1.103  1.4423 -0.2891  0.2080
10905TIP3   OH254129   0.930   1.938   3.520  0.0190  0.1746  0.1346
10905TIP3    H154130   0.874   1.940   3.597  0.6121  1.5556  0.5562
10905TIP3    H254131   0.923   1.848   3.487 -0.4902 -0.3450  1.6058
10906TIP3   OH254132   5.830   3.056  15.901  0.7760 -0.0110  0.5114
10906TIP3    H154133   5.826   2.972  15.855  2.0894  0.7599 -1.0944
10906TIP3    H254134   5.918   3.090  15.882  0.2465  1.7652  1.0645
10907TIP3   OH254135   6.561   2.731   4.514 -0.6691 -0.4198  0.7822
10907TIP3    H154136   6.575   2.744   4.420  0.5059 -1.7523  0.7375
10907TIP3    H254137   6.487   2.788   4.535 -0.2930  0.7000 -0.7244
10908TIP3   OH254138   5.990   4.928   2.734 -0.2717  0.1465 -0.3937
10908TIP3    H154139   5.897   4.946   2.716  0.1113  1.4942 -1.1649
10908TIP3    H254140   6.012   4.987   2.807 -0.3654 -1.2219  0.7821
10909TIP3   OH254141   4.913   0.193   4.563  0.0201 -0.4866  0.1222
10909TIP3    H154142   4.837   0.187   4.621 -1.4286 -0.8641 -1.7148
10909TIP3    H254143   4.965   0.115   4.584 -1.3643 -1.5557 -0.2456
10910TIP3   OH254144   0.046   5.353   1.623 -0.2222 -0.1565  0.2110
10910TIP3    H154145   0.077   5.262   1.624 -1.6584 -0.6839 -0.4041
10910TIP3    H254146  -0.049   5.345   1.620 -0.3471  1.3398 -2.0800
10911TIP3   OH254147   3.040   1.976   4.596 -0.0488  0.4018  0.1291
10911TIP3    H154148   2.981   2.011   4.529  0.4467 -1.0416 -1.1196
10911TIP3    H254149   3.106   2.045   4.607  1.3011 -0.2461 -2.7733
10912TIP3   OH254150   5.733   0.990   5.895 -0.3072  0.8285  0.5349
10912TIP3    H154151   5.767   0.944   5.971 -0.6862 -1.1002 -0.4050
10912TIP3    H254152   5.739   0.927   5.823  0.3358  2.6796 -1.1436
10913TIP3   OH254153   6.680   2.993  12.304 -0.0646  0.3892 -0.7425
10913TIP3    H154154   6.671   2.928  12.234 -1.1102 -0.7060  0.3669
10913TIP3    H254155   6.633   3.070  12.272  0.8626  0.5035 -1.9061
10914TIP3   OH254156   4.570   0.231  17.256  0.3355 -0.0980  0.1836
10914TIP3    H154157   4.576   0.323  17.229 -0.9597 -0.2309 -0.6058
10914TIP3    H254158   4.603   0.182  17.181 -0.5421 -0.3455 -0.0460
10915TIP3   OH254159   4.726   3.518  11.633 -0.6551  0.0887 -0.0524
10915TIP3    H154160   4.661   3.474  11.579  0.1389 -0.3047 -0.7143
10915TIP3    H254161   4.733   3.605  11.595  0.5871 -0.4856 -1.2255
10916TIP3   OH254162   6.187   3.608  14.546  0.0225  0.1914 -0.6056
10916TIP3    H154163   6.107   3.628  14.497 -1.4918 -3.1453  0.2376
10916TIP3    H254164   6.250   3.581  14.479 -0.8005 -0.7547 -1.0147
10917TIP3   OH254165   1.538   6.607   4.328  0.2692  0.4895  0.1889
10917TIP3    H154166   1.520   6.557   4.248 -3.1592  1.5911  0.1262
10917TIP3    H254167   1.485   6.564   4.396  3.4827 -0.7465  2.1449
10918TIP3   OH254168   1.887   0.661   4.999 -0.7508 -0.2897 -0.0301
10918TIP3    H154169   1.915   0.749   4.974  0.8053 -0.8465 -0.3399
10918TIP3    H254170   1.880   0.665   5.094  0.1849 -0.0636  0.0376
10919TIP3   OH254171   2.703   4.632   5.270 -0.0352 -0.0997  0.3470
10919TIP3    H154172   2.644   4.586   5.329 -0.7567  0.5255  0.1335
10919TIP3    H254173   2.720   4.716   5.313 -1.2339  0.7147 -0.6591
10920TIP3   OH254174   5.438   3.355   3.020  0.4182  0.0711 -0.2320
10920TIP3    H154175   5.502   3.346   2.949  0.5222 -1.7535  0.0286
10920TIP3    H254176   5.430   3.266   3.055 -1.7541  0.3868  0.1888
10921TIP3   OH254177   1.178   4.183  16.595  0.1519 -0.1040 -0.2274
10921TIP3    H154178   1.147   4.093  16.603  2.1133 -0.7050  1.6477
10921TIP3    H254179   1.235   4.183  16.518 -0.6902 -0.1860 -0.8543
10922TIP3   OH254180   0.771   5.757   5.475 -0.1367 -0.0807 -0.0701
10922TIP3    H154181   0.791   5.663   5.479  1.4682  0.2594  0.6070
10922TIP3    H254182   0.846   5.795   5.430 -1.2909  0.7681 -1.3509
10923TIP3   OH254183   4.201   2.381  11.677  0.1396  0.0623 -0.0751
10923TIP3    H154184   4.153   2.436  11.739  0.1836 -0.9256  0.8662
10923TIP3    H254185   4.144   2.306  11.662  0.6727 -0.3185 -0.2419
10924TIP3   OH254186   2.585   3.967  16.719  0.1761  0.6389  0.1933
10924TIP3    H154187   2.549   3.975  16.631 -1.2963  0.2849  0.7413
10924TIP3    H254188   2.601   4.057  16.747 -0.8986  0.8463  0.1692
10925TIP3   OH254189   1.867   0.433   1.992 -0.1827  0.5874  0.4636
10925TIP3    H154190   1.834   0.506   2.045 -1.2198 -0.4891  1.3488
10925TIP3    H254191   1.824   0.356   2.028  0.3098 -0.3833 -0.9410
10926TIP3   OH254192   2.643   4.966   3.720 -0.5596 -0.0502 -0.1043
10926TIP3    H154193   2.655   5.019   3.641  0.3579 -1.7521 -1.1515
10926TIP3    H254194   2.674   5.023   3.791 -1.1840  1.4224 -0.9685
10927TIP3   OH254195   2.834   2.544   4.868 -0.2355 -0.7573  0.0082
10927TIP3    H154196   2.865   2.614   4.811 -0.4076 -0.3091  0.4592
10927TIP3    H254197   2.740   2.538   4.852 -0.3677 -0.3109  0.5783
10928TIP3   OH254198   4.919   0.027   2.998 -0.3655  0.5674  0.0921
10928TIP3    H154199   4.917   0.123   2.993  0.5755  0.6327  0.7057
10928TIP3    H254200   5.000   0.007   3.044 -0.6944 -0.5241  0.2319
10929TIP3   OH254201   4.092   6.251   5.332 -0.1241 -0.0003 -0.2308
10929TIP3    H154202   4.185   6.229   5.345 -0.2066 -0.1231  0.1929
10929TIP3    H254203   4.086   6.342   5.359 -0.3678 -0.3614  1.0434
10930TIP3   OH254204   0.138   6.714   4.697  0.1909  0.6191 -0.9422
10930TIP3    H154205   0.078   6.700   4.771  2.1569  1.9884  1.0315
10930TIP3    H254206   0.116   6.801   4.665  0.0744  0.4676 -1.2827
10931TIP3   OH254207   2.705   6.440   6.071 -0.0577 -0.9806 -0.2616
10931TIP3    H154208   2.681   6.441   6.164  1.0391 -2.4789  0.0716
10931TIP3    H254209   2.758   6.519   6.059  1.3039 -1.6775  0.8533
10932TIP3   OH254210   2.049   2.336  17.080 -0.1189 -0.9421 -0.1936
10932TIP3    H154211   2.143   2.321  17.092  0.2801  0.0821 -1.6815
10932TIP3    H254212   2.016   2.355  17.168  1.4763  0.6765  0.1149
10933TIP3   OH254213   6.151   2.276   3.813  0.8393  0.0337  0.0379
10933TIP3    H154214   6.152   2.276   3.908 -3.2011  2.4660  0.2940
10933TIP3    H254215   6.102   2.198   3.789  1.8422 -0.5698 -0.1039
10934TIP3   OH254216   5.867   5.661   5.935 -0.0336  0.4749 -0.3587
10934TIP3    H154217   5.935   5.595   5.942 -2.5232 -2.3703 -1.0507
10934TIP3    H254218   5.876   5.695   5.846 -0.0760 -0.5911 -0.7886
10935TIP3   OH254219   0.758   0.343  11.360  0.2824  0.3155  0.5647
10935TIP3    H154220   0.771   0.393  11.440 -2.2384  1.1817  0.4971
10935TIP3    H254221   0.831   0.370  11.304  1.0423  1.0965  1.8672
10936TIP3   OH254222   5.316   0.371   4.868  0.4899  0.3514  1.0476
10936TIP3    H154223   5.247   0.353   4.804  0.7950  0.8680  0.5579
10936TIP3    H254224   5.358   0.451   4.835  0.5842  0.6823  1.9530
10937TIP3   OH254225   3.135   1.301   3.626 -0.0117 -0.6686 -0.2675
10937TIP3    H154226   3.229   1.294   3.638  0.1621  0.9087 -0.3926
10937TIP3    H254227   3.113   1.235   3.561  1.1201 -0.5894 -0.7488
10938TIP3   OH254228   0.770   1.849   2.955 -0.2727 -0.4269 -0.5947
10938TIP3    H154229   0.810   1.925   2.998  0.0764  0.0460 -1.7379
10938TIP3    H254230   0.788   1.776   3.015  1.8061 -0.1233 -0.7640
10939TIP3   OH254231   3.530   5.364  16.540 -0.1209 -0.0224  0.5902
10939TIP3    H154232   3.622   5.389  16.530 -0.8168  1.8024 -2.9644
10939TIP3    H254233   3.481   5.439  16.506 -2.8573 -1.8023  0.2721
10940TIP3   OH254234   1.113   6.423  16.743  0.5077 -0.3740 -0.0135
10940TIP3    H154235   1.163   6.473  16.678 -0.0156  1.5179  0.9568
10940TIP3    H254236   1.173   6.355  16.773  1.6080  0.2719 -0.7008
10941TIP3   OH254237   3.001   3.337   1.518 -0.0125 -0.4449  0.2389
10941TIP3    H154238   2.982   3.353   1.426  0.0004  0.7963  0.4350
10941TIP3    H254239   3.018   3.243   1.523  2.4573 -0.1763 -1.4692
10942TIP3   OH254240   4.442   2.522   4.855  0.9849  0.1134 -0.0441
10942TIP3    H154241   4.354   2.537   4.821  1.6828 -0.1053 -2.0790
10942TIP3    H254242   4.477   2.451   4.801  1.2807 -2.1767  2.9063
10943TIP3   OH254243   5.895   1.058  13.952 -0.2969 -0.2272 -0.2955
10943TIP3    H154244   5.927   1.092  14.036 -0.5438  1.1140 -0.7283
10943TIP3    H254245   5.806   1.091  13.945 -0.2878 -0.3466 -1.0752
10944TIP3   OH254246   2.879   0.994   2.657 -0.1757  0.5911 -0.0490
10944TIP3    H154247   2.816   0.961   2.593  0.5375  1.2776 -1.1318
10944TIP3    H254248   2.935   1.054   2.607  2.2169 -1.0155  0.5643
10945TIP3   OH254249   2.062   4.322   5.233  0.4835 -0.2220  0.0972
10945TIP3    H154250   2.082   4.362   5.148  1.1133 -0.3573  0.1775
10945TIP3    H254251   2.096   4.233   5.226  1.1425 -0.0262  0.7230
10946TIP3   OH254252   3.615   4.320   5.102  0.1833  0.4814 -0.3906
10946TIP3    H154253   3.636   4.317   5.008 -0.2857 -0.0495 -0.4855
10946TIP3    H254254   3.671   4.252   5.140  1.8118  1.9962  0.0261
10947TIP3   OH254255   0.976   2.357  15.580 -0.0765 -0.3616  0.2907
10947TIP3    H154256   0.942   2.333  15.495  0.3712 -1.0316  0.2938
10947TIP3    H254257   1.033   2.432  15.563  1.3252 -1.5163 -0.2651
10948TIP3   OH254258   4.882   2.945   4.378  0.0089 -0.1725  0.0886
10948TIP3    H154259   4.844   2.859   4.400 -3.5552  1.4673  1.2080
10948TIP3    H254260   4.860   2.957   4.286  0.1283 -0.2894  0.0446
10949TIP3   OH254261   4.394   1.701   0.370 -0.1859  0.1190  0.9135
10949TIP3    H154262   4.321   1.688   0.431  0.0444 -2.2365  0.7741
10949TIP3    H254263   4.353   1.736   0.291 -0.5901  2.4846  2.0800
10950TIP3   OH254264   4.900   0.000   6.452  0.1591  0.0773 -0.4521
10950TIP3    H154265   4.893  -0.094   6.464 -0.5205  0.1358 -0.3663
10950TIP3    H254266   4.994   0.016   6.441  0.1438 -0.8521 -2.4063
10951TIP3   OH254267   0.281   6.160   3.456 -0.0098  0.6119 -0.5686
10951TIP3    H154268   0.224   6.102   3.406 -0.6800  1.1728 -0.4793
10951TIP3    H254269   0.348   6.103   3.493 -0.4024 -0.0347 -0.8420
10952TIP3   OH254270   2.298   6.543  12.026 -0.5569  0.7300  0.5111
10952TIP3    H154271   2.276   6.560  11.934 -0.8123 -2.5680 -0.1811
10952TIP3    H254272   2.342   6.458  12.025  1.3817  1.5355  3.2724
10953TIP3   OH254273   2.886   1.825   1.375  0.3462  0.3910  0.1838
10953TIP3    H154274   2.852   1.783   1.296  1.3049 -0.1858  0.0622
10953TIP3    H254275   2.889   1.755   1.440  2.6777  0.0225 -0.2391
10954TIP3   OH254276   5.597   2.454   5.723 -0.8456 -0.0111  0.5868
10954TIP3    H154277   5.674   2.506   5.700 -0.3742  0.2793  2.5948
10954TIP3    H254278   5.630   2.388   5.784 -1.6365 -2.0244 -1.0270
10955TIP3   OH254279   3.607   5.978   3.533 -0.3756  0.5760  0.3162
10955TIP3    H154280   3.620   6.071   3.551 -0.0598  0.4451  0.8137
10955TIP3    H254281   3.695   5.941   3.534 -0.4873  0.2940 -0.0158
10956TIP3   OH254282   3.714   0.069   0.297  0.0753  0.2317  0.2404
10956TIP3    H154283   3.686  -0.000   0.357 -0.1197 -0.2388 -0.3735
10956TIP3    H254284   3.635   0.089   0.246  0.6889 -0.7878 -1.2063
10957TIP3   OH254285   1.678   1.320   5.303 -0.3277 -0.8603  0.3326
10957TIP3    H154286   1.700   1.284   5.388  0.0439 -0.9737  0.1916
10957TIP3    H254287   1.614   1.259   5.266 -1.2423 -0.2784  0.9422
10958TIP3   OH254288   3.462   0.238  15.048 -0.1235  0.0455 -1.0185
10958TIP3    H154289   3.492   0.317  15.003  0.4738 -0.3665 -1.3639
10958TIP3    H254290   3.477   0.257  15.141  0.4146  0.1739 -1.1292
10959TIP3   OH254291   4.376   4.944  15.774  0.4720 -0.2150 -0.8069
10959TIP3    H154292   4.374   4.876  15.841 -1.8500  0.2925 -0.2474
10959TIP3    H254293   4.421   5.017  15.815 -1.6849  0.4060  0.6248
10960TIP3   OH254294   2.558   1.077  10.898 -0.2323 -0.3080  0.4910
10960TIP3    H154295   2.500   1.135  10.947  0.0651 -1.2554  2.0156
10960TIP3    H254296   2.646   1.111  10.914 -0.2417  0.4161 -0.8512
10961TIP3   OH254297   1.726   5.860  15.589  0.6716  0.2916  0.2505
10961TIP3    H154298   1.651   5.858  15.529  0.8151 -1.6242  0.0776
10961TIP3    H254299   1.688   5.858  15.676  0.4948 -1.0513  0.1610
10962TIP3   OH254300   4.625   3.772   5.674 -0.5583 -0.0388 -0.3933
10962TIP3    H154301   4.693   3.805   5.616 -0.0339  1.4300  0.9966
10962TIP3    H254302   4.668   3.702   5.723 -0.1808  0.5557  0.1350
10963TIP3   OH254303   4.390   0.165   1.992  0.3808  0.5732 -0.1118
10963TIP3    H154304   4.314   0.116   2.022  1.7333 -2.1877 -0.8646
10963TIP3    H254305   4.434   0.191   2.073  1.3966 -2.5403  0.4867
10964TIP3   OH254306   5.235   1.783  17.266  0.3612  0.9241  0.1738
10964TIP3    H154307   5.193   1.748  17.345 -0.3639  0.8927 -0.2192
10964TIP3    H254308   5.278   1.863  17.295 -0.1643  1.0762  0.5394
10965TIP3   OH254309   1.992   3.048   4.456  0.1077 -0.3095  0.0362
10965TIP3    H154310   2.057   2.995   4.410  0.5721 -0.4216  0.8148
10965TIP3    H254311   2.027   3.059   4.544  0.1780  1.5733 -0.1947
10966TIP3   OH254312   4.295   0.901  12.463 -0.2863 -0.5391 -0.3980
10966TIP3    H154313   4.269   0.821  12.509 -0.4072 -0.2337  0.0741
10966TIP3    H254314   4.360   0.942  12.521  0.3429 -0.6773 -0.9914
10967TIP3   OH254315   5.611   5.288   1.181 -0.3494  0.5507  0.1268
10967TIP3    H154316   5.589   5.196   1.192 -0.4044  0.7151  1.6613
10967TIP3    H254317   5.541   5.335   1.226  0.7724  1.2500  1.2065
10968TIP3   OH254318   5.500   1.255   2.912  0.5008 -0.1116  0.2113
10968TIP3    H154319   5.406   1.267   2.928  0.1692 -0.6354 -1.1654
10968TIP3    H254320   5.507   1.245   2.817  1.9085 -0.5146  0.3274
10969TIP3   OH254321   1.180   1.443   2.062  0.8152 -1.0435 -0.5161
10969TIP3    H154322   1.213   1.355   2.077  2.0370 -0.4344  0.6989
10969TIP3    H254323   1.211   1.493   2.138 -2.0967 -0.1498  0.2216
10970TIP3   OH254324   2.481   1.584  15.850 -0.0496 -0.0439 -0.1752
10970TIP3    H154325   2.503   1.677  15.852  0.3300 -0.0500 -2.0048
10970TIP3    H254326   2.498   1.553  15.939  1.0852  1.3543  0.1294
10971TIP3   OH254327   6.235   1.349  15.794  0.1095 -0.3336  0.2323
10971TIP3    H154328   6.140   1.336  15.798 -0.2074  1.1634 -1.3999
10971TIP3    H254329   6.260   1.370  15.884 -0.9697 -1.4295  0.8199
10972TIP3   OH254330   4.948   2.287  10.873 -0.4038  0.2365  0.5672
10972TIP3    H154331   4.935   2.195  10.849  0.5675 -0.4923  2.6749
10972TIP3    H254332   4.866   2.312  10.915  0.1876 -0.4304  2.1727
10973TIP3   OH254333   2.771   2.439  15.749  0.1293  0.3645  0.2447
10973TIP3    H154334   2.768   2.473  15.839  1.6977  2.4467 -0.4124
10973TIP3    H254335   2.795   2.515  15.695  0.4287 -1.0894 -1.7876
10974TIP3   OH254336   4.189   4.411  11.777 -0.3427 -0.4745 -0.2866
10974TIP3    H154337   4.118   4.381  11.720  0.1180 -1.4212 -0.3833
10974TIP3    H254338   4.148   4.425  11.862 -1.3695  2.4442 -1.1520
10975TIP3   OH254339   5.881   2.443   1.013  0.1942  0.3725 -0.2610
10975TIP3    H154340   5.869   2.504   1.085 -0.6519  0.4398 -0.4522
10975TIP3    H254341   5.809   2.380   1.021  1.1412 -0.7137  0.0315
10976TIP3   OH254342   4.517   6.568   1.396  0.3650 -0.4504 -0.5870
10976TIP3    H154343   4.482   6.530   1.315 -1.0346 -0.2633 -0.0970
10976TIP3    H254344   4.606   6.535   1.402 -0.2399 -2.2617 -1.0571
10977TIP3   OH254345   2.509   4.146   4.192 -0.5291 -0.3561 -0.0829
10977TIP3    H154346   2.460   4.090   4.131  0.9147 -0.9034 -0.7789
10977TIP3    H254347   2.461   4.139   4.275 -0.8956 -1.8930 -0.4009
10978TIP3   OH254348   2.599   5.566   5.607  0.0126  0.6256  0.3819
10978TIP3    H154349   2.631   5.645   5.650 -0.1609  1.4837 -0.9838
10978TIP3    H254350   2.504   5.579   5.599  0.0537  0.5443 -0.3287
10979TIP3   OH254351   5.415   1.969   0.825 -0.0303 -0.6090 -0.3675
10979TIP3    H154352   5.401   1.944   0.733 -3.1849 -0.2424 -0.1004
10979TIP3    H254353   5.403   2.064   0.826 -1.1654 -0.7356  0.5315
10980TIP3   OH254354   6.250   1.989  12.047  0.2861  0.2149  0.0701
10980TIP3    H154355   6.169   2.013  12.002  0.8873  0.9449 -0.6609
10980TIP3    H254356   6.228   1.912  12.098 -0.2726 -1.0462 -1.9701
10981TIP3   OH254357   5.070   6.719   1.821 -0.5835  0.4253 -0.0239
10981TIP3    H154358   4.982   6.693   1.848 -0.7563 -0.7522 -1.5530
10981TIP3    H254359   5.126   6.698   1.896 -1.1255 -2.0647 -0.2191
10982TIP3   OH254360   1.447   2.356  15.600 -0.0129  0.2292  0.2558
10982TIP3    H154361   1.405   2.411  15.534 -0.9598 -1.1694 -0.3740
10982TIP3    H254362   1.528   2.326  15.558 -0.5342 -0.5278 -0.2378
10983TIP3   OH254363   2.972   5.738  16.058  0.6870  0.5611  0.4882
10983TIP3    H154364   2.918   5.718  15.981  0.6449  0.2480  0.5995
10983TIP3    H254365   2.909   5.758  16.127  0.7297  1.2209  0.3448
10984TIP3   OH254366   5.752   6.352   1.951  0.2857 -0.0914  0.1190
10984TIP3    H154367   5.801   6.408   2.011 -0.2642 -1.3425  1.8116
10984TIP3    H254368   5.811   6.339   1.876  1.0064  1.4795  0.3838
10985TIP3   OH254369   5.400   5.645   0.413  0.3162  0.1845  0.0453
10985TIP3    H154370   5.350   5.668   0.491 -1.9225  0.4060 -1.3449
10985TIP3    H254371   5.420   5.729   0.372  0.8352  0.0424 -0.0005
10986TIP3   OH254372   6.468   2.509  16.753 -0.3865 -0.2919  0.1374
10986TIP3    H154373   6.486   2.532  16.662 -0.4725  0.0291  0.2014
10986TIP3    H254374   6.554   2.486  16.789  0.2591  2.7923  0.8972
10987TIP3   OH254375   3.084   5.651   6.273 -0.1891  0.0470 -0.3085
10987TIP3    H154376   3.113   5.576   6.324 -3.2791 -0.0560  1.5445
10987TIP3    H254377   3.149   5.720   6.292  1.4303 -1.4389 -0.2381
10988TIP3   OH254378   6.223   5.732   1.542 -0.0734  0.0510 -0.5044
10988TIP3    H154379   6.283   5.786   1.490  0.5375 -0.7756 -0.6587
10988TIP3    H254380   6.252   5.642   1.528 -0.5046 -0.2568  0.5090
10989TIP3   OH254381   3.443   4.039  15.405  0.1928 -0.2546  0.0296
10989TIP3    H154382   3.357   4.050  15.446  0.0192 -1.3668  0.0047
10989TIP3    H254383   3.475   4.128  15.391 -0.1972  0.1769  1.6333
10990TIP3   OH254384   0.205   1.005   0.913 -0.3644  0.7303  0.0248
10990TIP3    H154385   0.227   0.915   0.889  0.2780  1.2696 -1.6168
10990TIP3    H254386   0.290   1.047   0.927 -0.7011  0.5962  2.9319
10991TIP3   OH254387   3.257   1.195  15.535  0.2431  0.2816 -0.1284
10991TIP3    H154388   3.190   1.168  15.598 -0.4585  3.2238  0.5717
10991TIP3    H254389   3.279   1.115  15.487 -1.4398 -1.4474  1.7596
10992TIP3   OH254390   0.849   4.081   4.094  0.1938 -0.2024 -0.3332
10992TIP3    H154391   0.831   4.007   4.153  1.6336  0.2493  0.7321
10992TIP3    H254392   0.915   4.048   4.034  0.5514  0.0939 -0.1046
10993TIP3   OH254393   0.955   1.153   3.966 -0.3688  0.3784  0.7058
10993TIP3    H154394   1.024   1.088   3.956 -1.0465 -0.1103 -1.1236
10993TIP3    H254395   0.967   1.187   4.055  1.5956 -0.3774  0.7804
10994TIP3   OH254396   4.137   5.554  14.536  0.1319  0.1587 -0.1884
10994TIP3    H154397   4.197   5.544  14.610  2.5096 -0.4961 -2.0863
10994TIP3    H254398   4.052   5.522  14.570  1.3329 -1.0131  1.9596
10995TIP3   OH254399   4.593   4.003   5.838  0.3406  0.1041 -0.4727
10995TIP3    H154400   4.580   3.967   5.750 -1.8381 -0.8954  0.2150
10995TIP3    H254401   4.600   3.927   5.895  0.5276  0.7498  0.3928
10996TIP3   OH254402   2.499   3.246  15.955 -0.2843 -0.2273  0.1699
10996TIP3    H154403   2.503   3.303  16.031 -1.2432 -0.7057  0.5973
10996TIP3    H254404   2.517   3.159  15.989  3.8993  0.0135 -0.8723
10997TIP3   OH254405   1.755   6.166  14.143 -0.2539  0.9798 -0.3639
10997TIP3    H154406   1.843   6.128  14.133 -0.7732 -0.0675 -1.1422
10997TIP3    H254407   1.705   6.098  14.188 -1.0111  1.0229 -1.1208
10998TIP3   OH254408   4.240   2.281  12.755  0.3060  0.0942  0.2028
10998TIP3    H154409   4.228   2.195  12.715  1.0559  0.1449 -0.1547
10998TIP3    H254410   4.212   2.344  12.688  1.1258  0.1644 -0.0879
10999TIP3   OH254411   6.424   3.913  16.310 -0.5135  0.6257 -0.1878
10999TIP3    H154412   6.467   3.858  16.244 -5.2530 -2.1297 -1.4708
10999TIP3    H254413   6.456   3.879  16.394  1.0431 -0.0603 -1.0136
11000TIP3   OH254414   0.045   2.265   2.805  0.1716  0.3899  0.2665
11000TIP3    H154415  -0.035   2.246   2.757  0.5052  1.6377 -0.8350
11000TIP3    H254416   0.040   2.209   2.883 -1.1054 -0.5468 -0.4471
11001TIP3   OH254417   4.482   4.841   4.444 -0.3809 -0.0094  0.3548
11001TIP3    H154418   4.405   4.877   4.400  1.1773  0.7506 -1.9040
11001TIP3    H254419   4.508   4.766   4.392 -0.1939 -0.9475  1.7318
11002TIP3   OH254420   4.079   1.599  11.658 -0.1970 -0.7254  0.1066
11002TIP3    H154421   3.994   1.617  11.699 -1.2516  0.3552 -2.3585
11002TIP3    H254422   4.058   1.548  11.580  1.3425 -0.0015 -0.8246
11003TIP3   OH254423   2.776   6.155  16.707 -0.0172  0.1589 -0.6391
11003TIP3    H154424   2.717   6.106  16.650  1.3705 -0.2463 -1.7831
11003TIP3    H254425   2.863   6.134  16.675  0.6710  2.9773 -0.8568
11004TIP3   OH254426   6.213   2.615  16.369 -0.4324  0.3485 -0.4968
11004TIP3    H154427   6.248   2.553  16.306 -1.6734 -0.1988 -0.6790
11004TIP3    H254428   6.262   2.696  16.354  0.5313 -0.2979 -0.9132
11005TIP3   OH254429   4.286   4.157  12.512 -0.0920 -0.0005 -0.1660
11005TIP3    H154430   4.210   4.183  12.461  0.0079  3.2458  1.1381
11005TIP3    H254431   4.256   4.161  12.603  1.4588  0.7712  0.3399
11006TIP3   OH254432   3.891   4.061  14.412  0.4364 -0.1270  0.3657
11006TIP3    H154433   3.979   4.088  14.438  0.8500 -1.3126  0.2463
11006TIP3    H254434   3.902   4.030  14.322 -0.6592  2.4071 -0.7254
11007TIP3   OH254435   5.048   1.745  14.201 -0.2312  0.6474  0.4029
11007TIP3    H154436   5.014   1.744  14.112 -0.4364  1.3440  0.4666
11007TIP3    H254437   4.971   1.731  14.256 -0.2915  1.3956  0.5143
11008TIP3   OH254438   2.964   6.393  17.067  0.2481 -0.6166  1.1151
11008TIP3    H154439   2.944   6.300  17.074 -1.4192 -0.2611  1.4169
11008TIP3    H254440   2.991   6.405  16.976 -0.2073 -1.2684  0.8880
11009TIP3   OH254441   1.900   3.975   3.771 -0.7013 -0.0205 -0.0317
11009TIP3    H154442   1.942   4.020   3.698  0.6938  0.2123  0.8859
11009TIP3    H254443   1.914   3.882   3.753  0.6217  0.0670  0.4895
11010TIP3   OH254444   2.937   1.446  12.283  0.0802 -0.1896  0.1558
11010TIP3    H154445   2.949   1.367  12.336  1.6051  0.2966  0.5959
11010TIP3    H254446   2.972   1.517  12.337 -0.4751  0.6667 -0.5778
11011TIP3   OH254447   2.345   6.294   3.597 -0.3849 -0.8753  0.0320
11011TIP3    H154448   2.405   6.369   3.595 -2.4232  0.8333 -0.0998
11011TIP3    H254449   2.370   6.242   3.521  0.6715  0.0004 -0.2585
11012TIP3   OH254450   3.354   1.138   2.314  0.3226  0.1137 -0.5826
11012TIP3    H154451   3.318   1.104   2.397 -1.3995  1.1788 -0.8347
11012TIP3    H254452   3.324   1.229   2.311 -0.5775 -0.1908 -2.8448
11013TIP3   OH254453   3.722   2.945   2.178 -0.2490 -0.5148 -0.4507
11013TIP3    H154454   3.770   3.028   2.176  0.4697 -0.7459  2.3086
11013TIP3    H254455   3.651   2.960   2.240 -1.3430 -1.3923 -1.4574
11014TIP3   OH254456   2.039   1.180  15.632 -0.0110  0.1401 -0.0322
11014TIP3    H154457   2.110   1.214  15.686  0.2787  1.4897 -1.2132
11014TIP3    H254458   1.982   1.255  15.616 -0.8791 -0.5725 -0.3861
11015TIP3   OH254459   6.199   6.190  13.676 -0.4264  0.3683  0.1702
11015TIP3    H154460   6.129   6.179  13.740  0.5500 -0.6604  1.0921
11015TIP3    H254461   6.266   6.241  13.721 -0.4613  1.1316 -0.6216
11016TIP3   OH254462   2.105   4.207   1.980  0.6004  0.4122  0.9544
11016TIP3    H154463   2.067   4.283   1.936 -1.9594  0.3401  2.7632
11016TIP3    H254464   2.131   4.149   1.909 -2.5643  0.6325 -0.5837
11017TIP3   OH254465   2.622   1.754  12.195  0.2485  0.1242 -0.2229
11017TIP3    H154466   2.631   1.755  12.100  0.2811 -0.6546 -0.2336
11017TIP3    H254467   2.562   1.827  12.214 -1.6861 -1.1515 -1.0712
11018TIP3   OH254468   4.016   0.005  15.696  0.2818 -0.1613 -0.1070
11018TIP3    H154469   4.001   0.087  15.742  0.2496 -0.0973 -0.2318
11018TIP3    H254470   3.935  -0.045  15.709 -0.0961  0.2347 -0.8827
11019TIP3   OH254471   3.120   2.902   0.968 -0.6584  0.0734 -0.1805
11019TIP3    H154472   3.048   2.885   0.907 -0.0105  1.0061 -1.2538
11019TIP3    H254473   3.079   2.946   1.042 -1.4425 -0.9325 -0.0026
11020TIP3   OH254474   5.829   5.875   5.388 -0.0888  0.1174  0.0950
11020TIP3    H154475   5.885   5.890   5.464  2.0722  0.3644 -1.4398
11020TIP3    H254476   5.783   5.793   5.408  1.0491 -0.2542  1.3361
11021TIP3   OH254477   5.548   1.262   5.996 -0.4183 -0.1297  0.0036
11021TIP3    H154478   5.577   1.188   6.050  1.3353  0.7903  0.3971
11021TIP3    H254479   5.488   1.311   6.053 -0.2615 -0.3279  0.3431
11022TIP3   OH254480   6.524   6.501   6.025  0.1085  0.0337 -0.3211
11022TIP3    H154481   6.489   6.440   5.960  1.5960 -0.8798 -0.3206
11022TIP3    H254482   6.485   6.473   6.108  1.8206 -1.8845 -0.0824
11023TIP3   OH254483   5.817   6.187  14.495  0.0035 -0.5571 -0.2384
11023TIP3    H154484   5.904   6.226  14.494  0.2466 -1.0919  0.0521
11023TIP3    H254485   5.796   6.178  14.588 -0.1426 -0.9255 -0.3062
11024TIP3   OH254486   2.336   1.249   0.712 -0.1523  0.2804  0.8112
11024TIP3    H154487   2.275   1.295   0.654  1.0165 -0.7852 -1.3783
11024TIP3    H254488   2.421   1.256   0.668  0.4366 -2.1488  1.4290
11025TIP3   OH254489   4.349   3.988  14.355 -0.0472 -0.1509  0.2407
11025TIP3    H154490   4.402   3.973  14.277  0.0527  0.3828  0.1995
11025TIP3    H254491   4.299   3.908  14.366 -1.6995  0.5478 -1.6385
11026TIP3   OH254492   6.013   5.361   2.404  0.2036 -0.1996  0.0646
11026TIP3    H154493   6.031   5.454   2.389  1.1500 -0.4328 -0.3423
11026TIP3    H254494   6.083   5.316   2.357  1.0948 -1.0804  2.1290
11027TIP3   OH254495   5.568   3.464   4.819 -0.7309  0.7478 -0.1703
11027TIP3    H154496   5.555   3.479   4.725 -1.7286 -0.4591 -0.2451
11027TIP3    H254497   5.533   3.376   4.835  1.0554  0.1817  1.0045
11028TIP3   OH254498   6.207   3.287  13.651  0.1026  0.3252  0.4417
11028TIP3    H154499   6.284   3.328  13.611 -0.2574  0.2717 -0.3194
11028TIP3    H254500   6.158   3.360  13.689 -0.3518  0.5755 -0.5931
11029TIP3   OH254501   6.086   1.559   2.949 -0.5340 -0.2168 -0.2401
11029TIP3    H154502   6.076   1.563   2.854 -0.5148  2.2230 -0.2139
11029TIP3    H254503   6.083   1.466   2.970 -0.8294 -0.7980 -2.5889
11030TIP3   OH254504   4.871   2.066   3.525  0.1218  0.1785 -0.0425
11030TIP3    H154505   4.806   2.136   3.514 -0.7842 -0.8774 -1.7712
11030TIP3    H254506   4.945   2.095   3.472 -0.8067 -0.7829 -1.9361
11031TIP3   OH254507   6.746   1.373   5.903  0.1505  0.6247 -1.0403
11031TIP3    H154508   6.707   1.455   5.930  0.2517  0.8397 -1.5312
11031TIP3    H254509   6.749   1.320   5.982  0.2822  1.1728 -0.6739
11032TIP3   OH254510   3.394   0.950   0.449  0.2043  0.2041  0.2249
11032TIP3    H154511   3.405   0.950   0.354 -2.0429  0.6234 -0.0784
11032TIP3    H254512   3.473   0.994   0.482  0.5096  1.0454 -1.5165
11033TIP3   OH254513   6.741   6.533   1.937  0.3549  0.5652 -0.3188
11033TIP3    H154514   6.647   6.516   1.942  0.1443  1.8055  0.4818
11033TIP3    H254515   6.777   6.491   2.014 -0.1998  3.6356  1.8013
11034TIP3   OH254516   6.345   3.211  11.877  0.1372 -0.4302 -1.1468
11034TIP3    H154517   6.271   3.230  11.818 -1.2168 -0.2113  0.5295
11034TIP3    H254518   6.410   3.168  11.822 -1.4203 -1.0054 -2.6108
11035TIP3   OH254519   2.117   2.962   0.734 -0.3186 -0.0849  0.1655
11035TIP3    H154520   2.192   2.937   0.789  0.7840 -1.6995 -1.9189
11035TIP3    H254521   2.154   2.969   0.646 -2.6944 -1.4827 -1.0388
11036TIP3   OH254522   6.095   4.766   2.011 -0.4692  0.1532  0.4404
11036TIP3    H154523   6.094   4.816   1.930 -0.5634  0.8118  0.8450
11036TIP3    H254524   6.047   4.686   1.991 -1.8685  1.0074  0.2843
11037TIP3   OH254525   4.515   4.204  15.288  0.1431  0.5571  0.3071
11037TIP3    H154526   4.435   4.175  15.331  0.0930 -0.6595 -0.5648
11037TIP3    H254527   4.490   4.215  15.196  1.0970 -0.3676 -0.0786
11038TIP3   OH254528   1.930   4.880  17.046  0.7610 -0.4756  0.5826
11038TIP3    H154529   2.021   4.905  17.029  0.4509  0.5770  0.3770
11038TIP3    H254530   1.915   4.903  17.137  0.3221  0.6090  0.2532
11039TIP3   OH254531   4.199   5.912   3.118 -0.7639  0.0083  0.3058
11039TIP3    H154532   4.213   5.976   3.048  3.9623  1.1897  1.9499
11039TIP3    H254533   4.175   5.832   3.072  4.7348 -0.1233 -3.3896
11040TIP3   OH254534   2.904   3.801   5.633 -0.2321 -0.3439 -0.0307
11040TIP3    H154535   2.937   3.753   5.557 -2.5159 -0.2069 -1.1806
11040TIP3    H254536   2.862   3.734   5.687 -2.4439  0.0886 -1.0962
11041TIP3   OH254537   6.727   3.252   2.001  0.4158  0.2830 -0.0124
11041TIP3    H154538   6.663   3.316   2.035  1.1319  1.9907 -1.6838
11041TIP3    H254539   6.810   3.278   2.040  0.5492 -0.2234  0.0415
11042TIP3   OH254540   0.636   6.299   5.229  0.5787  0.0460 -0.2229
11042TIP3    H154541   0.674   6.238   5.292 -2.0673 -2.5657 -0.9696
11042TIP3    H254542   0.623   6.380   5.280  2.2861 -0.5882  1.3639
11043TIP3   OH254543   0.233   6.180  16.651 -0.6303 -0.3961  0.0152
11043TIP3    H154544   0.323   6.210  16.637 -0.1760 -1.1487  1.1487
11043TIP3    H254545   0.220   6.187  16.745 -2.0629  0.4625 -0.2208
11044TIP3   OH254546   1.716   2.538  11.910 -0.0343 -0.4398 -0.3953
11044TIP3    H154547   1.729   2.589  11.990 -0.0792 -1.1350  0.0669
11044TIP3    H254548   1.803   2.503  11.891  0.1604  0.4370 -1.1530
11045TIP3   OH254549   2.539   4.487  11.813 -0.3462  0.1006  0.0852
11045TIP3    H154550   2.542   4.444  11.728 -0.8250  2.2388 -1.0766
11045TIP3    H254551   2.481   4.562  11.800  2.4570  2.6539  1.2166
11046TIP3   OH254552   0.986   5.038   5.454  0.1006  0.2079 -0.0120
11046TIP3    H154553   0.892   5.023   5.466 -0.0171  1.8809  1.4600
11046TIP3    H254554   1.007   4.991   5.373 -1.6166 -1.6753  0.5430
11047TIP3   OH254555   4.486   6.271  17.359  0.9269 -0.1256 -0.3267
11047TIP3    H154556   4.422   6.200  17.365  0.5361  0.3116  1.6850
11047TIP3    H254557   4.558   6.243  17.417  0.5398  1.2785  0.9078
11048TIP3   OH254558   2.484   4.886   1.369  0.0985  0.3390 -0.4873
11048TIP3    H154559   2.473   4.980   1.354 -1.3432  0.7171  2.1870
11048TIP3    H254560   2.571   4.878   1.407 -0.1666  0.7905  0.2509
11049TIP3   OH254561   4.580   1.368  14.574 -0.0474 -0.0463  0.4072
11049TIP3    H154562   4.505   1.325  14.534 -0.8539  1.6818 -0.0384
11049TIP3    H254563   4.655   1.340  14.522 -0.6585 -0.2506 -0.3821
11050TIP3   OH254564   4.731   1.598  12.044 -0.1652 -0.0934 -0.2453
11050TIP3    H154565   4.731   1.518  12.096 -1.1354  0.0693  0.0148
11050TIP3    H254566   4.723   1.567  11.953  0.8208 -0.3418 -0.2611
11051TIP3   OH254567   4.991   5.244  11.813 -0.0915 -0.4062 -0.1269
11051TIP3    H154568   4.985   5.154  11.846  1.0370 -0.5328 -0.2214
11051TIP3    H254569   4.903   5.263  11.779  0.1891 -2.3090 -2.1862
11052TIP3   OH254570   5.086   2.765  15.651 -0.5568 -0.0117 -0.5181
11052TIP3    H154571   5.117   2.704  15.584  0.3500  0.5367 -0.6014
11052TIP3    H254572   5.031   2.710  15.708 -1.8372 -0.3781 -2.0022
11053TIP3   OH254573   0.914   4.324  15.402 -0.3810  0.3925  0.3790
11053TIP3    H154574   0.851   4.264  15.365  0.5028  0.2223 -0.9372
11053TIP3    H254575   0.975   4.269  15.451  0.3842  0.1587 -0.7634
11054TIP3   OH254576   5.465   6.063   1.863  0.6387 -0.0925 -0.5499
11054TIP3    H154577   5.452   5.969   1.855  2.9197 -0.4803 -0.1696
11054TIP3    H254578   5.413   6.100   1.791 -2.5488 -1.3498  0.8944
11055TIP3   OH254579   5.532   1.477  16.027  0.5402  0.5628 -0.3607
11055TIP3    H154580   5.551   1.567  16.053  0.9694  0.6600 -0.9785
11055TIP3    H254581   5.584   1.464  15.948  0.1653 -0.0980 -0.5036
11056TIP3   OH254582   1.770   0.764   1.174  0.2778 -0.6884  0.7791
11056TIP3    H154583   1.792   0.705   1.102 -1.3004  0.1858 -0.4999
11056TIP3    H254584   1.853   0.782   1.217  1.5188 -0.1891 -1.6580
11057TIP3   OH254585   6.137   0.142  14.491 -0.3339 -0.2182  0.5039
11057TIP3    H154586   6.118   0.214  14.431 -0.4439 -0.8939 -0.2812
11057TIP3    H254587   6.067   0.078  14.475  1.0361 -1.5252 -0.4505
11058TIP3   OH254588   2.685   4.914  13.214  0.2536 -0.5913 -0.2807
11058TIP3    H154589   2.694   4.835  13.268 -0.8754 -0.6831 -0.1922
11058TIP3    H254590   2.639   4.884  13.135 -2.3374  0.3271  0.7591
11059TIP3   OH254591   1.473   1.422   3.635  0.0985  0.2024  0.2286
11059TIP3    H154592   1.398   1.363   3.646  0.5811 -0.7508 -1.2972
11059TIP3    H254593   1.548   1.372   3.666  0.2733  0.6865  0.5893
11060TIP3   OH254594   3.007   0.552  16.858  0.1956 -0.6894  0.1005
11060TIP3    H154595   3.051   0.558  16.943  1.6586  0.4618 -0.6791
11060TIP3    H254596   3.034   0.468  16.823  1.5668 -0.1551 -0.2096
11061TIP3   OH254597   0.947   2.046   2.278  0.3682 -0.1178  0.4586
11061TIP3    H154598   1.039   2.072   2.267  0.4972  0.4408  2.4997
11061TIP3    H254599   0.907   2.119   2.325 -1.3108 -0.0887 -0.9274
11062TIP3   OH254600   3.138   3.489  12.520 -0.0803  0.1596  0.2509
11062TIP3    H154601   3.048   3.493  12.552 -0.0755  0.7176  0.1913
11062TIP3    H254602   3.183   3.560  12.564  0.1718  0.2962 -0.2186
11063TIP3   OH254603   4.454   4.020   3.945 -0.2744 -0.3130  0.0767
11063TIP3    H154604   4.413   4.000   4.029  0.0973 -1.0593  0.0929
11063TIP3    H254605   4.517   4.089   3.965 -2.5486  1.9691 -0.2364
11064TIP3   OH254606   2.788   0.745  12.894  0.1184  0.6773 -0.0247
11064TIP3    H154607   2.694   0.756  12.877  0.0837  0.3722 -0.0336
11064TIP3    H254608   2.803   0.789  12.977  0.1744  1.6841 -0.5504
11065TIP3   OH254609   5.003   6.565  12.198 -0.0013 -0.4835 -0.1062
11065TIP3    H154610   5.075   6.597  12.252 -0.2938 -1.3354  0.8130
11065TIP3    H254611   5.018   6.470  12.191 -0.0121 -0.4058 -1.4603
11066TIP3   OH254612   4.069   5.939   1.999 -0.3086 -0.2539  0.2060
11066TIP3    H154613   4.021   5.918   1.919 -0.1967 -1.4360  0.4262
11066TIP3    H254614   4.135   5.870   2.006  2.6015  2.1880 -0.9848
11067TIP3   OH254615   0.486   0.223  13.754 -0.2058  0.5025 -0.2140
11067TIP3    H154616   0.564   0.168  13.757 -0.6534 -0.1119  0.9047
11067TIP3    H254617   0.475   0.253  13.845 -0.9602  1.0277 -0.4675
11068TIP3   OH254618   5.784   4.250  12.563 -0.3072 -0.1493 -0.5980
11068TIP3    H154619   5.802   4.200  12.483 -2.6964 -0.4881 -0.9817
11068TIP3    H254620   5.819   4.195  12.634  0.6829 -0.4406 -1.2833
11069TIP3   OH254621   2.618   1.009   2.539 -0.1740  0.7231  0.4850
11069TIP3    H154622   2.541   0.967   2.500  0.6837 -3.3540  2.6894
11069TIP3    H254623   2.584   1.056   2.615 -0.7086  0.8312  0.1829
11070TIP3   OH254624   6.450   2.770   3.669  0.5284 -0.1684  0.1016
11070TIP3    H154625   6.522   2.737   3.723  0.6528  0.3324  0.2408
11070TIP3    H254626   6.462   2.865   3.668 -0.6141 -0.0075  0.8099
11071TIP3   OH254627   1.845   1.918   2.895 -0.1455  0.1009  0.2001
11071TIP3    H154628   1.856   1.829   2.861 -0.3380 -0.4272  1.4661
11071TIP3    H254629   1.751   1.930   2.902 -0.1442  0.6620 -0.5628
11072TIP3   OH254630   3.844   0.647   3.142 -0.5981  0.0021  0.2157
11072TIP3    H154631   3.928   0.693   3.153 -0.5366  0.0253 -0.3305
11072TIP3    H254632   3.868   0.556   3.128 -0.6399  0.0631 -0.2912
11073TIP3   OH254633   3.030   1.285   1.444 -0.0433  0.3487 -0.2912
11073TIP3    H154634   3.102   1.247   1.393 -1.0660 -0.4118 -1.2176
11073TIP3    H254635   2.951   1.246   1.407 -0.9178  0.7927  1.0272
11074TIP3   OH254636   4.949   2.646  14.209 -0.4675  0.0430 -0.2443
11074TIP3    H154637   4.949   2.671  14.302 -0.3457  0.3512 -0.3238
11074TIP3    H254638   5.033   2.679  14.176 -1.9883  3.3256 -1.3268
11075TIP3   OH254639   5.431   1.254   2.345 -0.3096  0.2930 -0.7463
11075TIP3    H154640   5.502   1.218   2.292  0.3042  2.0807 -1.2007
11075TIP3    H254641   5.375   1.301   2.283 -0.5805  0.9024 -0.0569
11076TIP3   OH254642   6.572   5.550   3.724 -0.3996 -0.4850 -0.1131
11076TIP3    H154643   6.544   5.600   3.647  0.4344 -1.3894 -1.0220
11076TIP3    H254644   6.612   5.615   3.782 -1.3417  0.2611 -0.2728
11077TIP3   OH254645   3.053   4.576  13.313  0.1094  0.1293 -0.7790
11077TIP3    H154646   3.113   4.578  13.388 -2.9290 -1.9066  2.0065
11077TIP3    H254647   3.085   4.505  13.258 -0.2348 -1.7467  1.2861
11078TIP3   OH254648   2.011   3.287   0.156  0.1711  0.1874 -0.2090
11078TIP3    H154649   1.942   3.341   0.117  0.6334  0.6970 -0.3370
11078TIP3    H254650   1.994   3.199   0.124 -0.7016  0.2177  0.1446
11079TIP3   OH254651   5.641   2.231   1.276  0.4166 -0.1782 -0.0993
11079TIP3    H154652   5.638   2.245   1.181 -0.1184  4.2918  0.3331
11079TIP3    H254653   5.574   2.165   1.293 -0.7487  0.1950 -2.7031
11080TIP3   OH254654   2.394   0.506   1.545  0.3376  0.3491  0.1318
11080TIP3    H154655   2.316   0.452   1.536  0.9333 -0.2999 -1.6051
11080TIP3    H254656   2.429   0.486   1.632 -0.4725 -0.6521  0.2336
11081TIP3   OH254657   4.142   5.572   1.736 -0.2521 -0.0740 -0.7447
11081TIP3    H154658   4.142   5.495   1.793 -0.4426  0.0254 -0.6089
11081TIP3    H254659   4.152   5.537   1.648  1.6438 -0.1552 -0.5472
11082TIP3   OH254660   1.368   4.663  13.276 -0.1285  0.1162 -0.1536
11082TIP3    H154661   1.310   4.606  13.226  1.2600  1.1539 -3.1710
11082TIP3    H254662   1.334   4.751  13.262  1.8193  0.6931 -1.5902
11083TIP3   OH254663   1.603   2.457   2.923  0.1109  0.3494  0.5549
11083TIP3    H154664   1.602   2.414   2.837  0.7197  0.8681  0.2836
11083TIP3    H254665   1.521   2.506   2.925  0.2562  0.6106  0.1283
11084TIP3   OH254666   0.056   0.173   4.563 -0.5986  0.0321  0.3127
11084TIP3    H154667  -0.034   0.170   4.595 -0.6071 -1.9133  0.2032
11084TIP3    H254668   0.052   0.225   4.483 -2.1245 -2.0891 -1.0746
11085TIP3   OH254669   5.106   3.043  13.513  0.7364  0.0896  0.2499
11085TIP3    H154670   5.010   3.051  13.511  0.7825  0.5764 -0.4364
11085TIP3    H254671   5.130   3.058  13.604  0.1746  0.1423  0.3952
11086TIP3   OH254672   6.065   2.915   2.104 -0.1129 -0.1596 -0.0585
11086TIP3    H154673   6.142   2.896   2.051 -1.7352 -2.0520 -1.8994
11086TIP3    H254674   6.083   2.873   2.188  1.7690  1.4006  0.3908
11087TIP3   OH254675   5.240   4.496  11.554  0.4853  0.0044  0.0724
11087TIP3    H154676   5.186   4.552  11.610  1.0253 -3.2399  4.3316
11087TIP3    H254677   5.190   4.415  11.545  2.6686 -1.4487  0.3042
11088TIP3   OH254678   1.992   4.312  11.246 -0.1761 -0.0345 -0.4442
11088TIP3    H154679   1.987   4.407  11.234  0.3866 -0.0250 -0.6423
11088TIP3    H254680   1.978   4.276  11.159  1.7206 -0.0443 -0.7937
11089TIP3   OH254681   2.128   1.560  14.567 -0.0101  0.2955 -0.3679
11089TIP3    H154682   2.032   1.564  14.566 -0.3275 -3.0957 -2.8683
11089TIP3    H254683   2.155   1.616  14.494 -0.2638 -0.3873 -0.9913
11090TIP3   OH254684   5.017   0.994  12.096  0.6970 -0.7588  0.8801
11090TIP3    H154685   4.936   0.949  12.070  0.3913 -0.1202  0.7260
11090TIP3    H254686   4.988   1.080  12.127  1.1601 -1.0943  2.3135
11091TIP3   OH254687   6.471   0.786   5.660  0.3139  0.1628 -0.3568
11091TIP3    H154688   6.548   0.807   5.713 -1.1853  4.0345  0.6418
11091TIP3    H254689   6.507   0.764   5.574  2.6501  3.1652 -0.3445
11092TIP3   OH254690   6.598   0.158   0.069  0.0174 -0.2005 -0.4246
11092TIP3    H154691   6.555   0.204  -0.003  0.7866  0.1119 -0.6997
11092TIP3    H254692   6.647   0.226   0.114 -2.3397  0.1238  1.9164
11093TIP3   OH254693   0.746   4.423  11.968  0.4840 -0.8094 -0.5831
11093TIP3    H154694   0.773   4.339  12.005  0.4505  0.0039  1.4478
11093TIP3    H254695   0.812   4.485  11.999 -0.2151  0.1195 -0.9169
11094TIP3   OH254696   4.389   4.483  13.670  0.0410 -0.2596  0.1416
11094TIP3    H154697   4.402   4.404  13.722  0.3665  0.7442  1.6533
11094TIP3    H254698   4.468   4.490  13.617  0.8033 -0.0660  1.2571
11095TIP3   OH254699   0.083   4.206   2.813 -0.6479  0.3983 -0.2636
11095TIP3    H154700   0.134   4.135   2.775 -1.5961  0.1468 -1.1215
11095TIP3    H254701   0.139   4.242   2.881  0.0393 -0.8719 -0.1215
11096TIP3   OH254702   1.370   5.978   0.265 -0.5796 -0.5878 -0.0215
11096TIP3    H154703   1.367   6.038   0.340  0.7731 -0.6529  0.1161
11096TIP3    H254704   1.366   6.034   0.188  2.0956 -0.1138  0.0801
11097TIP3   OH254705   4.781   2.459  14.125  0.2698 -0.2551  0.4213
11097TIP3    H154706   4.812   2.436  14.038  1.2305 -0.9892  0.9422
11097TIP3    H254707   4.836   2.533  14.151 -0.9928  0.9341 -0.1555
11098TIP3   OH254708   5.690   0.925  11.780  0.1440 -0.2343  0.1574
11098TIP3    H154709   5.599   0.918  11.751  0.3126 -2.3322 -0.0701
11098TIP3    H254710   5.730   0.988  11.721 -0.8480 -0.2967 -0.6073
11099TIP3   OH254711   3.408   2.497  15.556  0.3396 -0.2067  0.3007
11099TIP3    H154712   3.338   2.557  15.582  0.3807  0.0886 -0.2512
11099TIP3    H254713   3.401   2.424  15.618  0.0769  0.2087  0.7671
11100TIP3   OH254714   6.357   2.153   2.403 -0.3853  0.2931  0.0739
11100TIP3    H154715   6.308   2.229   2.435 -1.7779  0.6966 -2.7306
11100TIP3    H254716   6.309   2.078   2.438  0.9994  0.5578  2.8642
11101TIP3   OH254717   2.490   1.391   5.729  0.2193 -0.3358 -0.1573
11101TIP3    H154718   2.507   1.417   5.820 -0.3932 -0.8253  0.1064
11101TIP3    H254719   2.396   1.404   5.718  0.5134  1.1394 -1.1913
11102TIP3   OH254720   3.818   6.243   6.204  0.2150  0.6504 -0.4310
11102TIP3    H154721   3.812   6.210   6.114  0.5402 -0.5202 -0.0476
11102TIP3    H254722   3.899   6.205   6.238 -0.5268  0.0443  0.7471
11103TIP3   OH254723   3.386   3.250   4.560 -0.2030 -0.0066 -0.0424
11103TIP3    H154724   3.459   3.191   4.542 -0.3489  0.1103 -1.1233
11103TIP3    H254725   3.363   3.233   4.651 -0.2092 -1.5958 -0.3121
11104TIP3   OH254726   5.667   2.498  11.827 -0.4715  0.1043  0.0695
11104TIP3    H154727   5.645   2.565  11.763  0.3867 -0.9024 -1.3539
11104TIP3    H254728   5.728   2.541  11.887  1.0348  0.3278 -1.5347
11105TIP3   OH254729   0.729   4.957   5.435  0.0673 -0.0037 -0.0733
11105TIP3    H154730   0.771   4.911   5.363 -0.0859 -0.4064  0.0886
11105TIP3    H254731   0.650   4.995   5.397 -0.5109 -0.9995  0.0690
11106TIP3   OH254732   4.602   5.019  13.543  0.2282  0.6505 -0.2150
11106TIP3    H154733   4.546   5.054  13.612 -0.4854  0.2052 -0.5575
11106TIP3    H254734   4.575   5.067  13.464  0.4245  0.5290 -0.3574
11107TIP3   OH254735   2.617   6.733   5.176  0.3163 -0.1681  0.3342
11107TIP3    H154736   2.622   6.639   5.158 -0.6115 -0.2062  0.2384
11107TIP3    H254737   2.532   6.745   5.218  1.5176  0.2313  2.8544
11108TIP3   OH254738   2.607   5.854  11.545  0.3106  0.1787  0.5474
11108TIP3    H154739   2.664   5.777  11.543  1.9112  1.3525 -0.5440
11108TIP3    H254740   2.563   5.853  11.459  1.7599  1.4753 -0.2504
11109TIP3   OH254741   4.819   2.385  16.928 -0.1656  0.2997 -0.1334
11109TIP3    H154742   4.801   2.441  17.004  2.2418  1.6552 -0.4798
11109TIP3    H254743   4.771   2.426  16.856 -2.1712 -0.7938  0.4857
11110TIP3   OH254744   4.988   0.945  15.981 -0.5934  0.6957 -0.0230
11110TIP3    H154745   5.078   0.959  16.008 -1.0142  0.1154  1.8162
11110TIP3    H254746   4.957   1.031  15.951 -0.7476  2.0240  3.5170
11111TIP3   OH254747   1.258   0.153   0.929  0.2213 -0.4867 -0.1134
11111TIP3    H154748   1.258   0.071   0.977 -1.3629  0.2414  1.2227
11111TIP3    H254749   1.321   0.209   0.975 -1.2022  0.1670  1.1158
11112TIP3   OH254750   6.271   4.531  15.483 -0.4290  0.3473  0.1477
11112TIP3    H154751   6.366   4.529  15.478 -0.3853  0.8272  0.6748
11112TIP3    H254752   6.246   4.605  15.427 -0.5933 -0.6824 -1.1740
11113TIP3   OH254753   3.911   1.031   3.736 -0.3617  0.1293 -0.1010
11113TIP3    H154754   3.942   0.941   3.744  1.7361  0.7380 -0.7483
11113TIP3    H254755   3.817   1.022   3.718 -0.2005 -1.9209 -0.2098
11114TIP3   OH254756   3.849   3.342   2.200  0.6665 -0.0483  0.4264
11114TIP3    H154757   3.754   3.341   2.192  0.7672 -0.2854 -0.8435
11114TIP3    H254758   3.870   3.259   2.244  0.3618 -0.4653 -0.2093
11115TIP3   OH254759   6.145   3.511  13.072 -0.6549  0.1266 -0.7975
11115TIP3    H154760   6.178   3.520  13.161 -0.8403 -0.1796 -0.6981
11115TIP3    H254761   6.088   3.587  13.060 -3.4690 -1.5893  0.5867
11116TIP3   OH254762   2.673   3.578  14.564  0.4630  0.0118  0.0802
11116TIP3    H154763   2.597   3.635  14.573 -0.3715 -1.3171  2.5245
11116TIP3    H254764   2.716   3.607  14.484 -1.5057  2.1114 -0.3169
11117TIP3   OH254765   5.176   4.369  14.920 -0.2499 -0.2488 -0.5586
11117TIP3    H154766   5.261   4.412  14.920 -1.2729  1.9613 -2.4652
11117TIP3    H254767   5.195   4.278  14.944  2.4373  0.4587  0.2917
11118TIP3   OH254768   3.704   3.403  17.083 -0.1331 -0.1295  0.2089
11118TIP3    H154769   3.643   3.462  17.039 -0.8507 -1.9380 -1.3796
11118TIP3    H254770   3.662   3.317  17.077  1.5844 -1.0744  1.0265
11119TIP3   OH254771   3.396   2.893   5.919 -0.5355  0.1830 -0.3464
11119TIP3    H154772   3.342   2.838   5.975 -0.8731  2.3272  1.5979
11119TIP3    H254773   3.338   2.918   5.847 -1.2598  0.2339  0.2424
11120TIP3   OH254774   2.214   6.229   1.911  0.9085  0.1569  0.6932
11120TIP3    H154775   2.307   6.209   1.900  1.1579  0.7277  1.6197
11120TIP3    H254776   2.172   6.193   1.833  2.2203  2.1616 -1.0258
11121TIP3   OH254777   3.434   0.558  13.421  0.1932  0.0784 -0.0723
11121TIP3    H154778   3.402   0.516  13.501  0.9327  1.8003  1.1909
11121TIP3    H254779   3.362   0.551  13.359 -0.4865 -1.0751  0.8092
11122TIP3   OH254780   0.502   5.236   2.505 -0.3736 -0.1894  0.0755
11122TIP3    H154781   0.533   5.170   2.568 -0.8334 -0.5292 -0.0544
11122TIP3    H254782   0.566   5.307   2.513 -0.1122 -0.4648  0.5259
11123TIP3   OH254783   6.381   0.994   2.822  0.5685 -0.5000  0.0621
11123TIP3    H154784   6.386   1.011   2.728 -0.2404 -1.9190 -0.2602
11123TIP3    H254785   6.469   1.015   2.854  0.8161  0.1265 -0.9741
11124TIP3   OH254786   2.196   2.931  14.380  0.3004 -0.0215 -0.4677
11124TIP3    H154787   2.240   2.868  14.322  3.3338 -0.0673  1.6194
11124TIP3    H254788   2.163   2.877  14.453  0.4511  0.4657 -0.0308
11125TIP3   OH254789   3.340   1.816   2.827  0.1744 -0.1220 -0.5376
11125TIP3    H154790   3.278   1.864   2.772 -0.2151  0.8584  0.7035
11125TIP3    H254791   3.423   1.863   2.818  0.0115  0.2801 -0.0027
11126TIP3   OH254792   1.964   5.832  14.372 -0.0757  0.2095 -0.0808
11126TIP3    H154793   2.005   5.912  14.338 -2.4388  1.5830  0.0853
11126TIP3    H254794   1.950   5.850  14.465 -0.9478 -0.2368 -0.1124
11127TIP3   OH254795   6.019   0.715  12.072  0.1006 -0.2553 -0.2573
11127TIP3    H154796   6.047   0.686  12.160  0.4335 -0.9807 -0.5906
11127TIP3    H254797   5.944   0.772  12.088 -0.8707 -1.6749  0.4154
11128TIP3   OH254798   2.465   6.186  10.994  0.4197 -0.7193  0.4359
11128TIP3    H154799   2.480   6.183  10.899 -0.3903 -1.4621  0.3146
11128TIP3    H254800   2.407   6.262  11.006  2.2862  0.7323  0.6272
11129TIP3   OH254801   4.035   1.221  14.394 -0.6150 -0.5238  0.0461
11129TIP3    H154802   4.047   1.282  14.466  0.0912  0.3272 -0.7639
11129TIP3    H254803   3.941   1.204  14.392 -0.6684 -0.4076  1.0301
11130TIP3   OH254804   2.312   3.367   0.225 -0.2248 -0.3403 -0.2352
11130TIP3    H154805   2.245   3.334   0.285  0.2136 -2.6370 -0.8714
11130TIP3    H254806   2.394   3.334   0.261  0.1451 -0.8793 -1.4899
11131TIP3   OH254807   4.023   1.388  15.104  0.0091  0.5260  0.0333
11131TIP3    H154808   3.931   1.378  15.079 -0.1686 -0.4587  1.0301
11131TIP3    H254809   4.057   1.452  15.042 -1.3978  1.0735 -0.2152
11132TIP3   OH254810   3.904   3.218  13.173 -0.3642 -0.0022  0.6920
11132TIP3    H154811   3.884   3.178  13.088  1.1361 -1.8355  1.1452
11132TIP3    H254812   3.988   3.262  13.160 -0.4789  0.3209  1.0320
11133TIP3   OH254813   1.350   2.557   2.999  0.2221 -1.1557 -0.0176
11133TIP3    H154814   1.266   2.517   3.017 -1.6869  2.3341 -0.2432
11133TIP3    H254815   1.394   2.562   3.084 -1.2024 -0.2297  0.6919
11134TIP3   OH254816   0.698   2.330   1.184 -0.0232  0.0181  0.1889
11134TIP3    H154817   0.706   2.413   1.230  0.2337  1.0525 -1.6347
11134TIP3    H254818   0.615   2.337   1.137  0.6060 -0.1951 -0.9994
11135TIP3   OH254819   5.349   4.244  12.189  0.1283 -0.1481  0.2733
11135TIP3    H154820   5.442   4.222  12.188 -0.2231 -1.7547 -1.2095
11135TIP3    H254821   5.320   4.220  12.277  1.2615  1.2902  1.0988
11136TIP3   OH254822   3.031   1.184   0.500  0.0993 -0.7149 -0.5282
11136TIP3    H154823   2.962   1.133   0.457 -0.8519  0.7971 -0.9125
11136TIP3    H254824   3.096   1.120   0.527 -0.3588 -1.9630 -2.2294
11137TIP3   OH254825   5.098   5.948   6.008 -0.3403 -0.1780 -0.2495
11137TIP3    H154826   5.191   5.924   6.005 -0.4152 -0.8544  1.7792
11137TIP3    H254827   5.093   6.016   6.074 -1.2864 -0.0699 -0.4253
11138TIP3   OH254828   2.407   0.164  11.137 -0.2411  0.1207  0.4207
11138TIP3    H154829   2.370   0.080  11.164  0.7668 -0.4380  0.0990
11138TIP3    H254830   2.477   0.181  11.200  0.1762  0.2575 -0.0714
11139TIP3   OH254831   6.525   4.660  13.340 -0.5165  0.0470  0.2616
11139TIP3    H154832   6.465   4.591  13.369 -1.4618  1.0491  0.7330
11139TIP3    H254833   6.541   4.713  13.418  0.0844  0.4641 -0.1335
11140TIP3   OH254834   5.706   5.564  13.302 -0.0569 -0.2274  0.1537
11140TIP3    H154835   5.768   5.591  13.369  0.5969 -0.6012 -0.2941
11140TIP3    H254836   5.698   5.639  13.244  0.5611 -0.4410 -0.2135
11141TIP3   OH254837   0.146   6.741   2.227 -0.3689  0.0153 -0.2835
11141TIP3    H154838   0.230   6.772   2.194  0.3065 -2.3483 -0.9737
11141TIP3    H254839   0.164   6.654   2.262 -2.6257 -0.8319 -1.0281
11142TIP3   OH254840   0.469   0.242  11.720 -0.6234 -0.4533 -0.1646
11142TIP3    H154841   0.471   0.206  11.632 -0.4785  1.1341 -0.8394
11142TIP3    H254842   0.385   0.214  11.756 -0.3237 -1.8188 -0.4691
11143TIP3   OH254843   1.115   0.648  15.248 -0.3875 -0.0690  0.3982
11143TIP3    H154844   1.106   0.570  15.194 -0.3081  0.3687 -0.2570
11143TIP3    H254845   1.207   0.650  15.273 -0.3528 -0.0971  0.2752
11144TIP3   OH254846   5.101   6.317  14.044 -0.3737  0.8731  0.1667
11144TIP3    H154847   5.013   6.281  14.051 -0.8967  1.5175 -2.1836
11144TIP3    H254848   5.096   6.402  14.087 -0.5416  0.3977  1.1126
11145TIP3   OH254849   3.671   2.652  15.716 -0.5966 -0.6567 -0.4716
11145TIP3    H154850   3.630   2.593  15.779  0.2583 -2.0734 -1.2074
11145TIP3    H254851   3.643   2.619  15.631 -2.0425  1.4523 -0.9120
11146TIP3   OH254852   5.661   1.832   4.751  0.2159 -0.2702 -0.2412
11146TIP3    H154853   5.703   1.861   4.669 -1.0289 -0.2409 -0.8983
11146TIP3    H254854   5.631   1.743   4.732 -0.8802  0.0595 -0.1483
11147TIP3   OH254855   4.506   5.939   5.037  0.7585 -1.0663  0.2688
11147TIP3    H154856   4.418   5.948   5.001  0.1438 -0.4159  1.8146
11147TIP3    H254857   4.548   6.023   5.020  1.7072 -1.9027 -1.8956
11148TIP3   OH254858   6.030   4.399  14.097  0.5180 -0.2678  0.8859
11148TIP3    H154859   5.940   4.431  14.102  0.2375 -1.0630  1.0921
11148TIP3    H254860   6.021   4.306  14.075  1.3135 -0.1831  0.1852
11149TIP3   OH254861   5.315   2.145   4.820 -0.1261  0.4163 -0.2963
11149TIP3    H154862   5.343   2.079   4.882  0.9549  0.0131 -1.1971
11149TIP3    H254863   5.353   2.227   4.853 -1.6054  0.6664  0.9106
11150TIP3   OH254864   4.904   2.547  13.599 -0.1793 -0.2326 -0.2342
11150TIP3    H154865   4.971   2.525  13.665 -0.9626 -0.8944  0.3631
11150TIP3    H254866   4.897   2.468  13.546  0.0278  0.0974 -0.7545
11151TIP3   OH254867   3.488   5.805   0.578 -0.6414 -0.0186 -0.6934
11151TIP3    H154868   3.518   5.866   0.645 -1.0030  0.2694 -0.7865
11151TIP3    H254869   3.530   5.835   0.498  0.2031 -0.6753 -0.5092
11152TIP3   OH254870   0.585   5.893   5.634 -0.3397 -0.2360 -0.3981
11152TIP3    H154871   0.624   5.951   5.699 -1.0517 -0.3910  0.1862
11152TIP3    H254872   0.660   5.852   5.590  0.1693 -0.9632  1.0854
11153TIP3   OH254873   4.073   5.437   3.692 -0.2402  0.2016 -0.5584
11153TIP3    H154874   4.096   5.495   3.619 -0.8212 -1.4686 -2.1291
11153TIP3    H254875   3.980   5.419   3.679 -0.0047 -1.2986 -0.2824
11154TIP3   OH254876   3.968   4.611   1.240 -0.2374  0.5476 -0.3256
11154TIP3    H154877   3.977   4.702   1.214  0.2826  1.1076  1.6631
11154TIP3    H254878   4.026   4.563   1.181 -0.5101  1.4711 -1.3884
11155TIP3   OH254879   4.388   0.266   5.421 -0.0602  0.1066  0.0072
11155TIP3    H154880   4.327   0.277   5.348  0.4398  0.2392 -0.3936
11155TIP3    H254881   4.341   0.301   5.497 -1.2093 -1.4810  0.0778
11156TIP3   OH254882   1.584   4.734   6.503 -0.3760  0.0929 -0.5004
11156TIP3    H154883   1.550   4.796   6.438 -1.5663 -1.3018 -1.2470
11156TIP3    H254884   1.672   4.766   6.522 -0.9212  1.9702 -0.9109
11157TIP3   OH254885   4.140   1.932   0.550  0.0294 -0.0026 -0.8765
11157TIP3    H154886   4.207   1.864   0.540  0.9378  0.6209  0.6745
11157TIP3    H254887   4.078   1.896   0.613  1.3132  1.1103  1.1336
11158TIP3   OH254888   4.649   3.201  15.180 -0.2881  0.2487 -0.1335
11158TIP3    H154889   4.612   3.164  15.260 -0.1890 -1.3031 -0.7671
11158TIP3    H254890   4.682   3.287  15.206 -2.3471  0.7683  0.9434
11159TIP3   OH254891   0.030   2.242  14.041  0.3190 -0.1262 -0.0663
11159TIP3    H154892   0.105   2.192  14.073 -0.3236 -0.5251  0.8715
11159TIP3    H254893  -0.005   2.285  14.119 -0.6807 -0.2971 -0.4055
11160TIP3   OH254894   4.424   3.566  11.098 -0.1946  0.5298 -0.2236
11160TIP3    H154895   4.483   3.491  11.105  0.0005  0.3775 -2.4837
11160TIP3    H254896   4.481   3.638  11.070 -1.0410  0.2359 -3.0310
11161TIP3   OH254897   3.874   6.048   0.113 -0.7660  0.2284  0.3279
11161TIP3    H154898   3.922   6.053   0.196  0.2948 -2.1640 -0.0447
11161TIP3    H254899   3.839   6.136   0.100 -1.4389  0.5769  3.5691
11162TIP3   OH254900   6.280   0.930   6.541  0.7979 -0.3328 -0.2374
11162TIP3    H154901   6.289   0.960   6.451  0.5690  2.1257  0.4898
11162TIP3    H254902   6.296   1.008   6.595 -0.6258 -1.3437  1.8104
11163TIP3   OH254903   5.650   0.099   0.624 -0.6695  0.3610 -0.2356
11163TIP3    H154904   5.633   0.101   0.718 -0.7455 -0.7175 -0.2107
11163TIP3    H254905   5.741   0.128   0.615 -0.6023  0.2919  0.1910
11164TIP3   OH254906   5.197   2.898   4.598 -0.5498  0.0759  0.5675
11164TIP3    H154907   5.192   2.835   4.526  0.1522 -0.5289  1.0285
11164TIP3    H254908   5.114   2.888   4.645 -0.8766  0.2452  0.0266
11165TIP3   OH254909   6.451   3.020   5.793  0.3287  0.1179  0.0682
11165TIP3    H154910   6.413   2.940   5.830  1.8913 -0.1962  1.0903
11165TIP3    H254911   6.376   3.066   5.755 -1.1565 -0.3431  2.1970
11166TIP3   OH254912   2.699   3.779   4.189  0.4092 -0.7991  0.1411
11166TIP3    H154913   2.611   3.761   4.157  0.2809  0.5466 -0.3217
11166TIP3    H254914   2.685   3.836   4.265  0.8687 -0.9183  0.3172
11167TIP3   OH254915   2.746   2.734   2.643  0.3251  0.5458 -0.6694
11167TIP3    H154916   2.724   2.768   2.730  1.8064 -3.9412  1.8207
11167TIP3    H254917   2.668   2.687   2.615  0.3561  0.7244 -1.0593
11168TIP3   OH254918   0.963   1.705  16.658  0.6541 -0.1696  0.1337
11168TIP3    H154919   0.997   1.634  16.604  3.2587  0.3817  0.9153
11168TIP3    H254920   0.947   1.777  16.597  1.2949 -0.3202 -0.2188
11169TIP3   OH254921   4.893   6.448  14.740 -0.2292 -0.0326  0.1008
11169TIP3    H154922   4.866   6.540  14.739 -2.0461 -0.5262 -0.2761
11169TIP3    H254923   4.853   6.411  14.661  1.1992 -0.9736 -0.2093
11170TIP3   OH254924   0.727   0.305  16.891 -0.5383  0.1012 -0.2980
11170TIP3    H154925   0.640   0.340  16.870 -0.9840  0.5045  1.9310
11170TIP3    H254926   0.715   0.262  16.976  0.9875 -1.7449 -0.9641
11171TIP3   OH254927   5.898   5.536   1.043  0.2495 -0.7850  0.3825
11171TIP3    H154928   5.850   5.461   1.007  2.0289 -1.7105 -0.1624
11171TIP3    H254929   5.910   5.516   1.136 -1.3780  0.0081  0.8023
11172TIP3   OH254930   5.638   2.963  15.440  0.0345 -0.2059 -0.1792
11172TIP3    H154931   5.709   2.909  15.474  0.1835  0.6612  0.9483
11172TIP3    H254932   5.580   2.901  15.395  0.0862 -1.3604  1.2474
11173TIP3   OH254933   2.967   0.810   4.870  0.4890  0.5837  0.1382
11173TIP3    H154934   2.961   0.756   4.792  0.1714 -0.1771  0.6777
11173TIP3    H254935   2.908   0.768   4.933  0.6566  1.2444  0.7507
11174TIP3   OH254936   1.735   1.858  13.567  0.6229 -0.3071 -0.2296
11174TIP3    H154937   1.767   1.836  13.654  1.7555  1.0574 -0.2577
11174TIP3    H254938   1.760   1.949  13.555  1.2584 -0.6985 -2.3080
11175TIP3   OH254939   4.630   2.496  15.108 -0.5955  0.9773  0.0663
11175TIP3    H154940   4.646   2.500  15.014 -1.1130 -0.3703 -0.0968
11175TIP3    H254941   4.543   2.533  15.120 -2.4168 -2.6607 -0.5789
11176TIP3   OH254942   1.351   1.135  15.522  0.4189 -0.5176  0.0971
11176TIP3    H154943   1.292   1.210  15.527 -0.5569 -1.3330  1.5055
11176TIP3    H254944   1.344   1.105  15.431  0.7330  0.9882 -0.4514
11177TIP3   OH254945   6.329   5.198   3.197 -0.2156 -0.5739  0.0152
11177TIP3    H154946   6.255   5.136   3.196 -0.1832 -0.6306  0.8099
11177TIP3    H254947   6.295   5.275   3.151 -0.8447 -0.5202  0.5527
11178TIP3   OH254948   1.293   1.145  15.836 -0.2741 -0.3739 -0.2097
11178TIP3    H154949   1.210   1.104  15.857 -1.5085  2.0603  0.0757
11178TIP3    H254950   1.328   1.093  15.763 -1.8913 -1.6231 -0.1547
11179TIP3   OH254951   3.960   2.394  14.592 -0.8803 -0.4617  0.1357
11179TIP3    H154952   3.870   2.427  14.591  0.1233  2.6395 -1.0451
11179TIP3    H254953   4.010   2.461  14.545  2.3531 -1.1892  2.2271
11180TIP3   OH254954   1.735   0.904  14.461  0.4795  0.2619 -0.2909
11180TIP3    H154955   1.651   0.914  14.415 -0.8300 -2.2830  1.2926
11180TIP3    H254956   1.765   0.817  14.435  1.9543  0.5917  0.2420
11181TIP3   OH254957   4.077   2.568  16.488  0.2306  0.1182  0.3001
11181TIP3    H154958   4.039   2.655  16.491 -2.6703 -1.0228 -0.3027
11181TIP3    H254959   4.021   2.515  16.545  1.6018 -1.4940  0.2547
11182TIP3   OH254960   5.670   3.758   4.550 -0.0805  0.3408  0.4782
11182TIP3    H154961   5.654   3.839   4.502  0.9470 -0.0779 -0.6397
11182TIP3    H254962   5.584   3.717   4.559 -0.2707  0.2400 -1.4109
11183TIP3   OH254963   6.335   3.196  12.178  0.3920  0.0511 -0.4036
11183TIP3    H154964   6.348   3.160  12.090  0.2472 -0.6850 -0.1335
11183TIP3    H254965   6.240   3.196  12.191  0.3979  0.4038 -0.3425
11184TIP3   OH254966   4.658   1.322   2.369  0.0367 -0.0602  0.0516
11184TIP3    H154967   4.595   1.251   2.384 -0.5104  0.1063 -1.2444
11184TIP3    H254968   4.728   1.282   2.317  0.8464 -0.1599  1.1912
11185TIP3   OH254969   0.418   5.447  17.285  0.2173  0.3352  0.5610
11185TIP3    H154970   0.331   5.420  17.316 -0.3515 -0.3931 -1.5080
11185TIP3    H254971   0.423   5.539  17.308 -1.5177  0.6375 -0.0857
11186TIP3   OH254972   2.696   4.356  13.524  0.1423  0.0706 -0.5362
11186TIP3    H154973   2.708   4.266  13.555 -0.2412  0.4255  0.7325
11186TIP3    H254974   2.603   4.361  13.499 -0.2161  0.4861  0.7882
11187TIP3   OH254975   1.940   0.899  13.867  0.2270 -0.5523  0.0330
11187TIP3    H154976   1.972   0.828  13.811 -1.0291 -0.4136 -0.9095
11187TIP3    H254977   1.918   0.857  13.950 -1.2278 -1.4303 -0.7692
11188TIP3   OH254978   6.567   5.189  17.149 -0.5880 -0.3097 -0.0981
11188TIP3    H154979   6.649   5.170  17.103 -0.8804 -2.8878  0.3211
11188TIP3    H254980   6.507   5.120  17.123 -1.6962 -0.1823  1.8922
11189TIP3   OH254981   3.480   4.192  17.091 -0.5165  0.5119  0.5016
11189TIP3    H154982   3.461   4.205  16.998 -0.5899  0.6254  0.5326
11189TIP3    H254983   3.423   4.120  17.117 -1.8899  1.6867  0.9078
11190TIP3   OH254984   1.702   1.890  12.330 -0.3752 -0.2248  0.3757
11190TIP3    H154985   1.710   1.809  12.280 -1.2486  0.9276 -1.8000
11190TIP3    H254986   1.616   1.884  12.373 -1.2260  0.1856 -1.1652
11191TIP3   OH254987   0.301   5.585   5.362 -0.4259  0.5113 -0.3608
11191TIP3    H154988   0.386   5.625   5.343  0.0098 -0.3784 -0.2990
11191TIP3    H254989   0.312   5.543   5.447  0.3829 -3.0770 -2.0585
11192TIP3   OH254990   3.236   4.948  17.244 -0.5822  0.3506 -0.0677
11192TIP3    H154991   3.192   5.013  17.190 -0.1245  0.8608  0.1682
11192TIP3    H254992   3.271   4.885  17.181 -1.0114  0.3389 -0.2967
11193TIP3   OH254993   2.317   3.634   0.092  0.4730  0.6879 -0.0444
11193TIP3    H154994   2.411   3.642   0.105  0.5054 -1.1736  1.3545
11193TIP3    H254995   2.300   3.540   0.099 -1.5091  0.9900 -0.1203
11194TIP3   OH254996   6.079   5.801  13.540 -0.6847  0.0734 -0.0780
11194TIP3    H154997   6.124   5.870  13.490  0.7264  0.2145  1.3154
11194TIP3    H254998   6.104   5.818  13.631  0.5676 -2.8885  0.2303
11195TIP3   OH254999   1.473   5.718   0.327  0.0954 -0.2905  0.9000
11195TIP3    H155000   1.450   5.805   0.293 -0.5035  0.0520  2.1455
11195TIP3    H255001   1.539   5.686   0.266  0.4172  1.0932  0.4875
11196TIP3   OH255002   2.305   5.896   6.684 -0.2301 -0.1998 -0.1506
11196TIP3    H155003   2.239   5.912   6.617  0.3899 -0.6414 -0.8775
11196TIP3    H255004   2.295   5.804   6.708 -0.4540 -0.0445  0.3799
11197TIP3   OH255005   2.257   3.381  10.942  0.1783  0.1084 -0.4660
11197TIP3    H155006   2.243   3.382  11.036  3.0885 -1.0543  0.1119
11197TIP3    H255007   2.194   3.317  10.909  0.1882 -0.6697  0.9373
11198TIP3   OH255008   1.297   5.193  16.137 -0.0714  0.6528 -0.6291
11198TIP3    H155009   1.264   5.148  16.215  1.7183 -0.0627 -0.2564
11198TIP3    H255010   1.238   5.269  16.128  1.0560  2.1762  2.8774
11199TIP3   OH255011   0.921   1.159   1.501 -0.2920 -0.5168  0.4058
11199TIP3    H155012   0.992   1.107   1.538  0.8117 -1.3071 -2.5687
11199TIP3    H255013   0.939   1.249   1.529  1.3511 -0.8529  0.4989
11200TIP3   OH255014   2.119   5.418  14.039  0.6517 -0.0054  0.2077
11200TIP3    H155015   2.112   5.360  13.963 -1.5877 -1.7944  1.6423
11200TIP3    H255016   2.162   5.496  14.005 -3.0717  0.7170 -3.8298
11201TIP3   OH255017   6.453   4.279   0.497  0.0181 -0.3475 -0.4645
11201TIP3    H155018   6.479   4.211   0.560 -0.8379  0.0659  0.3667
11201TIP3    H255019   6.406   4.231   0.428 -2.6519 -0.4571  1.2529
11202TIP3   OH255020   6.079   2.427  10.751  0.1486 -0.3805 -0.0562
11202TIP3    H155021   6.138   2.469  10.814  0.3544 -0.2478 -0.3320
11202TIP3    H255022   6.112   2.337  10.744  1.6579  0.2566 -1.7974
11203TIP3   OH255023   2.471   1.601   1.832 -0.2715 -0.1262 -0.2382
11203TIP3    H155024   2.413   1.529   1.858  0.1324  0.1015  1.4048
11203TIP3    H255025   2.558   1.562   1.829 -0.1558  0.1169 -0.0902
11204TIP3   OH255026   5.344   5.242  13.523 -0.2316  0.8578 -0.2845
11204TIP3    H155027   5.263   5.219  13.476 -0.6169  0.6506  0.4624
11204TIP3    H255028   5.314   5.292  13.599  0.1695 -0.7518  1.0050
11205TIP3   OH255029   2.902   6.367   4.660  0.7499  0.3062 -0.5547
11205TIP3    H155030   2.982   6.324   4.690  1.3840  0.7417 -1.5504
11205TIP3    H255031   2.874   6.314   4.585 -0.0531  0.0055 -0.0530
11206TIP3   OH255032   3.037   1.398  14.318  0.3690  0.7767 -1.1183
11206TIP3    H155033   3.067   1.336  14.252  0.0639 -1.5611  0.7905
11206TIP3    H255034   2.944   1.410  14.301  0.3056  0.2373 -1.1515
11207TIP3   OH255035   5.098   0.470   6.572 -0.3575  0.0676 -0.6705
11207TIP3    H155036   5.112   0.408   6.644 -1.2631 -2.0514 -2.2096
11207TIP3    H255037   5.061   0.416   6.502 -2.7065  2.6649 -1.5731
11208TIP3   OH255038   4.943   5.407  14.454  0.1471  0.2711 -0.2120
11208TIP3    H155039   4.850   5.388  14.462  0.1902  0.1563  0.0261
11208TIP3    H255040   4.987   5.324  14.472  0.2468 -0.1448 -2.1579
11209TIP3   OH255041   6.502   3.533   4.023  0.0385 -0.1795 -0.1894
11209TIP3    H155042   6.574   3.498   3.971 -2.2446 -2.6373 -1.9766
11209TIP3    H255043   6.491   3.470   4.095 -0.0116  0.4708  0.3880
11210TIP3   OH255044   4.201   0.122  17.323 -0.0528 -0.1853 -0.0536
11210TIP3    H155045   4.252   0.048  17.356 -1.2538 -0.1575  2.0422
11210TIP3    H255046   4.204   0.187  17.393 -0.7179  0.9214 -1.0052
11211TIP3   OH255047   0.870   0.952  12.523  0.0010  0.1711  0.2813
11211TIP3    H155048   0.928   1.024  12.549  0.5893  0.5150 -1.8345
11211TIP3    H255049   0.802   0.994  12.471 -1.2065 -0.4793  1.2888
11212TIP3   OH255050   5.053   0.106   0.497  0.7364 -0.4229  0.4640
11212TIP3    H155051   5.110   0.030   0.506 -0.5522 -1.2793  2.1512
11212TIP3    H255052   5.099   0.176   0.544  0.6136 -0.9902  1.4570
11213TIP3   OH255053   1.362   4.101   0.689 -0.5654  0.3554  0.7585
11213TIP3    H155054   1.365   4.101   0.593 -0.9057  0.2263  0.7456
11213TIP3    H255055   1.393   4.014   0.714 -1.6843 -0.0679  0.7166
11214TIP3   OH255056   2.318   0.848   0.349 -0.3340  0.3959  0.1049
11214TIP3    H155057   2.307   0.871   0.257  3.2256  1.3035 -0.2341
11214TIP3    H255058   2.347   0.930   0.390  3.0311 -1.0716  0.9214
11215TIP3   OH255059   3.918   4.567  17.222  0.1743  0.7196  0.2210
11215TIP3    H155060   3.973   4.579  17.300 -0.9798  0.5143  1.0874
11215TIP3    H255061   3.976   4.524  17.159  1.7798  2.8152  0.1528
11216TIP3   OH255062   1.946   1.477   0.212  0.2424 -0.1008  0.3890
11216TIP3    H155063   1.960   1.537   0.285  0.8097 -0.0598  0.2549
11216TIP3    H255064   1.911   1.398   0.253 -2.3354  0.9373  0.3635
11217TIP3   OH255065   6.014   1.727   3.418  0.0043 -0.0570 -0.3676
11217TIP3    H155066   6.077   1.794   3.391  0.0630 -0.4470 -1.2162
11217TIP3    H255067   5.991   1.681   3.337 -1.0076 -0.2344  0.0088
11218TIP3   OH255068   0.292   3.196  13.841 -0.1685  0.3893 -0.2135
11218TIP3    H155069   0.279   3.291  13.832  1.7815  0.5009 -3.4454
11218TIP3    H255070   0.272   3.161  13.754 -1.8560 -2.3911  1.1668
11219TIP3   OH255071   4.694   2.209  15.115 -0.0195 -0.0719  0.2155
11219TIP3    H155072   4.746   2.287  15.096  1.0789 -0.4362  1.5608
11219TIP3    H255073   4.705   2.153  15.038 -1.2107  1.2658 -0.9677
11220TIP3   OH255074   5.468   1.452  14.090  0.3977  0.2787 -0.4250
11220TIP3    H155075   5.445   1.386  14.156 -0.9224 -0.1625 -1.2746
11220TIP3    H255076   5.419   1.530  14.117 -2.9860 -0.8446 -2.5900
11221TIP3   OH255077   5.538   5.831  12.438 -0.6455  0.6655  0.0871
11221TIP3    H155078   5.618   5.880  12.419  0.5066 -1.5004 -0.9493
11221TIP3    H255079   5.474   5.863  12.375  0.9711 -1.1604 -2.6826
11222TIP3   OH255080   6.019   2.110  11.921 -0.1016 -0.2605  0.3635
11222TIP3    H155081   6.097   2.159  11.897  0.2033 -1.9412 -2.6245
11222TIP3    H255082   5.948   2.174  11.916  0.7966  0.7874  0.8332
11223TIP3   OH255083   0.601   5.707   4.240  0.7363 -0.0233 -0.0216
11223TIP3    H155084   0.679   5.745   4.278  0.0921 -0.3716  1.7202
11223TIP3    H255085   0.632   5.632   4.189  1.4620 -0.7622  1.4725
11224TIP3   OH255086   3.912   0.227  15.152 -0.6883 -0.6617  0.0042
11224TIP3    H155087   3.838   0.262  15.103 -0.8869 -0.8023  0.2028
11224TIP3    H255088   3.984   0.225  15.089 -0.7036  0.0016 -0.0459
11225TIP3   OH255089   2.502   2.326  15.094 -0.7445  0.4842  0.2218
11225TIP3    H155090   2.581   2.273  15.083 -0.3284  0.9867  0.7587
11225TIP3    H255091   2.447   2.303  15.019  0.7550  1.6330 -1.2950
11226TIP3   OH255092   1.187   6.471  11.115  0.1789  0.4178 -0.1660
11226TIP3    H155093   1.280   6.493  11.115  0.0033  1.1855  0.1711
11226TIP3    H255094   1.142   6.555  11.109 -0.4992  0.1098  0.4551
11227TIP3   OH255095   1.420   1.264   0.299 -0.6363 -0.3564 -0.0020
11227TIP3    H155096   1.431   1.246   0.393 -0.5014 -0.3234 -0.0113
11227TIP3    H255097   1.384   1.353   0.296  0.8645  0.2818 -0.0298
11228TIP3   OH255098   1.619   0.937   1.522  0.2698  0.4490  0.3216
11228TIP3    H155099   1.528   0.965   1.529 -0.0149 -0.3359 -0.0841
11228TIP3    H255100   1.643   0.911   1.611 -0.2814 -0.4332  0.2272
11229TIP3   OH255101   2.292   5.433   0.814  0.0058  0.0823 -0.0181
11229TIP3    H155102   2.248   5.349   0.809 -1.2253  0.5362  2.0199
11229TIP3    H255103   2.234   5.494   0.769  0.6577 -0.0416 -1.0587
11230TIP3   OH255104   5.727   1.393  16.748 -0.0086  0.0048 -0.0381
11230TIP3    H155105   5.757   1.406  16.838 -0.1488 -1.4123  0.2405
11230TIP3    H255106   5.712   1.481  16.715 -0.6807  0.5372  1.5800
11231TIP3   OH255107   0.237   2.492  15.732  0.3502  0.2648 -0.9508
11231TIP3    H155108   0.277   2.440  15.802 -1.4752  1.5568  1.2214
11231TIP3    H255109   0.310   2.517  15.675  2.2715  0.5134  1.4291
11232TIP3   OH255110   6.612   4.400   3.302 -0.3030 -0.0560  0.3473
11232TIP3    H155111   6.550   4.351   3.356 -2.3689  1.3199 -0.6141
11232TIP3    H255112   6.578   4.390   3.213  1.3931  0.0223 -0.3319
11233TIP3   OH255113   0.949   5.540  14.590  0.4494  0.2149  0.0338
11233TIP3    H155114   1.037   5.551  14.555  0.5624  1.8633  0.7678
11233TIP3    H255115   0.961   5.542  14.685 -0.3646  0.3101  0.1412
11234TIP3   OH255116   4.334   0.662   3.443  0.2007  0.5262  0.8086
11234TIP3    H155117   4.381   0.605   3.504 -0.2050  1.5180  2.0871
11234TIP3    H255118   4.367   0.749   3.463  1.9403  0.6652 -2.1289
11235TIP3   OH255119   1.287   4.330  11.778  0.0597  0.2971  0.4083
11235TIP3    H155120   1.258   4.402  11.834 -0.3089 -0.0131  0.6231
11235TIP3    H255121   1.206   4.289  11.748  0.2395  0.6602 -0.6287
11236TIP3   OH255122   4.618   4.378   1.443 -0.3518  0.1979 -0.6525
11236TIP3    H155123   4.701   4.427   1.446 -0.0028 -0.3558 -1.0788
11236TIP3    H255124   4.642   4.289   1.468 -0.7116 -0.0924 -1.3160
11237TIP3   OH255125   2.499   6.001  16.860  0.0132 -0.2602 -0.6442
11237TIP3    H155126   2.494   5.906  16.856  1.4932 -0.3556 -1.2327
11237TIP3    H255127   2.521   6.028  16.770 -1.2390  0.7177 -0.6871
11238TIP3   OH255128   1.371   0.455  13.031  0.0241 -0.2975  0.5131
11238TIP3    H155129   1.455   0.494  13.010 -0.6767  1.3569  0.6447
11238TIP3    H255130   1.311   0.490  12.966 -0.8636 -0.2103  1.3455
11239TIP3   OH255131   0.689   0.497   3.662  0.2276  0.6886  0.0800
11239TIP3    H155132   0.596   0.516   3.650 -0.3897  0.3823  3.5143
11239TIP3    H255133   0.710   0.439   3.589 -2.1030  1.2252 -1.1230
11240TIP3   OH255134   1.779   4.918   6.622 -0.0748 -0.0344  0.4858
11240TIP3    H155135   1.719   4.989   6.647 -1.0902 -1.2396  1.6643
11240TIP3    H255136   1.843   4.960   6.564 -1.8157  1.4092 -0.5215
11241TIP3   OH255137   4.559   5.592   1.739 -0.0980 -0.2654 -0.1423
11241TIP3    H155138   4.545   5.516   1.684 -1.9643  0.3159 -0.5359
11241TIP3    H255139   4.542   5.667   1.682  1.6815  0.4738  0.2354
11242TIP3   OH255140   6.174   6.460   6.367  0.6902 -0.4636 -0.0432
11242TIP3    H155141   6.111   6.463   6.295  1.0577 -1.8328 -0.4614
11242TIP3    H255142   6.131   6.507   6.439  0.0839  0.4434 -0.9722
11243TIP3   OH255143   4.028   1.901  15.578 -0.2730  0.2813  0.1339
11243TIP3    H155144   4.018   1.931  15.487 -1.9488  1.9628  0.7932
11243TIP3    H255145   3.964   1.831  15.587 -0.3555  0.3555  0.1238
11244TIP3   OH255146   5.220   3.668  17.189  0.3026 -0.1952 -0.0188
11244TIP3    H155147   5.231   3.759  17.217  1.2949 -0.3224  0.0186
11244TIP3    H255148   5.203   3.620  17.270  0.4227 -0.1479  0.0339
11245TIP3   OH255149   6.361   6.677  16.273 -0.4439 -0.2028  0.5826
11245TIP3    H155150   6.418   6.603  16.256 -0.1026  0.3185 -0.6635
11245TIP3    H255151   6.330   6.664  16.363  0.9250 -0.9542  0.9639
11246TIP3   OH255152   0.939   5.370   1.108  0.5624 -0.4485 -0.0108
11246TIP3    H155153   0.961   5.285   1.070 -2.4588 -1.7968  0.9508
11246TIP3    H255154   0.852   5.389   1.075  0.2437  1.1595  1.6227
11247TIP3   OH255155   2.302   6.359   3.854  0.1932 -0.3061  0.5480
11247TIP3    H155156   2.279   6.328   3.767  1.8829 -2.1333  0.6968
11247TIP3    H255157   2.394   6.337   3.865 -0.0717 -0.5506  2.9691
11248TIP3   OH255158   2.882   0.590   0.880 -0.0457 -0.1128 -0.3368
11248TIP3    H155159   2.878   0.576   0.785 -0.0079 -0.7448 -0.2514
11248TIP3    H255160   2.904   0.504   0.915 -0.3785  0.0498  0.2709
11249TIP3   OH255161   3.284   1.481  17.200  0.9482  0.1897 -0.1120
11249TIP3    H155162   3.359   1.459  17.255 -0.2400 -0.3574  1.3648
11249TIP3    H255163   3.284   1.576  17.196  2.2584  0.1839 -0.9555
11250TIP3   OH255164   2.616   3.541  17.258 -0.1395  0.2794  0.2758
11250TIP3    H155165   2.598   3.621  17.208 -1.0453 -0.8854 -1.3456
11250TIP3    H255166   2.602   3.567  17.349 -0.0346  2.0595 -0.1651
11251TIP3   OH255167   5.917   6.565   4.906 -0.2715 -0.4251 -1.3192
11251TIP3    H155168   5.901   6.561   4.812 -0.0440  0.3055 -1.3968
11251TIP3    H255169   5.891   6.654   4.931  0.9632 -0.1393 -0.9616
11252TIP3   OH255170   0.528   5.229   0.592 -0.2295  0.1426 -0.1287
11252TIP3    H155171   0.490   5.251   0.677 -1.0812 -1.2773 -0.1114
11252TIP3    H255172   0.555   5.138   0.601 -0.5772 -0.1102 -1.4658
11253TIP3   OH255173   2.441   0.752  12.428  0.0544 -0.2811  0.3469
11253TIP3    H155174   2.432   0.705  12.345 -0.4504  0.5476 -0.0849
11253TIP3    H255175   2.363   0.808  12.432  2.0555  2.8543 -0.6914
11254TIP3   OH255176   6.252   2.457  12.993  0.0604  0.0334 -0.0058
11254TIP3    H155177   6.193   2.403  12.941 -0.0793 -0.3093  0.4996
11254TIP3    H255178   6.339   2.435  12.960 -0.0174 -0.2912 -0.0024
11255TIP3   OH255179   6.266   2.255   2.100  0.0313  0.0673  0.6196
11255TIP3    H155180   6.338   2.199   2.131 -0.2327  0.2742  1.6742
11255TIP3    H255181   6.189   2.222   2.147 -0.5676 -0.1295 -0.4669
11256TIP3   OH255182   5.591   1.910   0.385  0.7474  0.0756 -0.6351
11256TIP3    H155183   5.625   1.826   0.354  1.5116 -0.0058  0.3602
11256TIP3    H255184   5.540   1.944   0.311  0.1147 -1.4210 -0.9294
11257TIP3   OH255185   1.315   0.628  14.111 -0.3512 -0.1697  0.2156
11257TIP3    H155186   1.383   0.561  14.107 -0.1441  0.0518 -0.0771
11257TIP3    H255187   1.258   0.601  14.183 -0.4887 -0.8609 -0.1464
11258TIP3   OH255188   1.459   1.833  12.398  0.0869  0.3080  0.2783
11258TIP3    H155189   1.385   1.869  12.447  1.0696  0.5803  1.6145
11258TIP3    H255190   1.469   1.744  12.432  0.3072  0.2353  0.0267
11259TIP3   OH255191   5.778   4.486   4.033 -0.0000  0.3760  0.2561
11259TIP3    H155192   5.811   4.541   4.104 -0.8637 -0.1549  1.1096
11259TIP3    H255193   5.837   4.411   4.031  0.7957  1.0009 -0.4774
11260TIP3   OH255194   6.275   0.338  15.644  0.1640 -0.1385  0.6517
11260TIP3    H155195   6.356   0.292  15.621  0.0368 -0.0995  0.1078
11260TIP3    H255196   6.299   0.430  15.643  0.0976 -0.1226  0.4139
11261TIP3   OH255197   0.638   3.923  14.582 -0.0451  0.4169 -0.2037
11261TIP3    H155198   0.711   3.882  14.536  2.5339  1.5358  2.5849
11261TIP3    H255199   0.633   4.011  14.546  0.2593  0.4788 -0.0925
11262TIP3   OH255200   5.516   5.207   4.894  1.1225  0.1863  0.2014
11262TIP3    H155201   5.436   5.212   4.947  0.0668  0.2917 -1.3402
11262TIP3    H255202   5.515   5.119   4.858  0.5985  0.8406 -1.4470
11263TIP3   OH255203   1.294   1.281  16.442  0.6454 -0.3935  0.3115
11263TIP3    H155204   1.355   1.267  16.370  0.9338 -0.1347  0.5026
11263TIP3    H255205   1.213   1.241  16.413  0.3353  0.9341 -0.7606
11264TIP3   OH255206   5.283   0.834   6.625 -0.0891 -0.3209  0.0592
11264TIP3    H155207   5.353   0.896   6.644 -0.1963 -0.3615  0.6062
11264TIP3    H255208   5.242   0.818   6.710 -1.4858  0.5755 -0.4172
11265TIP3   OH255209   3.541   4.447   0.032 -0.0584 -0.1907 -0.4519
11265TIP3    H155210   3.578   4.429  -0.055 -1.4340 -0.6041 -0.9718
11265TIP3    H255211   3.561   4.539   0.048  1.0198 -0.3542 -0.7906
11266TIP3   OH255212   3.767   6.365   6.812  0.3517 -0.1501 -0.0507
11266TIP3    H155213   3.797   6.415   6.736 -2.9975 -1.8472 -2.7037
11266TIP3    H255214   3.842   6.310   6.836  2.6361  2.8081  0.2197
11267TIP3   OH255215   3.247   0.158  12.376  0.4352 -0.1139  0.2458
11267TIP3    H155216   3.262   0.115  12.292  0.3787 -0.8412  0.6061
11267TIP3    H255217   3.314   0.122  12.434  0.8930  0.8666  0.3541
11268TIP3   OH255218   3.002   2.167   4.969  0.1673  0.1258  0.0712
11268TIP3    H155219   3.027   2.129   5.053  0.1481  1.1342  0.5527
11268TIP3    H255220   3.035   2.257   4.973  0.7038  0.0162 -1.2443
11269TIP3   OH255221   4.619   0.325  13.497  0.2574 -0.5873  0.1474
11269TIP3    H155222   4.692   0.383  13.477  0.4625 -0.9629 -0.2216
11269TIP3    H255223   4.658   0.252  13.545  0.0873 -0.6772  0.1526
11270TIP3   OH255224   4.609   6.225   5.064  0.0997  0.0022 -0.0061
11270TIP3    H155225   4.702   6.208   5.049  0.3930 -0.0418  1.6132
11270TIP3    H255226   4.607   6.275   5.145 -1.3569 -1.2731  0.8104
11271TIP3   OH255227   5.157   3.817   4.231 -0.3859  0.7806 -0.5777
11271TIP3    H155228   5.229   3.859   4.277 -0.2037  1.5740 -1.5469
11271TIP3    H255229   5.198   3.750   4.177 -0.4940  0.4985 -0.3102
11272TIP3   OH255230   0.204   1.902  14.144 -0.7471  0.6821 -0.1083
11272TIP3    H155231   0.158   1.888  14.227 -2.2952  1.7848 -0.7245
11272TIP3    H255232   0.295   1.918  14.169 -0.8008 -0.8311  1.2115
11273TIP3   OH255233   0.737   3.301  15.695  0.6381  0.0430 -0.2548
11273TIP3    H155234   0.716   3.357  15.620 -2.5140 -0.2534  0.2764
11273TIP3    H255235   0.716   3.213  15.666  1.0843 -0.2988  0.4275
11274TIP3   OH255236   2.431   4.757  11.202  0.1834 -0.4249  0.2372
11274TIP3    H155237   2.490   4.699  11.154  0.7735 -0.6220  1.1622
11274TIP3    H255238   2.458   4.748  11.294  0.2853  1.2956  0.4126
11275TIP3   OH255239   2.142   4.744   0.789 -0.9123 -1.0466 -0.6722
11275TIP3    H155240   2.060   4.740   0.740 -0.1170  0.8637 -2.3052
11275TIP3    H255241   2.119   4.714   0.877 -3.8509  1.1992 -0.5193
11276TIP3   OH255242   3.482   0.745  16.622  0.3150  0.0217  0.2511
11276TIP3    H155243   3.420   0.687  16.666  0.6774 -0.6867 -0.1580
11276TIP3    H255244   3.468   0.831  16.663 -0.0348 -0.4071  1.0490
11277TIP3   OH255245   1.695   1.891   5.252  0.0661  0.8332  0.1496
11277TIP3    H155246   1.728   1.972   5.212  0.8083 -0.0545 -1.1221
11277TIP3    H255247   1.629   1.859   5.190 -1.0816  1.0515  1.2264
11278TIP3   OH255248   5.666   4.445   2.448 -0.0096  0.0263 -0.7389
11278TIP3    H155249   5.675   4.362   2.401 -2.2886 -0.0874 -1.0690
11278TIP3    H255250   5.583   4.481   2.418 -0.9876  0.5367  2.2708
11279TIP3   OH255251   5.700   2.718   2.305  0.2586  0.2782  0.1549
11279TIP3    H155252   5.723   2.784   2.370  0.5859  1.1627 -0.8342
11279TIP3    H255253   5.701   2.765   2.221 -2.0687 -0.3617 -0.3060
11280TIP3   OH255254   2.528   6.435   5.358 -0.9102 -0.2215  0.2352
11280TIP3    H155255   2.560   6.478   5.279  0.2703  0.5826  1.1203
11280TIP3    H255256   2.574   6.351   5.361 -1.7217 -0.7190 -0.4313
11281TIP3   OH255257   0.412   5.928   5.893  0.4682  0.1404 -0.7868
11281TIP3    H155258   0.398   5.879   5.974 -0.2423  0.3351 -0.7813
11281TIP3    H255259   0.474   5.876   5.842  1.1361  0.1549 -0.0007
11282TIP3   OH255260   2.276   0.545  15.095  0.0869 -0.2042  0.2979
11282TIP3    H155261   2.219   0.570  15.168 -0.3935  0.7861 -0.4058
11282TIP3    H255262   2.358   0.592  15.110  0.0874 -0.2160  0.3329
11283TIP3   OH255263   3.160   6.517  12.429 -0.1704  0.4098 -0.3266
11283TIP3    H155264   3.190   6.597  12.385  1.7196 -0.2311 -0.3122
11283TIP3    H255265   3.165   6.449  12.361  1.2684 -0.2782  0.4147
11284TIP3   OH255266   1.054   5.946   6.156  0.7043 -0.2279  0.1471
11284TIP3    H155267   1.079   5.970   6.067 -0.1887  0.3822  0.0438
11284TIP3    H255268   0.993   5.872   6.144  0.8297 -0.3514  0.2714
11285TIP3   OH255269   0.977   6.249  12.939 -0.6611  0.4649  0.1582
11285TIP3    H155270   1.036   6.176  12.953 -1.7913 -0.7751 -1.1486
11285TIP3    H255271   1.006   6.316  13.001  1.1081 -0.6524  0.6179
11286TIP3   OH255272   4.048   3.937  12.766  0.2860  0.5302  0.0328
11286TIP3    H155273   4.088   3.851  12.756 -0.3469  0.3008 -0.6793
11286TIP3    H255274   3.953   3.920  12.764  0.1272  1.3423 -1.4403
11287TIP3   OH255275   2.628   3.545  12.567 -0.3921  0.2326 -0.1384
11287TIP3    H155276   2.598   3.506  12.485 -0.2750  0.4478 -0.2808
11287TIP3    H255277   2.603   3.481  12.634 -0.8400  0.2371 -0.2970
11288TIP3   OH255278   6.150   5.825  13.811  0.2702  0.2670 -0.6539
11288TIP3    H155279   6.059   5.809  13.833  0.2611  0.4565 -0.5462
11288TIP3    H255280   6.196   5.822  13.895  0.3042  0.5383 -0.6600
11289TIP3   OH255281   0.306   3.065   5.965 -0.1287  0.2336 -0.4877
11289TIP3    H155282   0.273   2.984   6.004 -0.1678  0.4501 -0.0654
11289TIP3    H255283   0.276   3.062   5.874  2.0387 -1.4692 -1.2393
11290TIP3   OH255284   0.313   4.074  12.144  0.0195 -0.0847  0.4740
11290TIP3    H155285   0.243   4.069  12.209  0.6792  0.7864  1.2829
11290TIP3    H255286   0.376   4.009  12.172  0.7674  0.9636  1.3100
11291TIP3   OH255287   3.022   5.101  12.187 -0.3741  0.4725 -0.2099
11291TIP3    H155288   2.999   5.193  12.178 -0.0117  0.6427  0.5735
11291TIP3    H255289   3.099   5.090  12.131  0.4526  0.9880  0.7943
11292TIP3   OH255290   3.058   1.824   0.448 -0.1689  0.2710  0.0787
11292TIP3    H155291   2.988   1.843   0.510  0.4419  1.0114  0.5434
11292TIP3    H255292   3.094   1.740   0.478 -0.3682  0.2560  0.2790
11293TIP3   OH255293   3.990   1.286   3.673  0.3102 -0.1869  0.1726
11293TIP3    H155294   3.955   1.197   3.665  0.1836 -0.1728  0.5738
11293TIP3    H255295   4.056   1.280   3.742  1.3667 -0.2906 -0.8079
11294TIP3   OH255296   1.946   0.895   3.168 -0.2157  0.2582  0.4665
11294TIP3    H155297   1.908   0.981   3.150 -0.1280  0.4352  1.1051
11294TIP3    H255298   1.953   0.891   3.263  1.6606  0.3776  0.3727
11295TIP3   OH255299   2.081   0.692  16.396  0.1176  0.2027 -0.1960
11295TIP3    H155300   2.035   0.617  16.434 -0.9088 -0.1725 -2.0461
11295TIP3    H255301   2.087   0.672  16.303  0.7412  1.9746 -0.5885
11296TIP3   OH255302   3.491   1.086   1.405 -0.0429 -0.4472  0.3783
11296TIP3    H155303   3.512   1.170   1.366 -1.2687 -0.1294  0.3383
11296TIP3    H255304   3.396   1.077   1.392  0.2351 -2.4224 -0.8021
11297TIP3   OH255305   5.056   4.328  11.146  0.2041  0.1421 -0.2765
11297TIP3    H155306   5.057   4.393  11.075 -0.6634  1.1434  0.5938
11297TIP3    H255307   4.969   4.288  11.141  0.0626  0.3634  0.3442
11298TIP3   OH255308   3.298   6.118   6.443  0.0302  0.1319 -0.2766
11298TIP3    H155309   3.344   6.173   6.380 -1.2154  0.9016 -0.5518
11298TIP3    H255310   3.299   6.030   6.405  2.0059 -0.0617  0.1469
11299TIP3   OH255311   6.502   2.197  16.679  0.3954 -0.3970 -0.1616
11299TIP3    H155312   6.581   2.247  16.658  0.2147  0.5227  1.1789
11299TIP3    H255313   6.484   2.218  16.771 -1.4389 -0.5526 -0.4428
11300TIP3   OH255314   4.761   3.249   5.244  0.1785  0.0521 -0.2703
11300TIP3    H155315   4.701   3.323   5.237  1.8604  1.7006  1.5800
11300TIP3    H255316   4.731   3.201   5.321  0.0728 -0.2411 -0.4940
11301TIP3   OH255317   0.846   4.340   1.017 -0.4419  0.0025 -0.5973
11301TIP3    H155318   0.928   4.371   0.978 -0.7625  1.6986 -0.0120
11301TIP3    H255319   0.874   4.282   1.088  0.1951 -0.8647 -1.5369
11302TIP3   OH255320   5.359   0.131   4.278 -0.3937 -0.4615 -0.2429
11302TIP3    H155321   5.376   0.038   4.263 -0.4213 -0.8154  1.6684
11302TIP3    H255322   5.412   0.153   4.355 -0.2520  1.1563 -0.7697
11303TIP3   OH255323   1.304   0.008   0.392  0.1861 -0.0965  0.0298
11303TIP3    H155324   1.226   0.043   0.435  1.0927  0.5166  1.2413
11303TIP3    H255325   1.361   0.083   0.380  0.2276 -0.3732 -1.7343
11304TIP3   OH255326   1.672   1.852   3.666  0.1085 -0.2619 -0.2684
11304TIP3    H155327   1.711   1.912   3.602  1.3863 -1.1349 -0.3477
11304TIP3    H255328   1.596   1.815   3.621 -0.5282  1.0424 -0.3219
11305TIP3   OH255329   6.474   1.412  16.918 -0.2831 -0.0081  0.5301
11305TIP3    H155330   6.500   1.471  16.847 -0.6692  0.7766  1.0181
11305TIP3    H255331   6.542   1.423  16.984  0.3980 -1.1934  0.0464
11306TIP3   OH255332   1.366   4.136   2.650 -0.1392  0.0872 -0.2898
11306TIP3    H155333   1.293   4.193   2.627 -0.9730 -0.0948  1.7377
11306TIP3    H255334   1.362   4.065   2.585 -1.3404  0.4389 -0.6248
11307TIP3   OH255335   1.903   3.060   2.735 -0.0179  0.4463  0.2226
11307TIP3    H155336   1.990   3.025   2.715 -0.4539  0.5399 -2.1076
11307TIP3    H255337   1.879   3.112   2.659 -2.0877  0.5102  0.8364
11308TIP3   OH255338   2.679   6.223  16.356  0.0961  0.0818 -0.5470
11308TIP3    H155339   2.655   6.154  16.419  0.3153 -0.1302 -0.6910
11308TIP3    H255340   2.774   6.215  16.349  0.3955  1.6948  0.9503
11309TIP3   OH255341   4.452   0.250  10.973  0.0002 -0.1395  0.1244
11309TIP3    H155342   4.379   0.196  11.004  0.1568 -0.2983  0.2134
11309TIP3    H255343   4.514   0.251  11.046 -0.3493  0.8045  0.4324
11310TIP3   OH255344   5.989   6.482  16.496  0.4785  0.5692  0.2959
11310TIP3    H155345   6.052   6.429  16.448 -1.8092 -1.7747 -0.3460
11310TIP3    H255346   5.945   6.534  16.429  0.4953  0.8449  0.4948
11311TIP3   OH255347   3.142   6.474   0.914  0.4716  0.4934 -0.2716
11311TIP3    H155348   3.101   6.552   0.950  1.3735  0.5641  0.6583
11311TIP3    H255349   3.099   6.461   0.829 -1.6263  0.3959  0.7431
11312TIP3   OH255350   1.423   4.455  16.868  0.0313 -0.0159 -0.4117
11312TIP3    H155351   1.388   4.523  16.926 -0.9064 -0.5667 -0.3110
11312TIP3    H255352   1.456   4.503  16.792 -0.1541  0.5931 -0.1161
11313TIP3   OH255353   3.814   3.988   3.964  0.5955  0.2260 -0.4022
11313TIP3    H155354   3.753   3.914   3.962  2.1280 -1.0794 -0.8548
11313TIP3    H255355   3.818   4.018   3.873  0.6084  0.3323 -0.3669
11314TIP3   OH255356   1.964   2.502   2.744 -0.3056  0.2439 -0.3980
11314TIP3    H155357   1.894   2.535   2.688 -1.2293 -1.4910 -0.3310
11314TIP3    H255358   1.923   2.486   2.828 -0.1088 -1.6198 -0.5961
11315TIP3   OH255359   0.640   4.510   0.368  0.5038 -0.3373 -0.3130
11315TIP3    H155360   0.607   4.557   0.291  1.1815  0.5781 -0.0612
11315TIP3    H255361   0.561   4.490   0.419  0.2949  2.6275  0.7477
11316TIP3   OH255362   0.338   6.501   2.301  0.0870 -0.1999 -0.0008
11316TIP3    H155363   0.397   6.556   2.250 -2.1180  0.8833 -1.5148
11316TIP3    H255364   0.387   6.483   2.382  2.4889  0.5421 -1.1826
11317TIP3   OH255365   3.627   0.686   1.218 -0.2304  0.0243 -0.2056
11317TIP3    H155366   3.558   0.629   1.183 -0.2097  0.6191 -1.2392
11317TIP3    H255367   3.611   0.771   1.177 -0.7443  1.0233  1.9302
11318TIP3   OH255368   5.703   5.718   2.992 -0.1988  0.0714 -0.0720
11318TIP3    H155369   5.798   5.728   3.002  0.1039 -0.7726 -1.7474
11318TIP3    H255370   5.690   5.708   2.898 -1.5342 -3.3542  0.3247
11319TIP3   OH255371   1.418   2.550  14.626 -0.4808  0.0021 -0.4328
11319TIP3    H155372   1.373   2.630  14.598 -0.3212 -0.0780 -0.9154
11319TIP3    H255373   1.468   2.522  14.550 -0.7749 -0.7304 -0.3658
11320TIP3   OH255374   4.087   3.818  15.681  0.4754 -0.1231 -0.4371
11320TIP3    H155375   4.095   3.825  15.585  1.9390 -2.0407 -0.5195
11320TIP3    H255376   4.155   3.876  15.715  3.0888 -2.7320 -0.7642
11321TIP3   OH255377   3.052   2.162  15.264 -0.6772 -0.6406 -0.1464
11321TIP3    H155378   3.122   2.224  15.285 -2.2905  1.3341 -0.2810
11321TIP3    H255379   3.096   2.089  15.222  1.2109  0.9968 -1.1731
11322TIP3   OH255380   0.293   4.297   5.786  0.0471 -0.5826  0.2865
11322TIP3    H155381   0.351   4.353   5.735 -0.6606 -1.2265 -1.2860
11322TIP3    H255382   0.333   4.294   5.873 -0.0057  2.5061  0.5180
11323TIP3   OH255383   5.028   6.518  14.965  0.3115  0.5484 -0.2546
11323TIP3    H155384   5.012   6.450  15.031  0.5572 -0.4218 -1.1851
11323TIP3    H255385   5.119   6.507  14.940  0.5259  1.6100 -0.0073
11324TIP3   OH255386   6.498   4.845  15.676 -0.2737 -0.7761 -0.0042
11324TIP3    H155387   6.436   4.849  15.749 -1.2726 -0.3452 -0.8515
11324TIP3    H255388   6.515   4.751  15.664  0.8347 -0.8035  1.5227
11325TIP3   OH255389   0.607   3.020  16.587  0.3499  0.3981  0.1037
11325TIP3    H155390   0.682   2.995  16.640 -0.4548  0.0604  1.1126
11325TIP3    H255391   0.632   3.103  16.547  1.1393  0.4352  0.6545
11326TIP3   OH255392   5.497   1.555  15.402  0.1204 -0.3850 -0.0642
11326TIP3    H155393   5.470   1.546  15.311 -1.3052 -0.6615  0.3607
11326TIP3    H255394   5.536   1.643  15.407 -2.5283  0.8937 -0.3261
11327TIP3   OH255395   0.065   4.136  12.323  0.5754  0.4301 -0.1287
11327TIP3    H155396  -0.020   4.145  12.281  1.3400 -0.9097 -2.1249
11327TIP3    H255397   0.086   4.224  12.355  0.1989  1.7713 -3.2055
11328TIP3   OH255398   1.676   1.698   3.266 -0.2269  0.3398  0.1277
11328TIP3    H155399   1.679   1.790   3.291 -0.5300  0.6614 -0.9437
11328TIP3    H255400   1.584   1.673   3.275  0.2642 -0.7298  3.2434
11329TIP3   OH255401   1.384   0.264  11.522 -0.0613  0.9115 -0.1883
11329TIP3    H155402   1.466   0.280  11.570  1.0700 -0.1606 -1.6694
11329TIP3    H255403   1.373   0.170  11.526 -1.1463  1.0360 -0.1717
11330TIP3   OH255404   0.880   4.943   0.855  0.2473 -0.5412 -0.3833
11330TIP3    H155405   0.846   4.950   0.765 -0.5969 -0.4599 -0.0637
11330TIP3    H255406   0.812   4.896   0.903  1.5149 -2.2664 -0.2001
11331TIP3   OH255407   4.858   5.641  11.885  0.1715 -0.1125  0.1184
11331TIP3    H155408   4.825   5.659  11.973 -1.4461  0.6809 -0.6015
11331TIP3    H255409   4.818   5.558  11.861 -0.1222  0.1155 -0.1947
11332TIP3   OH255410   0.807   4.890   3.449  0.2367  0.5617  0.5478
11332TIP3    H155411   0.772   4.951   3.383  0.5548  0.2067  0.0383
11332TIP3    H255412   0.827   4.945   3.525 -0.1112  0.9840  0.3350
11333TIP3   OH255413   4.223   0.272   3.685 -0.7652  0.0062 -0.5538
11333TIP3    H155414   4.269   0.194   3.652  1.9070  0.2097  2.1915
11333TIP3    H255415   4.131   0.246   3.688  0.0493 -3.2678  0.6255
11334TIP3   OH255416   0.027   1.915  14.816 -0.5002 -0.5887  0.2559
11334TIP3    H155417  -0.065   1.914  14.789 -1.0575 -2.0009  2.0193
11334TIP3    H255418   0.075   1.942  14.738 -2.2427 -1.6843 -1.2728
11335TIP3   OH255419   6.115   4.752  16.125  0.4507 -1.0072 -0.1526
11335TIP3    H155420   6.053   4.824  16.116 -0.9521 -1.9579  1.2769
11335TIP3    H255421   6.078   4.682  16.072  2.4734 -0.3627 -2.5937
11336TIP3   OH255422   3.662   2.049  14.633  0.4385 -0.1426 -0.0769
11336TIP3    H155423   3.657   2.026  14.725  0.9307 -0.8724 -0.2195
11336TIP3    H255424   3.612   2.130  14.625 -3.1955 -2.1782  0.0903
11337TIP3   OH255425   6.377   2.021  14.064  0.0810  0.0283 -0.8433
11337TIP3    H155426   6.464   2.046  14.093  0.2913  0.2716 -1.6586
11337TIP3    H255427   6.339   1.974  14.139  0.9135 -0.0987 -0.4909
11338TIP3   OH255428   3.723   0.130  11.445  0.1547 -0.0484  0.4611
11338TIP3    H155429   3.751   0.039  11.443 -1.3107 -0.5400 -1.7410
11338TIP3    H255430   3.805   0.180  11.451  1.0543 -1.4905  0.6969
11339TIP3   OH255431   1.922   4.243  12.345  0.1950 -0.2218 -0.6281
11339TIP3    H155432   1.844   4.233  12.291  0.4268 -2.2948 -0.6534
11339TIP3    H255433   1.916   4.172  12.409  1.6058  0.1441 -0.0605
11340TIP3   OH255434   5.919   6.256   1.731 -0.5144 -0.3032  0.4638
11340TIP3    H155435   5.996   6.201   1.718 -0.5843 -0.6614  1.5195
11340TIP3    H255436   5.924   6.321   1.661 -0.7306 -1.9708 -1.1630
11341TIP3   OH255437   2.902   4.051   1.229 -0.1334 -0.3991  0.8487
11341TIP3    H155438   2.960   4.001   1.170 -1.4115 -1.3046  0.3265
11341TIP3    H255439   2.947   4.049   1.314  0.9887 -0.3869  0.2780
11342TIP3   OH255440   6.542   5.867  17.340 -0.3599  0.2883  0.4509
11342TIP3    H155441   6.595   5.940  17.310 -1.6492  1.3787  0.7212
11342TIP3    H255442   6.465   5.869  17.283 -0.3478 -0.9660  0.3577
11343TIP3   OH255443   4.467   3.464   3.700  0.3868  0.1329 -0.0611
11343TIP3    H155444   4.512   3.383   3.676 -0.9197 -0.8312  0.6045
11343TIP3    H255445   4.458   3.512   3.617 -0.5278 -1.2991 -0.8313
11344TIP3   OH255446   4.066   4.131   5.511  0.4860  0.4735 -0.0221
11344TIP3    H155447   4.102   4.138   5.423 -1.2692  0.6279 -0.7503
11344TIP3    H255448   4.139   4.097   5.564  1.2039 -0.8092 -1.7548
11345TIP3   OH255449   6.285   1.218  12.392  0.3914  0.5039  0.3501
11345TIP3    H155450   6.248   1.301  12.421  0.3323  1.4607 -2.1679
11345TIP3    H255451   6.357   1.200  12.452  0.2658  2.2539  1.0658
11346TIP3   OH255452   2.307   3.385  16.724 -0.0470 -0.9778 -0.2666
11346TIP3    H155453   2.217   3.411  16.743 -0.5285 -2.7661  0.1168
11346TIP3    H255454   2.329   3.432  16.643 -0.6469  0.8955  0.6141
11347TIP3   OH255455   0.653   3.596  12.216  0.1778  0.5936 -0.4162
11347TIP3    H155456   0.635   3.505  12.241  1.1775  0.2986 -0.7410
11347TIP3    H255457   0.650   3.644  12.299  3.2650 -0.3500  0.3754
11348TIP3   OH255458   2.717   2.021  12.576  0.2185 -0.0374  0.0542
11348TIP3    H155459   2.681   2.108  12.590  0.8768 -0.1273  2.8379
11348TIP3    H255460   2.738   1.989  12.663  1.6264 -2.3058 -1.0111
11349TIP3   OH255461   5.590   0.643   2.165  0.2930  0.0175 -0.1935
11349TIP3    H155462   5.515   0.701   2.153  1.2691  0.9561 -2.2021
11349TIP3    H255463   5.558   0.556   2.141 -0.0455  0.4950 -1.5301
11350TIP3   OH255464   3.742   4.185  12.147  0.0871 -0.0739  0.2762
11350TIP3    H155465   3.736   4.200  12.241 -0.1374 -0.0330  0.2563
11350TIP3    H255466   3.653   4.201  12.114  0.4530  1.2501 -0.1363
11351TIP3   OH255467   4.284   0.009   3.624 -0.2913 -0.6932 -0.1364
11351TIP3    H155468   4.256  -0.059   3.685  1.4426 -2.2566 -0.9842
11351TIP3    H255469   4.317  -0.039   3.548  0.7280  1.1004 -0.8923
11352TIP3   OH255470   3.865   5.346   4.186  0.0034 -0.1252  0.2515
11352TIP3    H155471   3.942   5.376   4.234  0.1854 -2.2305  1.4144
11352TIP3    H255472   3.819   5.289   4.248 -1.5485 -0.3013 -1.0052
11353TIP3   OH255473   1.700   2.764   3.343  1.0201 -0.0861  0.1511
11353TIP3    H155474   1.701   2.742   3.249  0.9649 -1.7495  0.5175
11353TIP3    H255475   1.792   2.773   3.366  1.0179  1.0859 -0.1990
11354TIP3   OH255476   4.155   0.624  16.472 -0.6782  0.1429  0.0953
11354TIP3    H155477   4.130   0.695  16.531 -0.2588  1.8875 -1.7114
11354TIP3    H255478   4.250   0.626  16.471 -0.6886  0.8810 -1.4456
11355TIP3   OH255479   1.597   3.723  12.695  0.4464  0.0237  0.6464
11355TIP3    H155480   1.582   3.791  12.629 -1.2380  1.0447  1.9743
11355TIP3    H255481   1.515   3.719  12.744  1.3897 -1.1810  2.2350
11356TIP3   OH255482   6.084   3.809  13.222  0.1801 -0.1442 -0.0007
11356TIP3    H155483   6.115   3.734  13.273 -0.3861 -0.1109  0.4051
11356TIP3    H255484   5.992   3.790  13.204  0.3453 -0.1002 -0.9278
11357TIP3   OH255485   0.347   5.686  15.350  0.5031 -0.4137  0.1268
11357TIP3    H155486   0.262   5.695  15.307  2.0141  1.4073 -2.7779
11357TIP3    H255487   0.349   5.756  15.415  0.7185  1.4283 -1.7308
11358TIP3   OH255488   4.593   3.399  11.947 -0.0897 -0.1985 -0.2173
11358TIP3    H155489   4.542   3.320  11.930 -0.4823 -0.6788  2.6857
11358TIP3    H255490   4.543   3.447  12.012  2.2311  0.2180  1.4033
11359TIP3   OH255491   0.590   3.964   4.651  0.4967 -0.3443 -0.1295
11359TIP3    H155492   0.514   3.948   4.707 -0.1731 -1.4703 -1.3205
11359TIP3    H255493   0.554   3.997   4.569  1.3261 -0.5700 -0.5963
11360TIP3   OH255494   5.895   4.147   3.044  0.3918  0.4007 -0.8262
11360TIP3    H155495   5.849   4.188   2.972  1.6324  0.3745 -1.6664
11360TIP3    H255496   5.976   4.197   3.053  0.7776 -0.3097 -0.2076
11361TIP3   OH255497   3.982   0.914   4.709  0.2371 -0.2364  0.3955
11361TIP3    H155498   4.060   0.929   4.656  0.6853  0.4842  1.2244
11361TIP3    H255499   3.922   0.867   4.652  1.2705 -0.7731 -0.2645
11362TIP3   OH255500   1.163   1.109  13.166 -0.1084  0.0490 -0.5819
11362TIP3    H155501   1.164   1.128  13.072  0.5276  1.0523 -0.3814
11362TIP3    H255502   1.082   1.061  13.179  0.0596 -0.6128 -1.7401
11363TIP3   OH255503   0.791   1.550   5.720 -0.1020  0.4857  0.0564
11363TIP3    H155504   0.701   1.580   5.707  0.7862  2.6503 -1.6986
11363TIP3    H255505   0.833   1.559   5.634  2.3169  1.5140  1.2414
11364TIP3   OH255506   3.171   0.308  16.837 -0.8584 -0.7269 -0.4872
11364TIP3    H155507   3.155   0.248  16.910  1.4037 -0.4517  0.3206
11364TIP3    H255508   3.207   0.252  16.768 -0.1349 -0.5328 -0.2706
11365TIP3   OH255509   3.775   1.400  14.960  0.5213  0.1589 -0.3090
11365TIP3    H155510   3.756   1.311  14.990  0.8855  0.6135  1.3467
11365TIP3    H255511   3.690   1.437  14.939  0.3643 -0.5581 -0.9991
11366TIP3   OH255512   6.730   2.522  16.876  0.2356  0.5630 -0.6505
11366TIP3    H155513   6.821   2.529  16.848  0.8093  0.5937  1.0863
11366TIP3    H255514   6.730   2.449  16.938 -0.6567  1.3391  0.3028
11367TIP3   OH255515   4.729   4.540  14.736 -0.1562  0.1120  0.4454
11367TIP3    H155516   4.789   4.522  14.808  0.6344 -0.6978 -0.3876
11367TIP3    H255517   4.782   4.585  14.671 -0.6032 -0.0682 -0.0542
11368TIP3   OH255518   0.734   6.514   3.598 -0.1394 -0.1465 -0.6384
11368TIP3    H155519   0.650   6.538   3.637  0.3261 -0.8201  0.8184
11368TIP3    H255520   0.738   6.567   3.518 -1.2214  1.1179  0.0909
11369TIP3   OH255521   3.089   2.677  14.213  0.3952  0.0683  0.0152
11369TIP3    H155522   3.029   2.750  14.201 -1.7359 -1.3922  1.1035
11369TIP3    H255523   3.120   2.656  14.125  0.1884  1.5562 -0.4429
11370TIP3   OH255524   0.134   0.588   0.040 -0.0876 -0.3336  0.0399
11370TIP3    H155525   0.066   0.539   0.087 -0.8676 -2.5164 -3.1002
11370TIP3    H255526   0.087   0.662   0.002 -0.2137 -0.4987 -0.1304
11371TIP3   OH255527   0.056   2.536  12.763 -0.3176  0.8623  0.4825
11371TIP3    H155528   0.024   2.622  12.734  2.3115  0.9450 -2.8897
11371TIP3    H255529   0.012   2.474  12.705  0.5097  0.3365  0.4019
11372TIP3   OH255530   3.970   5.756  16.703  0.1020 -0.1784  0.5878
11372TIP3    H155531   3.976   5.683  16.765  1.7364  0.2092  0.9222
11372TIP3    H255532   3.885   5.796  16.722 -0.4195 -1.4315  1.0159
11373TIP3   OH255533   0.536   0.618   5.900  0.0931  0.7275  0.1095
11373TIP3    H155534   0.518   0.529   5.929 -0.0401  0.2097 -1.5245
11373TIP3    H255535   0.450   0.657   5.885  0.0218  1.9225  2.9252
11374TIP3   OH255536   0.628   3.987  14.257 -0.0813  0.1047  0.4419
11374TIP3    H155537   0.703   3.931  14.278  2.7233  2.6897 -1.7434
11374TIP3    H255538   0.640   4.064  14.312 -1.4481  0.3744  0.3920
11375TIP3   OH255539   0.112   3.352  14.200 -0.0666  0.1666  0.2017
11375TIP3    H155540   0.072   3.333  14.115  0.1085 -0.1395  0.1847
11375TIP3    H255541   0.044   3.331  14.264  0.4666 -1.6329  0.2497
11376TIP3   OH255542   5.212   2.778  16.866  0.6288 -0.5109  0.0509
11376TIP3    H155543   5.179   2.700  16.910  1.7144 -1.5796 -0.9289
11376TIP3    H255544   5.134   2.827  16.841 -0.1270 -1.7181 -0.0398
11377TIP3   OH255545   6.271   3.321   4.634  0.1730 -0.0396 -0.5922
11377TIP3    H155546   6.218   3.274   4.570 -0.2170 -1.2877  0.5975
11377TIP3    H255547   6.290   3.405   4.593 -0.3511 -0.6670 -2.1906
11378TIP3   OH255548   1.925   0.935  14.227 -0.7550  0.1658  0.5942
11378TIP3    H155549   1.856   0.921  14.162  0.6531 -1.0907 -0.7323
11378TIP3    H255550   1.888   0.904  14.309 -1.4943 -1.2992 -0.2609
11379TIP3   OH255551   5.177   6.042   1.196  0.1498  0.1995 -0.3603
11379TIP3    H155552   5.084   6.028   1.213  0.7016 -2.1226  1.1764
11379TIP3    H255553   5.182   6.132   1.164 -2.6275  0.3232 -0.6803
11380TIP3   OH255554   2.627   0.780   2.741  0.3831  0.0220  0.2994
11380TIP3    H155555   2.645   0.866   2.703  1.0133 -0.4163 -0.4196
11380TIP3    H255556   2.532   0.778   2.750  0.1062 -0.1240 -1.9792
11381TIP3   OH255557   3.135   1.321   5.163  0.1414 -0.2231  0.2831
11381TIP3    H155558   3.043   1.314   5.188  0.2209 -2.0980  0.2268
11381TIP3    H255559   3.154   1.415   5.163 -0.9011  0.1147  3.4321
11382TIP3   OH255560   1.673   4.968  11.396  0.4036 -0.1217 -0.0056
11382TIP3    H155561   1.632   5.050  11.369  0.6073  0.2205  0.7177
11382TIP3    H255562   1.680   4.917  11.315 -4.3803 -1.5525  0.1999
11383TIP3   OH255563   3.745   3.939  12.031 -0.0596  0.0713  0.0111
11383TIP3    H155564   3.664   3.952  11.980  0.5960 -0.3996 -1.1840
11383TIP3    H255565   3.773   4.027  12.054 -0.4314  0.2855 -0.3401
11384TIP3   OH255566   3.318   5.652  13.071 -0.3299  0.0110 -0.7335
11384TIP3    H155567   3.247   5.639  13.134 -0.2826  0.2540 -0.6286
11384TIP3    H255568   3.276   5.687  12.993 -0.1924  1.2392 -0.2867
11385TIP3   OH255569   4.942   4.249  13.729  0.4732  0.1721 -0.1895
11385TIP3    H155570   4.923   4.331  13.684  1.1155  0.8412  0.7029
11385TIP3    H255571   5.021   4.216  13.686 -1.3822 -1.5615 -2.5365
11386TIP3   OH255572   1.910   2.104  16.683 -0.8362 -0.0007  0.4469
11386TIP3    H155573   1.931   2.029  16.626 -1.6427 -0.0017  0.1326
11386TIP3    H255574   1.836   2.074  16.736  0.0528 -0.0763  1.6818
11387TIP3   OH255575   2.033   0.689   3.804  0.5122  0.4131  0.0125
11387TIP3    H155576   2.058   0.711   3.894 -1.1253  2.5976  0.0400
11387TIP3    H255577   1.970   0.618   3.813  0.6411  0.3668  0.5694
11388TIP3   OH255578   5.930   3.864  14.788  0.0288 -0.1011 -0.7935
11388TIP3    H155579   5.883   3.905  14.716  0.2541  2.8206  0.5816
11388TIP3    H255580   5.914   3.921  14.863  0.2509 -2.7027  1.3943
11389TIP3   OH255581   0.564   6.257  16.117 -0.5484 -0.0740 -0.0213
11389TIP3    H155582   0.598   6.203  16.046 -1.6496  0.1647 -0.7517
11389TIP3    H255583   0.559   6.345  16.081 -0.7426  0.1295  0.4850
11390TIP3   OH255584   0.701   5.009  16.104  0.1299  0.1790 -0.3004
11390TIP3    H155585   0.698   4.970  16.017  0.2847  0.0175 -0.2357
11390TIP3    H255586   0.760   5.084  16.095  0.3265  0.0275 -0.2843
11391TIP3   OH255587   3.355   5.249  15.098  0.7916 -0.1911 -0.1129
11391TIP3    H155588   3.373   5.330  15.052  1.2595 -0.5134 -0.5130
11391TIP3    H255589   3.420   5.246  15.168  0.7570 -0.2043 -0.0806
11392TIP3   OH255590   0.954   6.743   2.110 -0.5541  1.0375  0.2684
11392TIP3    H155591   0.877   6.772   2.062  0.2410  3.1842  0.1590
11392TIP3    H255592   0.948   6.788   2.194  0.7408  1.5514  0.1120
11393TIP3   OH255593   1.796   4.428  13.894  0.1261  0.1252  0.1999
11393TIP3    H155594   1.770   4.467  13.811  0.0814  3.1335  1.5103
11393TIP3    H255595   1.728   4.363  13.912 -0.8587  0.6953 -1.2349
11394TIP3   OH255596   5.590   2.915   1.887 -0.0729 -0.0713  0.1024
11394TIP3    H155597   5.558   2.841   1.835  1.1054  1.0038 -2.3083
11394TIP3    H255598   5.664   2.880   1.936  0.2629 -0.5931 -0.7616
11395TIP3   OH255599   5.960   5.633   6.682 -0.7190  0.1831  0.1166
11395TIP3    H155600   5.882   5.609   6.633 -1.7696 -0.0442  1.8041
11395TIP3    H255601   5.931   5.703   6.740  0.6285  0.8687 -0.0134
11396TIP3   OH255602   2.787   1.025   0.418  0.0712  0.0185 -0.1750
11396TIP3    H155603   2.796   0.956   0.484 -0.2019  1.1344  1.0844
11396TIP3    H255604   2.752   0.981   0.341 -1.2646 -1.0622  1.0035
11397TIP3   OH255605   4.777   2.713   5.300  0.7745  0.5001  0.1521
11397TIP3    H155606   4.706   2.774   5.279  0.5373  0.0531 -0.3590
11397TIP3    H255607   4.736   2.646   5.355  0.9675  0.6393  0.4682
11398TIP3   OH255608   1.667   0.883  13.472 -0.6341  0.2204  0.4478
11398TIP3    H155609   1.582   0.925  13.479 -0.4116  0.4569  1.8774
11398TIP3    H255610   1.729   0.947  13.507  0.1176 -0.0322 -0.3697
11399TIP3   OH255611   0.527   6.634  14.223  0.2874 -0.1591  0.1515
11399TIP3    H155612   0.622   6.629  14.228  0.2646  0.1921  1.3129
11399TIP3    H255613   0.510   6.704  14.160  0.8542  1.5065  1.7511
11400TIP3   OH255614   0.429   3.152   1.778 -1.1219 -0.8671 -0.1838
11400TIP3    H155615   0.395   3.215   1.714 -1.6975 -0.5254  0.4362
11400TIP3    H255616   0.466   3.206   1.847  1.0921 -1.2334 -1.0075
11401TIP3   OH255617   3.892   2.294   5.575 -0.0197  0.7260 -0.1214
11401TIP3    H155618   3.842   2.268   5.497 -0.2196 -1.4002  0.6575
11401TIP3    H255619   3.877   2.388   5.583  0.7935  1.2370 -3.1922
11402TIP3   OH255620   5.295   3.397   5.349 -1.0800  0.0039  0.4544
11402TIP3    H155621   5.283   3.420   5.257 -1.2643  1.2798  0.7780
11402TIP3    H255622   5.387   3.371   5.356 -0.0473  3.2913  0.5577
11403TIP3   OH255623   6.598   4.530   4.109  0.1501  0.1239 -0.0409
11403TIP3    H155624   6.585   4.484   4.026 -2.3734  0.8860 -0.1537
11403TIP3    H255625   6.590   4.461   4.175  0.8273 -0.2655 -0.3491
11404TIP3   OH255626   3.407   4.633  10.602  0.5193  0.6357 -0.4022
11404TIP3    H155627   3.328   4.666  10.646  1.0173 -0.2987  1.2912
11404TIP3    H255628   3.388   4.643  10.509 -1.8133 -0.0138 -0.0718
11405TIP3   OH255629   1.940   4.249   2.911  0.3101  0.2292  0.1008
11405TIP3    H155630   1.881   4.319   2.882  1.2546  0.5297 -1.1978
11405TIP3    H255631   1.888   4.169   2.906 -0.2915  0.6232 -0.0121
11406TIP3   OH255632   1.740   2.858   6.506 -0.0968  0.4896  0.0548
11406TIP3    H155633   1.657   2.877   6.463 -0.0011  1.5684  0.3209
11406TIP3    H255634   1.767   2.773   6.471 -1.2711  0.1641 -0.0914
11407TIP3   OH255635   5.896   6.135  12.263 -0.4820  0.1590  0.2975
11407TIP3    H155636   5.838   6.086  12.205 -0.1965  1.1355 -0.8552
11407TIP3    H255637   5.870   6.227  12.252  0.6407  0.5186  0.4776
11408TIP3   OH255638   2.948   2.068  17.289  0.0277  0.2406  0.5539
11408TIP3    H155639   2.967   2.134  17.356  1.3893 -0.9381  1.4049
11408TIP3    H255640   3.004   2.091  17.215  0.6498 -0.0198  0.9244
11409TIP3   OH255641   4.253   4.636   3.079 -0.0006 -0.2106  0.3325
11409TIP3    H155642   4.281   4.720   3.045 -2.1220  0.8617  1.0804
11409TIP3    H255643   4.258   4.576   3.004 -0.1086  0.9900 -0.6565
11410TIP3   OH255644   3.615   3.745   0.290  0.2792 -0.1686  0.3789
11410TIP3    H155645   3.575   3.659   0.279 -1.9913  1.0893 -2.9745
11410TIP3    H255646   3.552   3.794   0.344  0.7126 -0.0900  0.8232
11411TIP3   OH255647   0.149   2.493   5.014  0.1284  0.0404 -0.0795
11411TIP3    H155648   0.237   2.464   5.037  0.9880 -0.4992 -3.4386
11411TIP3    H255649   0.092   2.423   5.045  1.3685 -1.5693 -1.1981
11412TIP3   OH255650   2.538   6.336  16.088 -0.6225 -0.0967  0.2893
11412TIP3    H155651   2.566   6.356  16.177 -1.4209 -2.9249  1.2882
11412TIP3    H255652   2.479   6.261  16.098 -0.3332 -0.8364 -2.6730
11413TIP3   OH255653   1.776   5.769  16.768  0.2895  1.0452  0.2019
11413TIP3    H155654   1.715   5.832  16.807  1.0890  1.3893  0.9614
11413TIP3    H255655   1.781   5.794  16.676 -1.6870  0.1908 -0.1784
11414TIP3   OH255656   4.818   4.117  11.411 -0.2302 -0.2159  0.8707
11414TIP3    H155657   4.743   4.096  11.355  0.7900  0.1169 -0.6732
11414TIP3    H255658   4.782   4.116  11.499 -2.0297 -0.1876  0.1883
11415TIP3   OH255659   4.670   4.406  14.431 -0.1548 -0.0588 -0.2861
11415TIP3    H155660   4.652   4.500  14.435 -0.2022 -0.0973  0.5637
11415TIP3    H255661   4.584   4.364  14.439 -0.0437 -0.1822  0.3562
11416TIP3   OH255662   0.357   4.796  16.188 -0.7692 -0.5254 -0.5530
11416TIP3    H155663   0.277   4.742  16.187 -0.5325 -0.9212  0.4493
11416TIP3    H255664   0.410   4.759  16.258 -0.9188  1.4633  0.7051
11417TIP3   OH255665   2.442   5.289  14.428 -0.2408  0.5531 -0.2798
11417TIP3    H155666   2.386   5.213  14.408 -3.2184  2.2430  1.0204
11417TIP3    H255667   2.480   5.268  14.513  1.5799 -0.7679 -1.3321
11418TIP3   OH255668   4.404   0.259  12.486  0.2466 -0.1829 -0.0354
11418TIP3    H155669   4.438   0.177  12.450  1.0711 -0.2571  0.8634
11418TIP3    H255670   4.358   0.232  12.566 -0.5057  0.1028 -0.3723
11419TIP3   OH255671   4.845   2.174  17.278 -0.0548 -0.1032  0.4044
11419TIP3    H155672   4.917   2.112  17.285 -0.1922 -0.2208  0.8066
11419TIP3    H255673   4.803   2.153  17.194 -1.2338 -1.8116  1.3648
11420TIP3   OH255674   3.848   2.787   3.866 -0.2029  0.2417 -0.3584
11420TIP3    H155675   3.797   2.866   3.852  0.6567  0.9245  0.2458
11420TIP3    H255676   3.899   2.805   3.945  2.6078  0.4865 -2.0993
11421TIP3   OH255677   5.300   0.456   0.123 -0.1354 -0.0566  0.4305
11421TIP3    H155678   5.297   0.534   0.178 -1.8885  0.3141 -0.1248
11421TIP3    H255679   5.355   0.394   0.171 -1.5904  0.2391  2.6367
11422TIP3   OH255680   5.910   5.611   3.432  0.4614 -0.3960  0.4776
11422TIP3    H155681   5.883   5.618   3.524  1.7090  0.0669  0.8378
11422TIP3    H255682   5.866   5.533   3.399 -0.7752 -0.0135  1.1888
11423TIP3   OH255683   4.498   5.276   6.043 -0.3558  0.3878 -0.4386
11423TIP3    H155684   4.473   5.227   6.121  0.2665  1.7402  0.6398
11423TIP3    H255685   4.592   5.258   6.033  0.1390  2.1638  0.6132
11424TIP3   OH255686   5.293   4.904   3.528 -0.2411  0.7017 -0.4972
11424TIP3    H155687   5.301   4.808   3.528  0.9011  0.7038 -3.1789
11424TIP3    H255688   5.329   4.931   3.612  2.2614 -1.1111 -0.8607
11425TIP3   OH255689   3.724   2.287  15.489 -0.1386 -0.3254 -0.2777
11425TIP3    H155690   3.813   2.281  15.455  0.6292  0.0519  1.5511
11425TIP3    H255691   3.727   2.241  15.573 -0.7795  2.5275  1.4335
11426TIP3   OH255692   5.196   0.268  15.456 -0.1250  0.3360  0.1455
11426TIP3    H155693   5.238   0.217  15.525 -1.4036 -0.3296  0.4755
11426TIP3    H255694   5.129   0.319  15.502 -1.6824 -0.8723 -0.6852
11427TIP3   OH255695   6.651   6.208  16.081  0.6205 -0.0556 -0.1600
11427TIP3    H155696   6.602   6.283  16.115  0.3198 -0.2598 -0.1341
11427TIP3    H255697   6.657   6.148  16.154  1.4888  0.2489  0.0236
11428TIP3   OH255698   3.898   2.059   2.400 -0.4637  0.3259 -0.4681
11428TIP3    H155699   3.890   2.153   2.414  1.0267  0.6816 -1.6782
11428TIP3    H255700   3.979   2.035   2.446  0.0753 -0.0163 -1.5648
11429TIP3   OH255701   1.420   3.274   0.176 -0.0388 -0.7707  0.2946
11429TIP3    H155702   1.346   3.215   0.191  1.9555 -3.5677 -0.0810
11429TIP3    H255703   1.491   3.240   0.230  1.4359  0.9183 -0.4400
11430TIP3   OH255704   0.596   0.786  12.058 -0.0218 -0.0492 -0.1279
11430TIP3    H155705   0.645   0.868  12.047  0.3900 -0.2396  0.2698
11430TIP3    H255706   0.547   0.799  12.140  1.3451 -0.8362  0.8554
11431TIP3   OH255707   4.647   3.188   0.618  0.8541 -0.1986  0.0715
11431TIP3    H155708   4.676   3.178   0.527 -2.1824 -1.4362 -0.8852
11431TIP3    H255709   4.608   3.275   0.621 -0.1433 -0.6292 -0.1762
11432TIP3   OH255710   5.839   3.914  14.542  0.2871  0.6406  0.2942
11432TIP3    H155711   5.880   3.980  14.486  1.1422 -0.1886 -0.0831
11432TIP3    H255712   5.745   3.927  14.529  0.4528  1.3374 -0.2968
11433TIP3   OH255713   6.500   3.372  11.589  0.1664 -0.2041 -0.3940
11433TIP3    H155714   6.435   3.394  11.522  0.0314 -1.1090 -0.5816
11433TIP3    H255715   6.474   3.285  11.620  0.1074  0.2859  0.9971
11434TIP3   OH255716   6.208   5.448   0.023  0.0068  0.3853 -0.3860
11434TIP3    H155717   6.247   5.429   0.108 -1.2553  1.1309  0.3830
11434TIP3    H255718   6.114   5.441   0.037 -0.2092 -0.0991 -1.8866
11435TIP3   OH255719   1.869   6.552   5.387 -0.2678  0.0665  0.0622
11435TIP3    H155720   1.935   6.551   5.318 -0.1853 -2.4812  0.0912
11435TIP3    H255721   1.789   6.582   5.344  0.2924  0.6213 -0.6027
11436TIP3   OH255722   6.193   5.644  13.287 -0.0232  0.1405 -0.1162
11436TIP3    H155723   6.222   5.604  13.369  1.1797 -1.8904 -1.4560
11436TIP3    H255724   6.266   5.699  13.260 -0.3513  0.6715  0.0467
11437TIP3   OH255725   1.836   2.148  12.347 -0.1622 -0.0325 -0.6068
11437TIP3    H155726   1.820   2.146  12.442  2.0881  0.3131 -0.1780
11437TIP3    H255727   1.812   2.060  12.318 -0.4011 -0.3144  0.3775
11438TIP3   OH255728   4.230   2.619  15.018 -0.0309  0.5163  0.5197
11438TIP3    H155729   4.292   2.680  14.978  1.6444 -0.8147  0.9911
11438TIP3    H255730   4.169   2.598  14.948  0.8321  0.8470 -0.3568
11439TIP3   OH255731   3.599   3.384   3.712  0.5070 -0.3008  0.0698
11439TIP3    H155732   3.691   3.403   3.730  0.9269  0.3762 -2.4295
11439TIP3    H255733   3.601   3.300   3.667 -0.4925 -1.9777  2.9328
11440TIP3   OH255734   0.529   1.242  15.392 -0.0883 -0.3624  0.1126
11440TIP3    H155735   0.581   1.315  15.425  0.5888 -1.1428  0.8164
11440TIP3    H255736   0.438   1.267  15.410  0.0184  1.0269 -1.1621
11441TIP3   OH255737   4.845   1.876  16.994 -0.0598  0.2193  0.1477
11441TIP3    H155738   4.819   1.968  16.999 -1.5380 -0.2362  1.6178
11441TIP3    H255739   4.938   1.876  17.015  0.2266  1.4690 -0.9589
11442TIP3   OH255740   2.625   6.456   1.027 -0.5655 -0.2210  0.0306
11442TIP3    H155741   2.571   6.485   0.953  0.7983  0.4626 -0.7360
11442TIP3    H255742   2.696   6.407   0.987 -0.7309 -1.3521  1.0536
11443TIP3   OH255743   2.862   1.423   4.910  0.3700 -0.1054 -0.5311
11443TIP3    H155744   2.914   1.501   4.928  0.4676 -0.2710 -0.0673
11443TIP3    H255745   2.856   1.378   4.995  0.3643 -0.6309 -0.8025
11444TIP3   OH255746   1.875   4.312   4.070  0.2014 -0.2669  0.2821
11444TIP3    H155747   1.885   4.266   4.153  0.5991  2.1161  1.6610
11444TIP3    H255748   1.965   4.332   4.043  0.0162  0.7093  0.3513
11445TIP3   OH255749   1.493   1.094  16.687 -0.1841 -0.7610 -0.4786
11445TIP3    H155750   1.529   1.119  16.602 -0.0691 -0.6097 -0.3864
11445TIP3    H255751   1.500   1.173  16.740  1.2649 -1.2885  0.1767
11446TIP3   OH255752   1.419   6.377   6.644 -0.3516  0.4526  0.3370
11446TIP3    H155753   1.511   6.401   6.631 -0.0489 -1.2210 -0.8495
11446TIP3    H255754   1.377   6.460   6.667  0.9061  1.8871 -2.0456
11447TIP3   OH255755   2.503   1.499   2.940  0.0385 -0.4568  0.5081
11447TIP3    H155756   2.486   1.583   2.982 -0.3836  0.3337 -1.1661
11447TIP3    H255757   2.592   1.476   2.967  0.1497  0.5079  0.9976
11448TIP3   OH255758   4.506   0.911  15.142  0.0569  0.2790 -0.3525
11448TIP3    H155759   4.485   0.917  15.049  1.3229  2.0909 -0.5847
11448TIP3    H255760   4.581   0.852  15.146  0.0154  0.2178 -0.4960
11449TIP3   OH255761   6.603   2.566   3.843 -0.0514 -0.1045  1.0213
11449TIP3    H155762   6.604   2.520   3.927 -1.7309  0.1080  1.1736
11449TIP3    H255763   6.540   2.518   3.790  0.4434  0.2187  0.1271
11450TIP3   OH255764   5.321   6.221  16.897 -0.5341 -0.0867  0.4954
11450TIP3    H155765   5.321   6.260  16.984  1.0556 -0.1985  0.5633
11450TIP3    H255766   5.287   6.290  16.840 -2.1799 -0.2164  1.2569
11451TIP3   OH255767   4.817   1.035   4.407  0.5528 -0.4030  0.0583
11451TIP3    H155768   4.786   1.039   4.317 -2.1861 -1.7686  0.8399
11451TIP3    H255769   4.875   0.959   4.410  1.4605  0.2320 -0.7107
11452TIP3   OH255770   2.089   0.217  15.859  0.4920  0.2524  0.0121
11452TIP3    H155771   2.146   0.241  15.786  0.9433  0.4901  0.4390
11452TIP3    H255772   2.121   0.268  15.933 -0.5404  0.7071  0.1659
11453TIP3   OH255773   6.654   3.838  13.577  0.7930  0.3646  0.0683
11453TIP3    H155774   6.605   3.852  13.658 -0.5865 -0.7970 -0.5332
11453TIP3    H255775   6.687   3.925  13.554 -0.0094  0.9650  1.0900
11454TIP3   OH255776   4.303   3.643  14.370  0.0037 -0.0780 -0.0903
11454TIP3    H155777   4.217   3.644  14.412  0.0739 -2.4953  0.2919
11454TIP3    H255778   4.354   3.582  14.423  1.2450 -0.3982 -1.5806
11455TIP3   OH255779   5.764   4.936  15.171  0.0613 -0.2281 -0.5988
11455TIP3    H155780   5.796   4.919  15.259 -0.5096  0.9352 -0.1340
11455TIP3    H255781   5.785   5.028  15.156  0.3832 -0.4852 -1.7841
11456TIP3   OH255782   6.161   4.294   1.456  0.6659 -0.0257  0.1122
11456TIP3    H155783   6.217   4.268   1.529 -0.5420 -0.9920  0.7305
11456TIP3    H255784   6.221   4.306   1.383  2.0600  2.0053  1.4817
11457TIP3   OH255785   1.307   4.944   4.881 -0.5186 -0.0870 -0.3226
11457TIP3    H155786   1.326   5.030   4.919  0.8330 -0.6364  0.3417
11457TIP3    H255787   1.271   4.963   4.795  1.0830  1.1605 -0.7735
11458TIP3   OH255788   6.059   0.782   3.249  0.8615  0.1336  0.2862
11458TIP3    H155789   6.089   0.848   3.187  1.0673 -0.5607 -0.3760
11458TIP3    H255790   6.015   0.831   3.318  2.3064  1.0715  0.5757
11459TIP3   OH255791   4.615   6.386   4.679 -0.4138 -0.2689 -0.0305
11459TIP3    H155792   4.551   6.437   4.729 -0.0771 -0.6945  0.8520
11459TIP3    H255793   4.578   6.297   4.676 -0.9299 -0.0262 -1.4368
11460TIP3   OH255794   2.788   5.948   6.168 -0.1957  0.1439  0.2945
11460TIP3    H155795   2.723   5.884   6.199 -0.3752  1.2189  2.2762
11460TIP3    H255796   2.738   6.027   6.151  0.1078 -0.0306 -1.6609
11461TIP3   OH255797   3.912   6.046  15.560  0.2196 -0.7248 -0.3616
11461TIP3    H155798   3.917   5.973  15.622  0.1728 -0.9697 -0.6407
11461TIP3    H255799   3.833   6.094  15.586 -0.8327 -1.8425 -1.3016
11462TIP3   OH255800   4.657   0.561   5.366 -0.3996 -0.3857  0.3192
11462TIP3    H155801   4.682   0.637   5.313 -0.7020 -1.6898 -1.8092
11462TIP3    H255802   4.736   0.542   5.418 -0.1781  1.0967  0.5780
11463TIP3   OH255803   1.334   5.581   4.124  0.4410 -0.0432 -0.2965
11463TIP3    H155804   1.301   5.540   4.204  0.7534 -0.3312 -0.3140
11463TIP3    H255805   1.307   5.523   4.053 -1.8627  1.3496 -0.6786
11464TIP3   OH255806   3.238   3.261   2.792 -0.4262  0.3900 -0.0395
11464TIP3    H155807   3.312   3.207   2.765  0.4073  1.7151 -0.5346
11464TIP3    H255808   3.169   3.241   2.728  0.5784  1.3963 -1.5226
11465TIP3   OH255809   6.442   4.881  13.036  0.0740  1.0946  0.7162
11465TIP3    H155810   6.404   4.966  13.017 -1.3306  0.0623 -1.5272
11465TIP3    H255811   6.535   4.891  13.017 -0.4946  1.4841 -2.4262
11466TIP3   OH255812   6.257   1.068  13.992  0.1647 -0.3607 -0.4275
11466TIP3    H155813   6.174   1.110  14.015 -0.4334 -0.3476 -2.3981
11466TIP3    H255814   6.315   1.141  13.972  0.1964 -0.4055 -0.4973
11467TIP3   OH255815   1.101   3.913   4.612  0.6514  0.2409 -0.2922
11467TIP3    H155816   1.055   3.833   4.590 -0.0605  0.8383 -1.0178
11467TIP3    H255817   1.032   3.978   4.627  1.1827  0.5312  1.0843
11468TIP3   OH255818   2.392   4.636   0.767 -0.1046  0.2225  0.0360
11468TIP3    H155819   2.302   4.636   0.736 -0.3130 -1.0723  0.5879
11468TIP3    H255820   2.387   4.610   0.859  0.8366 -0.1375  0.0064
11469TIP3   OH255821   3.305   1.098  11.999  0.0689  0.4465  0.0443
11469TIP3    H155822   3.317   1.057  11.913  2.0117 -0.1177  0.5468
11469TIP3    H255823   3.308   1.192  11.980  1.1177  0.3328 -0.4670
11470TIP3   OH255824   4.205   1.417  16.377 -0.3839 -0.1052 -0.1021
11470TIP3    H155825   4.213   1.372  16.461 -1.9644  0.2213  0.2658
11470TIP3    H255826   4.293   1.416  16.340  1.0458  2.2761  2.8484
11471TIP3   OH255827   0.246   5.572  15.709  0.3888  0.4973  0.4142
11471TIP3    H155828   0.157   5.555  15.739  0.5150  2.2065  1.9482
11471TIP3    H255829   0.299   5.566  15.788  1.8518 -1.5321 -0.6369
11472TIP3   OH255830   1.077   3.342   5.009  0.3755  0.0139  0.2984
11472TIP3    H155831   1.091   3.348   5.103 -0.6723  1.8546  0.4076
11472TIP3    H255832   0.987   3.310   5.000  0.3756  0.1029 -0.0457
11473TIP3   OH255833   1.086   2.104  13.368  0.3572 -0.3754  0.0872
11473TIP3    H155834   1.009   2.047  13.379  1.2087 -1.5939 -0.1297
11473TIP3    H255835   1.157   2.058  13.412  1.5289 -0.4961 -1.8006
11474TIP3   OH255836   5.140   2.361  13.029  0.4807  0.1683  0.2438
11474TIP3    H155837   5.091   2.301  13.085 -0.7747  2.1588  1.4039
11474TIP3    H255838   5.146   2.316  12.944 -2.1688 -0.7665  0.4727
11475TIP3   OH255839   3.753   4.856  14.020 -0.2710 -0.3932  0.5331
11475TIP3    H155840   3.664   4.885  13.999 -0.1445 -0.8581 -0.7854
11475TIP3    H255841   3.789   4.925  14.075 -1.0427  0.4156  0.0443
11476TIP3   OH255842   2.381   0.765   3.009  0.1599 -0.2054 -0.1569
11476TIP3    H155843   2.469   0.783   3.043 -0.2891 -1.4243  1.8659
11476TIP3    H255844   2.322   0.801   3.076 -0.8708 -0.1759 -1.0564
11477TIP3   OH255845   4.800   1.991  11.511  0.4401  0.5730  0.5969
11477TIP3    H155846   4.751   1.934  11.569  1.9316  1.6714  3.1084
11477TIP3    H255847   4.885   1.948  11.500  0.5609  0.9126  0.1487
11478TIP3   OH255848   4.081   1.790   2.541  0.4300 -0.3148 -0.6965
11478TIP3    H155849   4.015   1.782   2.472  0.7128  0.1560 -1.0269
11478TIP3    H255850   4.051   1.730   2.610 -0.6613  0.3528 -0.5736
11479TIP3   OH255851   4.972   6.343   4.141 -0.2073  0.0045  0.1076
11479TIP3    H155852   5.003   6.417   4.194  0.4622 -0.6110  0.5897
11479TIP3    H255853   4.999   6.365   4.052  0.0989  0.2865  0.2668
11480TIP3   OH255854   3.206   2.138  11.771 -0.6066 -0.4947 -0.1671
11480TIP3    H155855   3.197   2.097  11.684  1.1351 -2.1256  0.3644
11480TIP3    H255856   3.153   2.084  11.829 -1.1947  0.1788 -0.0538
11481TIP3   OH255857   2.651   2.782   4.668  0.7210 -0.1467 -0.1967
11481TIP3    H155858   2.697   2.866   4.664 -0.5139  0.6685  1.5181
11481TIP3    H255859   2.646   2.762   4.762 -0.8257 -1.1020 -0.4469
11482TIP3   OH255860   0.271   2.853  14.592  0.4245  0.2292 -0.0145
11482TIP3    H155861   0.186   2.810  14.580  0.4592  0.4817 -1.2874
11482TIP3    H255862   0.333   2.799  14.542  0.5255  1.5479 -1.3861
11483TIP3   OH255863   6.382   2.243  13.301 -0.3593 -0.4542 -0.7188
11483TIP3    H155864   6.443   2.281  13.364 -1.3319 -2.9254  1.9484
11483TIP3    H255865   6.298   2.283  13.322 -0.5161 -0.5463 -1.1615
11484TIP3   OH255866   2.649   3.695  16.527 -0.3298 -0.0358  0.9165
11484TIP3    H155867   2.659   3.685  16.621  1.6690  0.1869  0.7791
11484TIP3    H255868   2.725   3.747  16.500  0.3407 -1.8868 -1.0866
11485TIP3   OH255869   1.963   1.619   4.856 -0.0405 -0.1386 -0.2683
11485TIP3    H155870   1.967   1.675   4.778  1.1188 -1.4231 -1.1790
11485TIP3    H255871   2.043   1.641   4.905 -0.1531 -0.2065 -0.0524
11486TIP3   OH255872   4.581   5.517   0.168 -1.1665  0.6994 -0.1561
11486TIP3    H155873   4.516   5.585   0.188 -1.2029  0.2661  1.2868
11486TIP3    H255874   4.630   5.506   0.249  0.8312  1.0963 -1.2366
11487TIP3   OH255875   3.450   1.065  14.084  0.4515 -0.0742  0.1325
11487TIP3    H155876   3.410   1.094  14.002  1.6237  0.7656 -0.1780
11487TIP3    H255877   3.542   1.092  14.076  1.0473 -1.7703  0.8720
11488TIP3   OH255878   2.983   5.051  16.624  0.0342  0.4571  0.2762
11488TIP3    H155879   3.063   5.079  16.669 -0.2988 -0.2522  1.3596
11488TIP3    H255880   3.003   5.060  16.531  1.5710 -0.2297  0.5043
11489TIP3   OH255881   3.843   1.754   6.003  0.5491  0.0472  0.2786
11489TIP3    H155882   3.881   1.684   5.950 -0.7114  0.4010 -1.1492
11489TIP3    H255883   3.765   1.714   6.043 -0.8319  0.8799 -1.4506
11490TIP3   OH255884   3.693   6.678  11.768 -0.6251  0.0666 -0.1968
11490TIP3    H155885   3.736   6.614  11.712 -1.5720  0.8907 -1.9320
11490TIP3    H255886   3.609   6.639  11.790 -1.7351  1.1491 -2.2781
11491TIP3   OH255887   6.457   3.881  11.927  0.2687  0.2322 -0.2825
11491TIP3    H155888   6.478   3.966  11.888 -1.4327  0.7460 -0.1869
11491TIP3    H255889   6.414   3.903  12.010  0.5602 -0.7524  0.1428
11492TIP3   OH255890   1.299   1.361   3.891  0.2402 -0.1901  0.0871
11492TIP3    H155891   1.287   1.435   3.832  1.1062 -0.1368 -0.0208
11492TIP3    H255892   1.279   1.284   3.837  1.2046 -0.1539 -0.3275
11493TIP3   OH255893   3.221   1.184  11.247 -0.8659 -0.1464 -0.6765
11493TIP3    H155894   3.232   1.246  11.175  0.6914  1.2087  0.6591
11493TIP3    H255895   3.289   1.119  11.233 -0.0902  0.5147 -0.0723
11494TIP3   OH255896   0.564   6.452  13.133 -0.4720  0.1085  0.1493
11494TIP3    H155897   0.567   6.409  13.218 -0.6314 -1.0812 -0.4340
11494TIP3    H255898   0.473   6.480  13.124 -0.8229 -1.1300 -0.2811
11495TIP3   OH255899   3.417   6.658   3.754 -0.1055 -0.5961  0.5304
11495TIP3    H155900   3.401   6.693   3.667 -1.1128 -1.5646  0.3011
11495TIP3    H255901   3.437   6.735   3.808 -1.0794  0.2000 -0.2082
11496TIP3   OH255902   5.294   1.250  16.219  0.0191 -0.7119  0.1261
11496TIP3    H155903   5.276   1.183  16.285 -2.2616  0.5586  0.8903
11496TIP3    H255904   5.389   1.246  16.207  0.1359 -3.0705  1.1872
11497TIP3   OH255905   1.020   4.180   6.386 -0.4161 -0.6436  0.2098
11497TIP3    H155906   1.045   4.246   6.449 -0.2441 -0.7206  0.2227
11497TIP3    H255907   1.099   4.128   6.371 -0.0601  0.2322 -1.1254
11498TIP3   OH255908   3.751   0.420   6.410  0.3857 -0.0503 -0.2760
11498TIP3    H155909   3.847   0.422   6.416  0.3219  0.2469  1.0709
11498TIP3    H255910   3.723   0.503   6.449 -0.4639 -0.9603  1.1244
11499TIP3   OH255911   4.512   4.434   2.047 -0.2920 -0.1540  0.2149
11499TIP3    H155912   4.443   4.385   2.002  0.1611 -1.2792  0.7098
11499TIP3    H255913   4.587   4.374   2.048  0.0922  0.3295  1.3487
11500TIP3   OH255914   5.769   3.863   3.237  0.5043 -0.1227 -0.2409
11500TIP3    H155915   5.805   3.949   3.258  0.5434 -0.5241  1.4694
11500TIP3    H255916   5.844   3.803   3.245  0.0643 -0.5782  0.5713
11501TIP3   OH255917   4.127   2.285  17.274 -0.1801 -0.0838 -0.2859
11501TIP3    H155918   4.164   2.276  17.187 -1.0458  0.6154 -0.7400
11501TIP3    H255919   4.170   2.217  17.326  0.6928 -0.1867 -1.1306
11502TIP3   OH255920   0.859   0.675  13.318 -0.0810 -0.3969  0.3068
11502TIP3    H155921   0.839   0.630  13.236  2.1239 -0.4132 -0.2923
11502TIP3    H255922   0.817   0.760  13.310 -1.4929 -1.0908  0.0183
11503TIP3   OH255923   5.276   6.453  14.874 -0.0267  0.9217  0.4529
11503TIP3    H155924   5.371   6.455  14.865 -0.1523 -0.6654 -2.1501
11503TIP3    H255925   5.243   6.466  14.786 -2.2701  1.6629  1.3351
11504TIP3   OH255926   4.024   6.537  15.297 -0.4044  0.1814 -0.1725
11504TIP3    H155927   4.120   6.541  15.293 -0.0492 -1.7409  2.8978
11504TIP3    H255928   4.002   6.446  15.277 -1.5018  0.3774  0.0506
11505TIP3   OH255929   4.098   3.707  14.157  0.1735  0.2324 -0.1227
11505TIP3    H155930   4.113   3.679  14.247 -0.8035 -0.1070 -0.0557
11505TIP3    H255931   4.033   3.646  14.123  2.1996 -1.1186 -1.8247
11506TIP3   OH255932   3.136   0.376   3.768 -0.0323 -0.2193 -0.7066
11506TIP3    H155933   3.228   0.396   3.783 -0.5237  1.3264  0.6217
11506TIP3    H255934   3.131   0.349   3.676  1.3897  2.0104 -1.5101
11507TIP3   OH255935   0.251   3.093   5.090  0.7175 -1.0127 -0.7968
11507TIP3    H155936   0.204   3.168   5.124  0.2965 -1.3246 -0.6861
11507TIP3    H255937   0.206   3.071   5.009  0.3401 -1.6295 -0.4292
11508TIP3   OH255938   2.447   5.692  15.747 -0.1458  0.3329 -0.6986
11508TIP3    H155939   2.489   5.701  15.833 -1.0774  0.2543 -0.2280
11508TIP3    H255940   2.405   5.776  15.732 -1.3239 -0.1798 -0.3492
11509TIP3   OH255941   4.103   2.113   5.430 -0.2092  0.0452  0.0315
11509TIP3    H155942   4.139   2.201   5.416  1.3263 -0.6976 -0.9615
11509TIP3    H255943   4.104   2.073   5.343  1.2240 -1.7209  0.8063
11510TIP3   OH255944   3.746   4.916  14.435 -0.1532 -0.0521  0.1955
11510TIP3    H155945   3.823   4.917  14.492  0.3209 -1.4602 -0.3674
11510TIP3    H255946   3.761   4.841  14.377 -0.6701  1.2320 -1.6883
11511TIP3   OH255947   5.327   5.408  12.107  0.9858 -0.0395  0.2984
11511TIP3    H155948   5.344   5.497  12.138  2.0831 -0.4157  0.8374
11511TIP3    H255949   5.341   5.353  12.185 -2.8448 -0.4489  0.8797
11512TIP3   OH255950   1.314   5.951  13.884 -0.2832  0.1503  0.7534
11512TIP3    H155951   1.386   6.001  13.921  0.1364 -0.4767  0.8080
11512TIP3    H255952   1.282   5.897  13.957  2.1019 -2.9034 -0.2225
11513TIP3   OH255953   1.837   6.041   4.946  0.1558 -0.4533  0.4329
11513TIP3    H155954   1.837   5.967   5.007 -1.1275 -1.4301 -0.6719
11513TIP3    H255955   1.759   6.026   4.892 -0.7833  2.3382  0.8839
11514TIP3   OH255956   5.804   5.816  14.691  0.0460 -0.3315 -1.2676
11514TIP3    H155957   5.788   5.899  14.647 -0.2738 -0.3545 -1.2016
11514TIP3    H255958   5.785   5.834  14.784  3.0972  0.3914 -0.6773
11515TIP3   OH255959   1.448   5.256   1.020  0.3405  0.4544  0.0818
11515TIP3    H155960   1.429   5.163   1.035  1.7088  0.2802  0.8497
11515TIP3    H255961   1.491   5.285   1.100 -0.0504  1.7598 -0.1610
11516TIP3   OH255962   6.157   5.503  15.442  0.5988  0.2593 -0.0769
11516TIP3    H155963   6.100   5.575  15.469  0.5677 -0.4441  1.9538
11516TIP3    H255964   6.201   5.535  15.363 -1.0973  1.5858 -0.5299
11517TIP3   OH255965   1.052   3.517   3.754  0.1402  0.5650  0.0695
11517TIP3    H155966   1.119   3.579   3.781  0.1021  0.3233  0.7461
11517TIP3    H255967   1.060   3.444   3.816 -1.4189  0.9983  0.8542
11518TIP3   OH255968   0.672   3.017  13.642  0.1711 -0.6125  0.2468
11518TIP3    H155969   0.728   3.090  13.664  0.7174 -0.8034 -0.4779
11518TIP3    H255970   0.613   3.051  13.575  1.4335 -1.2197 -1.2367
11519TIP3   OH255971   6.441   5.898  14.008  0.4222  0.0925 -0.1332
11519TIP3    H155972   6.464   5.960  13.938 -0.5289  1.2252  0.5245
11519TIP3    H255973   6.476   5.938  14.088  1.8648 -1.3880  0.0392
11520TIP3   OH255974   1.781   0.188   3.204 -0.1045  0.1456 -0.2419
11520TIP3    H155975   1.788   0.094   3.186  1.5208  0.2804 -0.4561
11520TIP3    H255976   1.804   0.196   3.296  0.5780  0.4055 -0.4278
11521TIP3   OH255977   6.350   5.368   5.657 -0.0515 -0.3851 -0.3424
11521TIP3    H155978   6.329   5.301   5.722  0.1316 -0.3867 -0.2850
11521TIP3    H255979   6.441   5.351   5.634 -0.3878 -0.9658 -1.2893
11522TIP3   OH255980   2.641   4.407  12.521 -0.5150 -0.3958 -0.0372
11522TIP3    H155981   2.605   4.477  12.575  0.7785  0.4781 -0.2456
11522TIP3    H255982   2.634   4.440  12.431  0.0105 -0.5562 -0.1422
11523TIP3   OH255983   3.847   2.259  13.265  0.0110  0.3248  0.1404
11523TIP3    H155984   3.936   2.232  13.286 -0.1123 -0.8283 -0.7723
11523TIP3    H255985   3.855   2.307  13.183 -0.3204 -0.5503 -0.4074
11524TIP3   OH255986   3.030   0.991   4.320 -0.1373  0.1766  0.0835
11524TIP3    H155987   3.041   0.916   4.262  0.2736  0.4605 -0.2142
11524TIP3    H255988   3.119   1.011   4.349 -0.1144  1.1794 -0.6431
11525TIP3   OH255989   6.143   5.975   6.405 -0.0680 -0.0150  0.0250
11525TIP3    H155990   6.212   6.040   6.420  0.6554 -0.7863  0.1868
11525TIP3    H255991   6.098   6.004   6.326 -0.9796  1.6740  1.1152
11526TIP3   OH255992   4.013   0.124   4.217  0.0470  0.4072 -0.0009
11526TIP3    H155993   3.993   0.091   4.129 -3.6578  0.2398  0.7295
11526TIP3    H255994   4.026   0.045   4.270 -1.1383  0.3442  0.2249
11527TIP3   OH255995   2.498   2.986   4.812 -0.4406  0.6970 -0.6413
11527TIP3    H155996   2.436   2.990   4.885 -1.2211 -1.2443 -1.1177
11527TIP3    H255997   2.583   2.971   4.853 -0.3793  2.6206 -0.0165
11528TIP3   OH255998   2.330   5.065  11.131  0.4625  0.1941  0.3404
11528TIP3    H155999   2.266   5.084  11.063  0.6356  1.8412  0.5944
11528TIP3    H256000   2.371   4.983  11.104 -1.0333 -0.3531 -0.3389
11529TIP3   OH256001   2.905   0.774   6.009  0.3996 -0.1710  0.3945
11529TIP3    H156002   2.854   0.808   6.083  0.2794  1.2759 -0.3222
11529TIP3    H256003   2.977   0.726   6.050  0.4740  0.8104  1.4715
11530TIP3   OH256004   1.318   3.794  15.296 -0.4961  0.1559 -0.4123
11530TIP3    H156005   1.274   3.713  15.270  0.2293 -0.0787 -0.9385
11530TIP3    H256006   1.396   3.797  15.241 -0.3128  1.0143 -0.1110
11531TIP3   OH256007   2.458   5.314  12.360  0.2169  0.3129 -0.0960
11531TIP3    H156008   2.536   5.258  12.355 -0.0826 -0.0741 -0.5715
11531TIP3    H256009   2.480   5.390  12.306  0.4408  0.4294  0.1562
11532TIP3   OH256010   3.540   1.367   5.010  0.2947  0.2836 -0.8750
11532TIP3    H156011   3.489   1.431   5.061 -1.1013 -0.4560 -1.3102
11532TIP3    H256012   3.617   1.416   4.981 -0.3006  1.5211 -0.4385
11533TIP3   OH256013   0.072   3.056   3.148  0.0408  0.1457  0.1025
11533TIP3    H156014  -0.020   3.029   3.153 -0.0742  0.4443 -0.3151
11533TIP3    H256015   0.083   3.084   3.058  0.4137  0.5820  0.2833
11534TIP3   OH256016   3.076   0.740  14.294 -0.0820  0.1050  0.2217
11534TIP3    H156017   2.980   0.742  14.293 -0.0697  0.7845  0.1803
11534TIP3    H256018   3.102   0.769  14.207  0.1604 -0.6064  0.0497
11535TIP3   OH256019   2.416   0.495  16.519 -0.2459  0.2214 -0.2959
11535TIP3    H156020   2.339   0.479  16.574 -0.2854 -0.0553 -0.4277
11535TIP3    H256021   2.412   0.588  16.498 -1.9857 -0.2287 -2.4222
11536TIP3   OH256022   1.811   4.186   1.349 -0.5993  0.8381 -0.0227
11536TIP3    H156023   1.865   4.209   1.274 -1.2802 -0.3889 -0.9192
11536TIP3    H256024   1.865   4.207   1.425  1.8325 -1.7748 -0.8667
11537TIP3   OH256025   4.969   1.248  15.562 -0.2333  0.1432 -0.6810
11537TIP3    H156026   5.051   1.255  15.611  0.1219  0.6893 -1.3489
11537TIP3    H256027   4.986   1.291  15.479 -0.3293 -2.0806 -1.9445
11538TIP3   OH256028   2.310   2.072  13.477  0.2439 -0.3615  0.3045
11538TIP3    H156029   2.392   2.052  13.523 -0.0577  0.3159  1.1456
11538TIP3    H256030   2.331   2.149  13.424 -0.5255  1.4647  2.5229
11539TIP3   OH256031   3.786   5.608  11.569  0.4078 -0.3129  0.6876
11539TIP3    H156032   3.849   5.644  11.632  0.8198  1.5380 -0.7237
11539TIP3    H256033   3.839   5.561  11.506  0.2408  0.0298  0.2907
11540TIP3   OH256034   3.207   3.803   5.885  0.2237 -0.1037  0.1935
11540TIP3    H156035   3.217   3.755   5.968  2.5901  2.5626  1.6357
11540TIP3    H256036   3.160   3.882   5.910  0.9721  0.7446 -1.0129
11541TIP3   OH256037   3.605   5.513   4.144 -0.2696 -0.3927  0.5977
11541TIP3    H156038   3.557   5.434   4.169  0.5831 -1.4068 -0.8123
11541TIP3    H256039   3.696   5.485   4.139 -0.0883  0.3557 -1.0325
11542TIP3   OH256040   2.901   1.958  14.267 -0.1684 -0.3432 -0.3658
11542TIP3    H156041   2.981   2.009  14.277 -0.9638  0.5673  1.9283
11542TIP3    H256042   2.922   1.873  14.307 -0.6714  0.3461  1.4940
11543TIP3   OH256043   5.638   2.899   3.300 -0.5724 -0.0953  0.3551
11543TIP3    H156044   5.645   2.883   3.394  1.9308 -1.5154  0.0368
11543TIP3    H256045   5.637   2.994   3.292  1.2182  0.0981  1.7904
11544TIP3   OH256046   6.028   6.304   0.608  0.2892 -0.4012  0.8221
11544TIP3    H156047   5.990   6.391   0.621  1.4483  0.1333  0.7828
11544TIP3    H256048   6.116   6.310   0.646  0.8745 -1.1557 -0.3232
11545TIP3   OH256049   0.393   1.034  11.127  0.5826 -0.5394 -0.4526
11545TIP3    H156050   0.309   1.054  11.084  1.8839  1.0693 -2.4975
11545TIP3    H256051   0.443   0.987  11.060  1.4791 -1.0324  0.5514
11546TIP3   OH256052   6.133   6.130   5.102  0.4373 -0.2979  0.1682
11546TIP3    H156053   6.138   6.070   5.176  0.2528 -0.5037  0.0156
11546TIP3    H256054   6.081   6.203   5.133 -1.3159 -1.2722 -0.3577
11547TIP3   OH256055   5.143   1.216   2.673  0.1617  0.4728  0.3641
11547TIP3    H156056   5.086   1.187   2.744 -0.7918 -2.3689 -1.4300
11547TIP3    H256057   5.086   1.265   2.614  0.2503  0.1486  0.0081
11548TIP3   OH256058   3.260   3.310   0.976 -0.2609 -0.1822  0.7320
11548TIP3    H156059   3.252   3.401   1.003  1.9720 -0.3734  2.3479
11548TIP3    H256060   3.285   3.264   1.056 -2.4569 -2.4685  0.2436
11549TIP3   OH256061   5.097   4.308   2.064 -0.4609 -0.6417  0.3811
11549TIP3    H156062   5.018   4.335   2.109 -0.0325 -0.2307  0.9038
11549TIP3    H256063   5.112   4.218   2.094 -1.0357 -0.9138 -0.1534
11550TIP3   OH256064   6.532   1.955   2.074 -0.0431 -0.5079 -0.2543
11550TIP3    H156065   6.510   2.003   1.994  1.7755 -0.1082 -0.5396
11550TIP3    H256066   6.622   1.927   2.062  0.1103 -0.8729  1.4554
11551TIP3   OH256067   4.087   1.347   5.808  0.5313 -0.0527 -0.0457
11551TIP3    H156068   4.080   1.358   5.903 -0.1865  1.6997 -0.2692
11551TIP3    H256069   4.075   1.253   5.794  1.1777 -0.4095  1.6329
11552TIP3   OH256070   0.693   0.123   0.928 -0.1726 -0.5449 -0.0358
11552TIP3    H156071   0.633   0.100   0.998  0.6385  0.1241  0.9167
11552TIP3    H256072   0.655   0.201   0.888  0.5936  0.5723  1.3182
11553TIP3   OH256073   5.411   2.959   2.820  0.0743  0.4828  0.1599
11553TIP3    H156074   5.435   2.941   2.911  0.7715  2.8371  0.5120
11553TIP3    H256075   5.468   2.903   2.768  1.5218  0.9912  1.1525
11554TIP3   OH256076   4.812   3.553   2.606 -0.1897 -0.1435  0.2896
11554TIP3    H156077   4.885   3.537   2.666  0.0347 -1.0240 -0.1905
11554TIP3    H256078   4.853   3.555   2.519 -0.7632 -0.9533 -0.0119
11555TIP3   OH256079   5.883   6.091  13.841  0.0927 -0.3667  0.3481
11555TIP3    H156080   5.807   6.149  13.850  0.9448  1.2111 -1.7981
11555TIP3    H256081   5.944   6.122  13.908  0.0641  0.4548  0.0097
11556TIP3   OH256082   5.259   3.055   3.480 -0.5215  0.1769  0.1692
11556TIP3    H156083   5.350   3.081   3.465 -0.3898 -1.0104 -1.2995
11556TIP3    H256084   5.208   3.109   3.420 -0.6278 -0.2495 -0.1259
11557TIP3   OH256085   5.080   5.315   2.927 -0.2997 -0.6529  0.2730
11557TIP3    H156086   5.017   5.377   2.891 -0.4099 -0.1791  1.2632
11557TIP3    H256087   5.066   5.235   2.875 -2.1474 -0.7608  0.8693
11558TIP3   OH256088   0.726   5.155  15.128 -0.1192 -0.3458 -0.1099
11558TIP3    H156089   0.649   5.121  15.174 -1.2486  2.8197  0.6058
11558TIP3    H256090   0.725   5.111  15.044 -3.4923  0.3692 -0.6101
11559TIP3   OH256091   5.368   0.427  15.666  0.1998  0.0149 -0.0594
11559TIP3    H156092   5.382   0.485  15.590 -2.8404 -1.6540 -2.1201
11559TIP3    H256093   5.294   0.467  15.712 -1.0662 -1.4160 -0.7665
11560TIP3   OH256094   5.690   0.313  17.244 -0.2774  0.2926 -0.2666
11560TIP3    H156095   5.695   0.232  17.295 -0.6540 -0.4668 -1.4021
11560TIP3    H256096   5.612   0.357  17.278 -0.6357 -0.3017 -0.2915
11561TIP3   OH256097   6.412   0.673   2.766  0.0642 -0.1781 -0.2140
11561TIP3    H156098   6.370   0.744   2.814  0.7455 -0.5762  1.0054
11561TIP3    H256099   6.340   0.623   2.729 -0.4526  2.1479 -2.7083
11562TIP3   OH256100   3.263   3.532   2.338 -0.1898  0.0374 -0.8278
11562TIP3    H156101   3.314   3.565   2.411 -4.4414  2.8951  1.2155
11562TIP3    H256102   3.288   3.588   2.264 -0.2030  1.2109  0.0378
11563TIP3   OH256103   0.505   3.143   0.096  0.4062  0.4389 -0.0459
11563TIP3    H156104   0.566   3.155   0.023 -0.2572  0.2968 -0.6374
11563TIP3    H256105   0.426   3.108   0.055  0.8217 -1.9423  1.0402
11564TIP3   OH256106   2.880   0.487   3.673  0.4333  0.0375  0.1945
11564TIP3    H156107   2.916   0.404   3.706  1.4765  1.0312  1.6803
11564TIP3    H256108   2.957   0.533   3.637 -0.0448  0.5892 -0.1336
11565TIP3   OH256109   4.104   4.133   0.787  0.5208  0.2722  0.5977
11565TIP3    H156110   4.092   4.147   0.881 -2.5782  0.7275  0.2194
11565TIP3    H256111   4.159   4.207   0.759  0.5562  0.7384  1.8502
11566TIP3   OH256112   5.696   0.810  16.869  0.1778 -0.3344  0.3518
11566TIP3    H156113   5.639   0.887  16.870  0.8592  0.1843  0.3137
11566TIP3    H256114   5.636   0.736  16.866 -0.4946  0.1936  0.3959
11567TIP3   OH256115   2.016   3.707  17.186 -0.6327 -0.0864  0.2917
11567TIP3    H156116   2.024   3.792  17.230 -2.7312 -1.0873  2.8139
11567TIP3    H256117   1.922   3.694  17.175 -0.2855 -1.3351 -1.7637
11568TIP3   OH256118   2.588   5.655  16.477  0.4907 -0.2647 -0.0594
11568TIP3    H156119   2.509   5.639  16.529  0.4664  1.9025  0.6927
11568TIP3    H256120   2.555   5.683  16.392  0.4670 -0.2712 -0.0515
11569TIP3   OH256121   0.764   6.513  16.601  0.3516  0.1898  0.0656
11569TIP3    H156122   0.841   6.461  16.575  0.3437 -0.0494  0.5036
11569TIP3    H256123   0.739   6.478  16.686 -2.0613 -1.7606 -1.3209
11570TIP3   OH256124   3.188   4.690   2.312  0.0412 -0.2207  0.6433
11570TIP3    H156125   3.213   4.603   2.282 -0.1711  0.1386 -0.6344
11570TIP3    H256126   3.092   4.691   2.309  0.0714  0.6291 -1.1380
11571TIP3   OH256127   5.122   1.543  15.473  0.6473 -0.3371  0.5171
11571TIP3    H156128   5.047   1.594  15.503 -0.1571 -1.3733  0.3334
11571TIP3    H256129   5.168   1.601  15.413 -1.3948 -0.4611 -1.3065
11572TIP3   OH256130   1.071   4.680  14.684  0.4366 -0.0334 -0.1613
11572TIP3    H156131   1.125   4.610  14.721 -0.8050  0.0171  1.8950
11572TIP3    H256132   1.134   4.747  14.659  1.5272 -1.1341 -0.4930
11573TIP3   OH256133   2.769   6.690  14.357 -0.4054 -0.5550 -0.1732
11573TIP3    H156134   2.724   6.733  14.285 -1.6609 -2.3242 -0.5152
11573TIP3    H256135   2.816   6.617  14.316  0.8729 -0.1393  0.5032
11574TIP3   OH256136   5.502   3.134  15.640 -0.0636  0.3814  0.2377
11574TIP3    H156137   5.446   3.116  15.565 -0.2480  2.1475 -0.1093
11574TIP3    H256138   5.577   3.076  15.629  0.5678  1.5258 -2.1097
11575TIP3   OH256139   3.129   4.021   2.558 -0.2597 -0.1400 -0.3266
11575TIP3    H156140   3.117   4.028   2.653 -0.2061  0.7008 -0.3753
11575TIP3    H256141   3.217   3.984   2.548  0.4454  1.3832 -0.0486
11576TIP3   OH256142   3.663   4.233  13.765  0.4068 -0.1608  0.3253
11576TIP3    H156143   3.596   4.172  13.794 -1.5629  0.7638 -1.9424
11576TIP3    H256144   3.727   4.179  13.719  0.1855 -0.8212  0.7841
11577TIP3   OH256145   5.342   1.835  11.700 -0.4240 -0.1001  0.4060
11577TIP3    H156146   5.427   1.793  11.712 -0.0109  0.5530 -0.1138
11577TIP3    H256147   5.349   1.878  11.614 -0.4088  1.9437  1.3649
11578TIP3   OH256148   0.658   0.738  12.903 -0.3771 -0.2870  0.4620
11578TIP3    H156149   0.575   0.691  12.899 -1.2376  1.2627 -1.2917
11578TIP3    H256150   0.636   0.822  12.944  0.0598  0.5658 -0.9828
11579TIP3   OH256151   1.907   3.801  15.765 -0.3571  0.0424 -0.4353
11579TIP3    H156152   1.815   3.827  15.767  0.1060  1.7528  0.0301
11579TIP3    H256153   1.937   3.812  15.855 -0.2914 -3.0168  0.0200
11580TIP3   OH256154   2.172   5.959   5.607 -0.3184  0.1054  0.2238
11580TIP3    H156155   2.215   6.044   5.598 -0.7907  0.3481  0.2523
11580TIP3    H256156   2.146   5.954   5.699 -0.4361 -0.0025  0.1852
11581TIP3   OH256157   5.955   1.371  12.683 -0.4922 -0.0697  0.0609
11581TIP3    H156158   5.886   1.305  12.682  0.0280 -0.6328 -1.2363
11581TIP3    H256159   5.932   1.429  12.756  0.9767 -3.6497  3.6746
11582TIP3   OH256160   1.258   3.105  17.300  0.0149 -0.0975  0.1642
11582TIP3    H156161   1.177   3.129  17.256 -0.8692  0.7640  2.1364
11582TIP3    H256162   1.325   3.109  17.232 -1.2797  1.1390 -1.0846
11583TIP3   OH256163   3.714   3.858  12.365 -0.5227  0.5201 -0.2825
11583TIP3    H156164   3.709   3.786  12.302 -0.0723  0.0171  0.2511
11583TIP3    H256165   3.636   3.910  12.347  0.2247  1.1060 -2.1096
11584TIP3   OH256166   2.048   1.636  15.617 -1.0836 -0.0556  1.1450
11584TIP3    H156167   2.034   1.724  15.652  2.9329  1.5623 -0.6873
11584TIP3    H256168   2.116   1.599  15.672  1.5328  0.4881 -1.4594
11585TIP3   OH256169   5.223   2.265   5.258 -0.0993 -0.0796 -0.0014
11585TIP3    H156170   5.319   2.262   5.252 -0.0087  1.8260 -0.1107
11585TIP3    H256171   5.204   2.356   5.280 -1.6928 -1.1261  3.7010
11586TIP3   OH256172   0.813   5.094  10.760 -0.1039 -0.1371  0.7376
11586TIP3    H156173   0.838   5.011  10.718 -1.4411 -0.0926 -0.2236
11586TIP3    H256174   0.816   5.158  10.689 -1.7137  0.0886  0.8347
11587TIP3   OH256175   6.282   5.457   2.685  0.2536 -0.1065 -0.1430
11587TIP3    H156176   6.197   5.413   2.689 -0.1573  0.4720 -1.5944
11587TIP3    H256177   6.260   5.549   2.670  1.1287  0.2034  0.4420
11588TIP3   OH256178   2.101   2.265  12.220 -0.9125 -0.0906 -0.0451
11588TIP3    H156179   2.128   2.174  12.236 -2.0313 -0.5378 -0.5478
11588TIP3    H256180   2.020   2.274  12.271 -1.3601  0.2971 -0.8169
11589TIP3   OH256181   4.420   3.028  12.419 -0.4504 -0.5291 -0.0051
11589TIP3    H156182   4.350   3.038  12.355  0.3401  0.6926 -0.7065
11589TIP3    H256183   4.375   3.004  12.500 -1.4864 -1.8271 -0.9214
11590TIP3   OH256184   3.504   1.015   4.721 -0.3178 -0.5668  0.2229
11590TIP3    H156185   3.423   1.062   4.702  0.6863  1.2163  0.0638
11590TIP3    H256186   3.516   1.024   4.815 -2.0610 -3.9439  0.9078
11591TIP3   OH256187   3.609   5.719  16.564  0.2605  0.2682  0.2384
11591TIP3    H156188   3.521   5.720  16.526  0.6580  1.1445 -0.7099
11591TIP3    H256189   3.599   5.673  16.647 -1.0647  0.2428  0.0813
11592TIP3   OH256190   4.018   4.988   0.157  0.0927  0.0781  0.3982
11592TIP3    H156191   3.948   5.023   0.211  0.0458  0.1344  0.3017
11592TIP3    H256192   3.975   4.964   0.075  0.3854  1.1616 -0.0855
11593TIP3   OH256193   0.624   5.206  10.496  0.0207 -0.2550 -0.1800
11593TIP3    H156194   0.561   5.234  10.430  0.4552 -0.9904 -0.9201
11593TIP3    H256195   0.625   5.111  10.489  0.1646 -0.3332  0.8103
11594TIP3   OH256196   6.680   0.965  14.349  0.0248 -0.0220  0.2300
11594TIP3    H156197   6.678   0.871  14.364 -0.1520 -0.3112 -1.3889
11594TIP3    H256198   6.760   0.980  14.299  0.2975  0.7734  0.8709
11595TIP3   OH256199   1.954   6.527   1.621  0.0258 -0.0558 -0.1723
11595TIP3    H156200   1.943   6.574   1.538 -0.8875 -0.7813 -0.4807
11595TIP3    H256201   1.866   6.528   1.660  0.0940 -1.1185  0.0223
11596TIP3   OH256202   1.555   3.941  12.477  0.0496 -0.5324  0.1552
11596TIP3    H156203   1.522   3.997  12.547  1.6837  0.8688 -0.1336
11596TIP3    H256204   1.476   3.912  12.431 -0.9361  0.2044  1.3158
11597TIP3   OH256205   1.771   2.978   1.530 -0.4917  0.4633 -0.2816
11597TIP3    H156206   1.838   3.043   1.510  0.0517  0.4364  1.3020
11597TIP3    H256207   1.802   2.934   1.609 -1.6265 -0.6355 -0.3980
11598TIP3   OH256208   6.568   3.208   2.889 -0.9405 -0.3460 -0.3973
11598TIP3    H156209   6.474   3.227   2.882 -0.6080  1.9548  0.6880
11598TIP3    H256210   6.608   3.290   2.917  0.9843 -2.0650  2.4714
11599TIP3   OH256211   0.197   3.683   3.005 -0.0308  0.4095 -0.4990
11599TIP3    H156212   0.166   3.594   2.992  1.4005 -0.0690 -0.6861
11599TIP3    H256213   0.126   3.738   2.970 -0.4183 -0.6701 -1.4621
11600TIP3   OH256214   0.192   6.274  13.126 -0.3241  0.3497 -0.2958
11600TIP3    H156215   0.229   6.362  13.114  0.1095  0.1961 -0.1163
11600TIP3    H256216   0.120   6.287  13.188  1.2703  0.2297  1.6672
11601TIP3   OH256217   6.394   0.064   4.456  0.0607  0.1436  0.2768
11601TIP3    H156218   6.304   0.067   4.488  0.2141  1.5049  0.6609
11601TIP3    H256219   6.388   0.096   4.366  0.1383  0.1364  0.2692
11602TIP3   OH256220   3.519   1.420  17.311  0.0506 -0.0291 -0.1625
11602TIP3    H156221   3.537   1.349  17.250  0.7220 -0.8972  1.0141
11602TIP3    H256222   3.518   1.379  17.397 -0.4962  1.2319  0.4588
11603TIP3   OH256223   3.633   5.824   3.177  0.0524 -0.3327  0.4019
11603TIP3    H156224   3.581   5.755   3.218  0.7405  0.2507  2.3715
11603TIP3    H256225   3.573   5.898   3.169 -0.8838 -1.2563 -2.3319
11604TIP3   OH256226   3.159   1.468   0.638 -0.1224  0.0127 -0.3957
11604TIP3    H156227   3.212   1.495   0.564 -1.4527 -0.4156 -1.5626
11604TIP3    H256228   3.173   1.374   0.645 -0.2993 -0.0120 -0.3605
11605TIP3   OH256229   2.951   1.974  14.573  0.3378  0.2922 -0.1431
11605TIP3    H156230   3.021   1.909  14.565 -0.1577 -0.2489 -0.1684
11605TIP3    H256231   2.908   1.953  14.656 -0.2025  0.1904 -0.4353
11606TIP3   OH256232   3.666   3.210   5.831 -0.2814  0.7370 -0.4746
11606TIP3    H156233   3.705   3.185   5.915  0.5634  1.0171 -0.7795
11606TIP3    H256234   3.573   3.219   5.850 -0.3076 -0.5395  0.1322
11607TIP3   OH256235   5.115   0.535  15.707 -0.5548 -0.2100 -0.5419
11607TIP3    H156236   5.088   0.608  15.652 -0.0023  0.6633  0.3127
11607TIP3    H256237   5.110   0.569  15.797  1.6206 -0.5537 -0.2327
11608TIP3   OH256238   0.165   3.571  11.213 -0.0114  0.4686 -0.4524
11608TIP3    H156239   0.114   3.534  11.285 -1.2909  0.6859 -1.2222
11608TIP3    H256240   0.107   3.636  11.173  1.0343  1.0492 -1.0870
11609TIP3   OH256241   0.159   3.002   0.620 -0.3529 -0.2856 -0.3150
11609TIP3    H156242   0.200   3.038   0.698  3.9976 -0.4369 -2.2537
11609TIP3    H256243   0.182   2.909   0.621  0.0924 -0.2242 -1.8791
11610TIP3   OH256244   1.307   0.176  12.102  0.3141 -0.1393 -0.6077
11610TIP3    H156245   1.393   0.146  12.074  1.2186  0.6496  1.1536
11610TIP3    H256246   1.321   0.212  12.190 -1.8899 -0.3554 -0.0957
11611TIP3   OH256247   1.294   5.064  15.479  0.0190 -0.0835  0.3189
11611TIP3    H156248   1.326   5.115  15.405 -0.7349 -1.7769 -1.2443
11611TIP3    H256249   1.250   5.129  15.535  0.8892  1.2854 -0.5162
11612TIP3   OH256250   3.779   5.395  14.410  0.2728  0.5412  0.6908
11612TIP3    H156251   3.724   5.472  14.423 -0.9550  0.0212 -1.0082
11612TIP3    H256252   3.723   5.321  14.432  0.9355  0.0560  0.7968
11613TIP3   OH256253   5.624   0.381  12.095  0.1286  0.1109  0.1823
11613TIP3    H156254   5.532   0.363  12.077  0.3646  1.3768 -2.8763
11613TIP3    H256255   5.670   0.300  12.070 -0.0045  0.1535 -0.2126
11614TIP3   OH256256   0.383   5.143   0.019  0.4226  0.2424 -0.4179
11614TIP3    H156257   0.458   5.128  -0.039  0.2853  2.3439 -1.2419
11614TIP3    H256258   0.334   5.214  -0.023 -1.7849 -0.7285  0.3596
11615TIP3   OH256259   3.924   3.308  12.309  0.2088  0.4827 -0.1474
11615TIP3    H156260   3.887   3.359  12.237 -1.5734 -0.7587 -0.1639
11615TIP3    H256261   3.855   3.248  12.335  1.2260  0.0668  1.8288
11616TIP3   OH256262   5.571   5.033  14.238 -0.0769 -0.0722  0.3639
11616TIP3    H156263   5.515   4.963  14.204  0.8696 -0.1400 -1.1277
11616TIP3    H256264   5.642   5.041  14.174  1.4942  0.1943  2.0700
11617TIP3   OH256265   1.450   0.332  14.657  0.0484 -0.2858 -0.1661
11617TIP3    H156266   1.522   0.309  14.715  0.1955  0.3543 -0.0922
11617TIP3    H256267   1.491   0.340  14.571  0.1746  0.6857 -0.0165
11618TIP3   OH256268   4.454   5.441   5.493  0.1709 -0.3921  0.2512
11618TIP3    H156269   4.382   5.501   5.470 -0.3762 -0.8797  0.6760
11618TIP3    H256270   4.473   5.460   5.585  0.8744  0.0261  0.0252
11619TIP3   OH256271   1.088   5.724   0.861  0.2877  0.2314  0.4096
11619TIP3    H156272   1.169   5.682   0.889 -0.3746  0.3598  2.6738
11619TIP3    H256273   1.043   5.657   0.809 -0.2300 -1.5515  2.9902
11620TIP3   OH256274   6.052   1.278   4.964 -0.6129 -0.0118 -0.3390
11620TIP3    H156275   6.042   1.365   4.926 -0.3608 -0.5456 -1.7100
11620TIP3    H256276   5.967   1.260   5.004 -0.9059  0.5887 -0.6764
11621TIP3   OH256277   3.211   6.168  17.244  0.4550  0.0129 -0.2747
11621TIP3    H156278   3.128   6.131  17.273  0.4568  1.0464  1.2093
11621TIP3    H256279   3.219   6.143  17.152 -1.5413 -0.0211 -0.4733
11622TIP3   OH256280   1.327   0.731   4.542 -0.0962  0.3589  0.2621
11622TIP3    H156281   1.374   0.795   4.489  1.1842  0.0682  1.0028
11622TIP3    H256282   1.327   0.651   4.489 -0.1751  0.4928  0.0605
11623TIP3   OH256283   1.273   2.779   7.041 -0.0026 -0.0533 -0.1120
11623TIP3    H156284   1.320   2.798   6.960 -0.6423  1.1402 -0.2263
11623TIP3    H256285   1.230   2.695   7.025  0.3678 -0.1185 -0.7828
11624TIP3   OH256286   1.808   0.640  12.073  0.1589  0.2765  0.2219
11624TIP3    H156287   1.735   0.587  12.104  0.0521  1.6693  2.5978
11624TIP3    H256288   1.769   0.703  12.013 -0.5579  0.7741  1.1882
11625TIP3   OH256289   6.080   6.337  11.354  0.3272 -0.2375 -0.3112
11625TIP3    H156290   6.118   6.257  11.317 -0.9169 -0.3549 -1.4090
11625TIP3    H256291   6.043   6.384  11.279 -1.5029 -0.0334  0.6399
11626TIP3   OH256292   1.244   6.059  16.698 -0.7656 -0.0123  0.2256
11626TIP3    H156293   1.276   6.077  16.610 -1.1320  0.6990  0.2270
11626TIP3    H256294   1.164   6.008  16.684 -0.0938 -1.0810  0.1993
11627TIP3   OH256295   5.509   4.841   1.682  0.0296 -0.0935 -0.3308
11627TIP3    H156296   5.466   4.857   1.766 -0.4677  0.0348 -0.6070
11627TIP3    H256297   5.598   4.813   1.706  0.1006  0.5685  0.2246
11628TIP3   OH256298   4.660   0.858  16.165 -0.2633  0.8102  0.1311
11628TIP3    H156299   4.752   0.858  16.189 -0.1612  0.4957 -0.2570
11628TIP3    H256300   4.636   0.951  16.161  0.2072  0.9183 -0.4029
11629TIP3   OH256301   6.082   0.162  13.473  0.3874 -0.0324  0.3345
11629TIP3    H156302   6.110   0.133  13.386 -0.4592 -1.1751  0.4242
11629TIP3    H256303   6.017   0.231  13.455 -1.3317 -1.6521 -0.0442
11630TIP3   OH256304   4.771   3.213  16.347 -0.0664  0.3667  0.1723
11630TIP3    H156305   4.684   3.241  16.318 -0.9950 -0.4494  2.0423
11630TIP3    H256306   4.755   3.154  16.420  1.9636 -1.9761 -1.0970
11631TIP3   OH256307   0.791   1.035   2.701  0.8011  0.0560 -0.5477
11631TIP3    H156308   0.762   1.097   2.634  0.5609 -1.0967 -1.5515
11631TIP3    H256309   0.887   1.041   2.701  0.7823  0.3294 -0.7277
11632TIP3   OH256310   6.680   3.185  13.087 -0.3583 -0.9605  0.1522
11632TIP3    H156311   6.622   3.190  13.012  0.1419  0.3370 -0.1774
11632TIP3    H256312   6.751   3.247  13.067  1.6637 -3.1600  0.0885
11633TIP3   OH256313   5.826   2.163  15.998  0.4996  0.3777  0.9801
11633TIP3    H156314   5.789   2.251  15.991 -0.2171 -0.0425 -1.6147
11633TIP3    H256315   5.889   2.169  16.069  0.4508  2.9885  0.8997
11634TIP3   OH256316   4.777   2.892   2.046  0.2449 -0.1455 -0.3520
11634TIP3    H156317   4.737   2.979   2.038  0.5694 -0.0381 -0.8484
11634TIP3    H256318   4.706   2.835   2.075 -0.0339  0.2332 -0.2868
11635TIP3   OH256319   0.300   0.692   0.986 -0.3021 -0.1118 -0.6739
11635TIP3    H156320   0.291   0.708   1.080 -1.9852  0.1878 -0.8495
11635TIP3    H256321   0.263   0.605   0.973  0.4310 -0.3795 -0.9909
11636TIP3   OH256322   0.315   0.190   0.882 -0.4274  0.9123  0.2757
11636TIP3    H156323   0.282   0.163   0.797  0.7432  2.4436 -0.7243
11636TIP3    H256324   0.337   0.108   0.927 -0.8179  0.0906 -0.9934
11637TIP3   OH256325   5.604   3.710   5.170 -0.0145  0.2844  0.3669
11637TIP3    H156326   5.684   3.752   5.203  2.1915 -1.3335 -2.4770
11637TIP3    H256327   5.583   3.643   5.235 -0.6491  2.3126  2.4042
11638TIP3   OH256328   5.724   1.158  12.688  0.3276  0.8456 -0.0199
11638TIP3    H156329   5.785   1.085  12.685 -1.3557 -0.6832  0.5866
11638TIP3    H256330   5.713   1.176  12.782 -0.1474  1.0825 -0.1171
11639TIP3   OH256331   3.661   2.720   1.091 -0.2501  0.0342 -0.2628
11639TIP3    H156332   3.705   2.637   1.105  0.2935  0.3177 -0.2483
11639TIP3    H256333   3.568   2.701   1.100 -0.1080 -0.5044  0.0562
11640TIP3   OH256334   5.061   6.080   5.552 -0.4475 -0.7817  0.1522
11640TIP3    H156335   4.992   6.068   5.487 -1.3144 -3.4017  1.3991
11640TIP3    H256336   5.027   6.039   5.631  2.4947 -2.1542  0.8616
11641TIP3   OH256337   1.309   0.095  13.704 -0.2113  0.0477 -0.3228
11641TIP3    H156338   1.290   0.055  13.619  0.0918  1.1683 -0.9486
11641TIP3    H256339   1.253   0.173  13.706  1.2684  1.1653 -0.4183
11642TIP3   OH256340   1.598   2.668   4.067 -0.0306 -0.0373 -0.4081
11642TIP3    H156341   1.641   2.744   4.106 -3.1010  0.9833  1.3487
11642TIP3    H256342   1.621   2.595   4.124 -0.1656  0.3897  0.2099
11643TIP3   OH256343   1.224   3.675   0.244 -0.3765  0.1112 -0.0853
11643TIP3    H156344   1.153   3.736   0.265  0.5979  1.4102 -0.4233
11643TIP3    H256345   1.232   3.620   0.322 -0.5106  1.1767  0.6999
11644TIP3   OH256346   5.357   5.493   4.982  0.9144  0.0333 -0.1799
11644TIP3    H156347   5.262   5.501   4.973  1.0176  0.1018 -1.3991
11644TIP3    H256348   5.370   5.435   5.057 -0.0314  2.1894  1.7439
11645TIP3   OH256349   4.434   0.131   0.822 -0.1570 -0.0212  0.3047
11645TIP3    H156350   4.508   0.180   0.786  0.5554 -0.4913  1.1003
11645TIP3    H256351   4.430   0.052   0.769 -0.4613  0.2709 -0.1132
11646TIP3   OH256352   0.848   1.558  17.076  0.4833  0.2211 -0.2379
11646TIP3    H156353   0.881   1.638  17.036  1.3510 -0.0776 -0.1412
11646TIP3    H256354   0.872   1.565  17.168  1.6108 -0.6541 -0.4395
11647TIP3   OH256355   4.308   4.592  11.584  0.2071 -0.2983 -0.5688
11647TIP3    H156356   4.321   4.600  11.678  1.5752  0.2099 -0.7811
11647TIP3    H256357   4.215   4.572  11.574 -0.9653  3.7000  0.6573
11648TIP3   OH256358   4.665   5.871   2.943 -0.9274 -0.2615 -0.0500
11648TIP3    H156359   4.742   5.901   2.895 -1.7824  0.7339 -0.8437
11648TIP3    H256360   4.690   5.876   3.035  0.3121 -1.0126 -0.3193
11649TIP3   OH256361   3.669   5.980  12.376  0.2774 -0.8629 -0.4600
11649TIP3    H156362   3.739   5.981  12.441  0.0849 -0.8859 -0.2510
11649TIP3    H256363   3.665   6.070  12.344  1.3955 -1.1787 -1.5531
11650TIP3   OH256364   1.887   5.484   0.516  0.2513 -0.3053 -0.2261
11650TIP3    H156365   1.806   5.443   0.488 -1.3682  2.7873 -0.4571
11650TIP3    H256366   1.869   5.515   0.605  1.3580  0.0146 -0.0940
11651TIP3   OH256367   2.576   5.016   2.108 -0.0227  0.1459 -0.2036
11651TIP3    H156368   2.546   5.096   2.151  0.5998  0.5284 -0.4650
11651TIP3    H256369   2.504   4.990   2.052 -0.5495  0.0644  0.5025
11652TIP3   OH256370   3.705   6.260  12.254 -0.0038  0.3839 -0.2211
11652TIP3    H156371   3.794   6.250  12.220  0.3706 -0.7918  1.0286
11652TIP3    H256372   3.650   6.260  12.176  1.1021  1.5803 -1.0484
11653TIP3   OH256373   2.669   3.099  11.492 -0.3261  0.4417  0.3914
11653TIP3    H156374   2.660   3.080  11.398 -0.1176  0.3964  0.3814
11653TIP3    H256375   2.640   3.190  11.500 -2.5105 -0.2093  0.6252
11654TIP3   OH256376   4.105   3.212   3.672  0.8562 -0.1557 -0.2713
11654TIP3    H156377   4.149   3.202   3.588 -0.8728  0.8855 -1.3785
11654TIP3    H256378   4.055   3.131   3.682  1.2531 -0.3841 -0.1205
11655TIP3   OH256379   3.588   0.907   4.984 -0.8983  0.3618  0.3934
11655TIP3    H156380   3.527   0.966   5.027 -0.3182  0.5994  0.9195
11655TIP3    H256381   3.608   0.841   5.051  0.3376  0.9703  0.6548
11656TIP3   OH256382   5.947   2.505  11.831  0.6234 -0.3619  0.6245
11656TIP3    H156383   5.962   2.591  11.792 -0.7504 -0.2002  0.4148
11656TIP3    H256384   5.940   2.521  11.925  0.7289 -0.3037  0.6233
11657TIP3   OH256385   3.127   5.859  11.836 -0.7151  0.3330 -0.4487
11657TIP3    H156386   3.065   5.805  11.886 -0.7012  0.3226 -0.4429
11657TIP3    H256387   3.085   5.871  11.751 -0.7414  0.3552 -0.4327
11658TIP3   OH256388   5.504   6.569   5.886 -0.1636  0.3158  0.8271
11658TIP3    H156389   5.480   6.644   5.832  2.1986  1.1783  0.8685
11658TIP3    H256390   5.465   6.588   5.972 -1.1307  0.5596  0.3514
11659TIP3   OH256391   0.661   3.252  11.684 -0.0516  0.0011 -0.1849
11659TIP3    H156392   0.724   3.304  11.635  1.9139 -1.1825  0.9367
11659TIP3    H256393   0.649   3.301  11.766 -1.0791  0.5085 -0.6190
11660TIP3   OH256394   5.382   1.543   3.026 -0.1937 -0.1070  0.1266
11660TIP3    H156395   5.332   1.501   2.957 -0.5263 -1.1614  0.9693
11660TIP3    H256396   5.327   1.616   3.054 -0.7491 -0.5585  0.2545
11661TIP3   OH256397   5.157   6.034  16.468  0.1659 -0.9353 -0.0101
11661TIP3    H156398   5.208   6.090  16.527 -0.7836  1.7193 -1.5464
11661TIP3    H256399   5.206   5.952  16.465  1.3096 -0.4708  2.8424
11662TIP3   OH256400   4.887   0.647   0.391  0.3368  0.4294  0.0674
11662TIP3    H156401   4.937   0.617   0.467  1.4749 -0.5817 -1.0448
11662TIP3    H256402   4.953   0.667   0.325 -0.6518  0.8651 -0.8213
11663TIP3   OH256403   2.230   2.094   6.823  0.1397 -0.3349 -0.0178
11663TIP3    H156404   2.205   2.176   6.781  1.0072 -0.2037 -0.2965
11663TIP3    H256405   2.315   2.072   6.784 -0.8762 -2.2970 -1.2770
11664TIP3   OH256406   4.954   4.326  14.522 -0.5028  0.3908 -0.1803
11664TIP3    H156407   4.859   4.337  14.527 -0.3250  1.8047  0.8211
11664TIP3    H256408   4.975   4.343  14.431 -1.2196 -0.1106 -0.4545
11665TIP3   OH256409   2.637   5.330   4.532 -0.3162  0.4050 -0.4656
11665TIP3    H156410   2.637   5.268   4.606 -2.6650 -0.0633 -0.7921
11665TIP3    H256411   2.703   5.295   4.472  0.1762 -0.3498  0.4847
11666TIP3   OH256412   1.329   1.608  13.084  0.3738  0.2558  0.1697
11666TIP3    H156413   1.313   1.626  13.176 -0.4140  0.3738  0.0192
11666TIP3    H256414   1.422   1.588  13.079  0.2460 -0.6636  1.1310
11667TIP3   OH256415   3.326   5.871   2.968  0.0991 -0.2927 -0.1500
11667TIP3    H156416   3.339   5.925   2.890 -0.4961 -0.4241 -0.3475
11667TIP3    H256417   3.367   5.921   3.038 -1.1056  0.8166 -0.1839
11668TIP3   OH256418   1.158   5.762  16.867  0.8608  0.0701  0.9045
11668TIP3    H156419   1.084   5.736  16.812  2.0534 -1.6333 -0.0078
11668TIP3    H256420   1.169   5.855  16.851 -0.2125  0.0596 -0.0344
11669TIP3   OH256421   5.505   6.723  15.765 -0.0515  0.3461 -0.8585
11669TIP3    H156422   5.413   6.722  15.739  0.0911 -1.2637 -1.4442
11669TIP3    H256423   5.542   6.798  15.718 -0.5809 -0.4050 -2.5650
11670TIP3   OH256424   3.817   1.020   0.929 -0.4783 -0.4911 -0.0942
11670TIP3    H156425   3.877   0.946   0.943 -0.3996 -0.1761  1.3507
11670TIP3    H256426   3.754   0.987   0.865 -0.4411 -1.8261  0.5046
11671TIP3   OH256427   2.045   4.591   0.220  0.4361  0.2131  0.3771
11671TIP3    H156428   2.054   4.603   0.126  0.2200  3.0561  0.6277
11671TIP3    H256429   2.010   4.503   0.230  3.8080 -1.6010 -1.9535
11672TIP3   OH256430   4.299   5.861  16.052  0.0998 -0.0244 -0.3802
11672TIP3    H156431   4.327   5.819  16.133 -0.4876  0.7954  0.2657
11672TIP3    H256432   4.265   5.789  15.999 -0.4986 -0.4492  0.5383
11673TIP3   OH256433   3.969   3.516   1.552 -0.3001 -0.0628  0.0653
11673TIP3    H156434   3.921   3.435   1.533  0.2153 -0.8078  1.7432
11673TIP3    H256435   4.022   3.531   1.474 -0.7953 -1.0429 -0.4832
11674TIP3   OH256436   6.341   4.879   2.592 -0.3358 -0.5912 -0.1329
11674TIP3    H156437   6.356   4.886   2.686 -1.1924  0.9718 -0.0884
11674TIP3    H256438   6.356   4.967   2.558 -0.3878 -1.0497 -1.4146
11675TIP3   OH256439   2.203   4.665   2.105 -0.0106 -0.1893  0.2289
11675TIP3    H156440   2.162   4.735   2.055  4.5900  0.2590 -3.5678
11675TIP3    H256441   2.241   4.709   2.181 -1.4897  0.3987  0.6560
11676TIP3   OH256442   2.953   6.277   4.066 -0.2842 -0.0799 -0.6597
11676TIP3    H156443   2.915   6.195   4.096 -1.3571 -0.0512 -1.8416
11676TIP3    H256444   2.921   6.343   4.127 -2.4236 -0.0197 -1.7414
11677TIP3   OH256445   0.928   0.983  14.529 -0.5881  0.5051  0.6809
11677TIP3    H156446   0.946   1.077  14.525  0.8850  0.2209 -0.3122
11677TIP3    H256447   0.963   0.956  14.614 -0.2467  0.7221  0.6154
11678TIP3   OH256448   2.222   3.578  16.494 -0.6247  0.5314 -0.4049
11678TIP3    H156449   2.169   3.611  16.421 -0.6459  0.5475 -0.3823
11678TIP3    H256450   2.234   3.654  16.551  2.3626  1.5163 -2.1018
11679TIP3   OH256451   3.714   0.838  13.007 -0.0956 -0.4597 -0.3246
11679TIP3    H156452   3.701   0.744  13.011 -1.0478 -0.3019  1.0757
11679TIP3    H256453   3.685   0.863  12.919 -2.3598 -1.1598  0.1531
11680TIP3   OH256454   2.556   0.112   3.630 -0.1663 -0.0619 -0.3896
11680TIP3    H156455   2.635   0.095   3.682 -0.6140 -0.5073  0.1599
11680TIP3    H256456   2.580   0.084   3.541  0.1285 -0.6980 -0.1214
11681TIP3   OH256457   0.549   1.657   1.705  0.8074 -0.4336  0.5391
11681TIP3    H156458   0.527   1.726   1.768 -0.8431 -0.7135  0.3107
11681TIP3    H256459   0.465   1.630   1.669  1.5415 -1.7504 -0.2547
11682TIP3   OH256460   6.607   4.063  16.591  0.0584  0.0823  0.1195
11682TIP3    H156461   6.566   4.146  16.566 -0.7256  0.2209  1.7217
11682TIP3    H256462   6.695   4.068  16.553 -0.2421  1.2829 -0.4964
11683TIP3   OH256463   3.878   4.588  16.717  0.0189 -0.9121  0.4630
11683TIP3    H156464   3.801   4.591  16.774 -1.2813 -2.5411 -1.0525
11683TIP3    H256465   3.894   4.679  16.693 -0.7624 -0.4358  1.6478
11684TIP3   OH256466   5.772   0.839   2.650 -0.9931 -0.1806 -0.2845
11684TIP3    H156467   5.835   0.779   2.691  0.5511  1.9364  0.6340
11684TIP3    H256468   5.712   0.782   2.602  1.1301 -2.3691 -0.5301
11685TIP3   OH256469   0.204   0.343  16.497  0.3776 -0.5216  0.9056
11685TIP3    H156470   0.264   0.402  16.451  0.5148 -0.8406  0.6737
11685TIP3    H256471   0.172   0.284  16.429 -1.4137  0.6089  0.7027
11686TIP3   OH256472   3.197   0.531  14.763 -0.4255  0.1075  0.1659
11686TIP3    H156473   3.251   0.488  14.698  0.2282  1.1193  0.0154
11686TIP3    H256474   3.211   0.482  14.844  1.9641  1.2371  0.5169
11687TIP3   OH256475   0.406   4.408   0.510 -0.1020  0.0490 -0.4301
11687TIP3    H156476   0.432   4.446   0.594  1.1444 -1.8904  0.1463
11687TIP3    H256477   0.313   4.429   0.502 -0.2324  0.3621  1.4078
11688TIP3   OH256478   6.052   2.239   1.889  0.4002  0.2038  0.4184
11688TIP3    H156479   6.010   2.154   1.888  2.2005 -0.8088  2.0961
11688TIP3    H256480   6.090   2.246   1.977 -0.3013  3.0655  0.5979
11689TIP3   OH256481   0.984   0.370  11.829 -0.1728 -0.3139 -0.1373
11689TIP3    H156482   1.036   0.447  11.806 -0.0995 -0.2107  0.3456
11689TIP3    H256483   0.893   0.401  11.826 -0.0816  0.2786  1.6772
11690TIP3   OH256484   1.193   1.514  15.687  0.5668  0.1824  0.6843
11690TIP3    H156485   1.282   1.543  15.667 -0.0676  1.1968 -0.8269
11690TIP3    H256486   1.174   1.447  15.621  0.0009  0.4203  0.5977
11691TIP3   OH256487   5.592   1.345   4.822 -0.6484 -0.2408  0.2448
11691TIP3    H156488   5.560   1.268   4.869  0.3467 -0.6791  0.2490
11691TIP3    H256489   5.648   1.389   4.885 -0.1818 -0.2319 -0.1682
11692TIP3   OH256490   6.326   1.585   3.714  0.1663  0.0158  0.1149
11692TIP3    H156491   6.409   1.540   3.701  1.3930  2.6674 -2.3314
11692TIP3    H256492   6.267   1.547   3.649  0.8470  1.0944 -1.1595
11693TIP3   OH256493   0.899   5.738  16.171  0.4421  0.6780 -0.1339
11693TIP3    H156494   0.824   5.719  16.227 -0.1299 -0.7584 -1.3066
11693TIP3    H256495   0.896   5.833  16.158 -1.7827  0.5756 -0.9045
11694TIP3   OH256496   6.116   3.163  11.076  0.0274 -0.4244  0.9182
11694TIP3    H156497   6.129   3.075  11.041  1.7927  0.9576 -2.4002
11694TIP3    H256498   6.172   3.218  11.021 -0.7926  2.7525  3.0358
11695TIP3   OH256499   6.719   2.946   4.441  0.2767  0.2041 -0.1878
11695TIP3    H156500   6.782   2.985   4.502  0.2628  0.7118 -0.4972
11695TIP3    H256501   6.702   2.858   4.477  0.6695  0.3042  0.2468
11696TIP3   OH256502   3.087   1.144   0.908  0.4067  0.0456 -0.1058
11696TIP3    H156503   3.027   1.140   0.983  1.0692 -0.9541  0.4000
11696TIP3    H256504   3.103   1.053   0.885  2.9424  0.1612  0.8113
11697TIP3   OH256505   3.902   5.076  11.311  0.2890 -0.2044  0.1981
11697TIP3    H156506   3.942   5.138  11.371 -0.4112  1.7560 -1.2458
11697TIP3    H256507   3.809   5.095  11.315  0.3112  0.7748 -2.2397
11698TIP3   OH256508   6.539   1.808  12.799  0.4074 -0.5692  0.8191
11698TIP3    H156509   6.562   1.768  12.715  0.2031 -0.8713  0.9061
11698TIP3    H256510   6.624   1.823  12.842  0.5093 -0.4701  0.5896
11699TIP3   OH256511   3.125   1.063  13.012 -0.2757 -0.1205 -0.7972
11699TIP3    H156512   3.124   1.014  13.094  2.5396 -2.0502 -1.7842
11699TIP3    H256513   3.033   1.087  12.998 -0.7984  0.8543  3.1357
11700TIP3   OH256514   6.254   4.284  13.126 -0.3472  0.0278  0.7741
11700TIP3    H156515   6.287   4.325  13.205 -0.0582  0.5802  0.3694
11700TIP3    H256516   6.272   4.347  13.056 -3.4411  0.9968  0.7077
11701TIP3   OH256517   1.588   0.996   6.198  0.0639  0.1835 -0.1527
11701TIP3    H156518   1.679   1.023   6.203 -0.5034  1.9925  1.4273
11701TIP3    H256519   1.577   0.933   6.269  0.3964 -1.1649 -1.2606
11702TIP3   OH256520   1.644   2.458   4.637 -0.4393 -0.5165 -0.1687
11702TIP3    H156521   1.615   2.549   4.635 -0.8541 -0.6379  0.0631
11702TIP3    H256522   1.735   2.461   4.609 -0.6844 -0.1184 -0.9856
11703TIP3   OH256523   3.187   1.634   5.289  0.2356 -0.3602  0.1837
11703TIP3    H156524   3.228   1.679   5.215  1.3103 -1.1298  0.2938
11703TIP3    H256525   3.249   1.642   5.361 -0.1769 -0.8123  0.6054
11704TIP3   OH256526   2.372   4.538  13.411  0.3379 -0.8402  0.4041
11704TIP3    H156527   2.297   4.559  13.468  0.0070 -0.7731 -0.0481
11704TIP3    H256528   2.448   4.544  13.469 -0.1237 -2.2529  1.2135
11705TIP3   OH256529   0.372   1.322   4.780  0.4514  0.1908  0.6222
11705TIP3    H156530   0.369   1.241   4.729  0.9443 -0.1381  1.0989
11705TIP3    H256531   0.465   1.339   4.793  0.4105  1.7272 -0.8416
11706TIP3   OH256532   0.005   3.437   1.011  0.2614  0.5193  0.0283
11706TIP3    H156533   0.100   3.444   1.001  0.2527  0.3839 -0.1363
11706TIP3    H256534  -0.009   3.451   1.105  0.4285  0.7084  0.0264
11707TIP3   OH256535   2.160   3.565  12.051  0.1994 -0.1800 -0.1042
11707TIP3    H156536   2.134   3.493  12.108 -0.2199  0.0015 -0.0636
11707TIP3    H256537   2.183   3.636  12.111 -0.5077  0.1010 -0.1676
11708TIP3   OH256538   0.534   6.226  13.765 -0.2423  0.1035 -0.4760
11708TIP3    H156539   0.510   6.135  13.750 -0.1736  0.0678 -0.3740
11708TIP3    H256540   0.461   6.277  13.731 -1.4336 -0.0447  1.6859
11709TIP3   OH256541   2.443   2.165  15.965 -0.1728 -0.9425 -0.0161
11709TIP3    H156542   2.417   2.232  16.029  1.4598 -1.7614  1.5787
11709TIP3    H256543   2.503   2.108  16.012  1.3656 -1.4168 -2.3762
11710TIP3   OH256544   4.919   4.904  12.684  0.1898 -0.5054 -0.0813
11710TIP3    H156545   4.905   4.975  12.746  1.0788  0.0537 -0.5041
11710TIP3    H256546   4.914   4.946  12.598  2.2230 -0.6349 -0.3138
11711TIP3   OH256547   0.724   0.014   0.198 -0.1963 -0.1504 -0.4054
11711TIP3    H156548   0.630   0.016   0.217  0.0299 -1.6428  1.0514
11711TIP3    H256549   0.751  -0.075   0.220  1.8046  0.6309  0.5045
11712TIP3   OH256550   5.983   1.925   5.101  0.4856  0.0050 -0.8960
11712TIP3    H156551   6.009   2.017   5.091 -0.9085  0.3507 -1.5510
11712TIP3    H256552   5.984   1.911   5.196  0.5987  0.7286 -0.7778
11713TIP3   OH256553   2.832   2.997  15.914  0.0771 -0.4271  0.3115
11713TIP3    H156554   2.906   3.043  15.952  3.4731 -1.2298 -4.4685
11713TIP3    H256555   2.841   2.907  15.945  0.6247 -0.3464  0.3899
11714TIP3   OH256556   5.928   5.824   3.971 -0.2450  0.0742 -0.7424
11714TIP3    H156557   5.943   5.876   4.050  0.6380 -1.5812  0.2403
11714TIP3    H256558   5.985   5.862   3.905  1.3156 -0.3610  0.3055
11715TIP3   OH256559   0.455   0.529  13.490 -0.0595 -0.7355 -0.2981
11715TIP3    H156560   0.503   0.447  13.479 -0.4919 -0.8989 -1.1062
11715TIP3    H256561   0.369   0.503  13.524 -0.4286 -0.7038 -1.1605
11716TIP3   OH256562   3.474   4.374   2.225 -0.0429  0.6841  0.6723
11716TIP3    H156563   3.380   4.364   2.240 -0.0098 -2.3904 -0.4293
11716TIP3    H256564   3.490   4.467   2.238 -3.4171  1.5211 -0.0568
11717TIP3   OH256565   5.144   1.327  16.631  0.3159  0.7516 -0.2409
11717TIP3    H156566   5.239   1.333  16.627  0.2929  0.4753 -1.8232
11717TIP3    H256567   5.114   1.360  16.546 -1.0844  2.0862  0.7034
11718TIP3   OH256568   5.868   4.421   2.635  0.3420  0.1033  0.0414
11718TIP3    H156569   5.796   4.438   2.574  1.6937 -2.9510 -2.7307
11718TIP3    H256570   5.945   4.454   2.590  1.3443 -1.9669  0.1297
11719TIP3   OH256571   1.739   6.257   2.320 -0.3608 -0.0546  0.0515
11719TIP3    H156572   1.658   6.206   2.327 -0.4687  0.3369  2.6489
11719TIP3    H256573   1.709   6.347   2.302 -0.3632 -0.2782 -1.1021
11720TIP3   OH256574   3.799   5.129   3.273  0.3128 -0.4066 -0.3686
11720TIP3    H156575   3.852   5.206   3.290  1.9039 -1.7340  1.0170
11720TIP3    H256576   3.733   5.159   3.209  0.3492  2.2536  0.7070
11721TIP3   OH256577   2.169   6.215  13.486 -0.1000  0.5153 -0.1222
11721TIP3    H156578   2.151   6.282  13.553 -0.6772  0.2642 -0.0198
11721TIP3    H256579   2.141   6.133  13.526 -1.9848  0.5559 -1.2397
11722TIP3   OH256580   0.993   3.991   3.633 -0.0824 -0.1757 -0.0135
11722TIP3    H156581   1.055   3.957   3.568  1.0735  0.1934  0.8869
11722TIP3    H256582   0.907   3.974   3.593  0.3268 -4.3081  0.3693
11723TIP3   OH256583   5.488   2.360   4.958  0.0052  0.2887  0.0336
11723TIP3    H156584   5.474   2.316   5.041 -0.2654 -0.0156 -0.1698
11723TIP3    H256585   5.581   2.345   4.938  0.3341  1.2578  0.7853
11724TIP3   OH256586   4.045   0.772   3.807 -0.6027 -0.4075  1.1302
11724TIP3    H156587   4.059   0.734   3.720 -0.1285  0.0668  0.9876
11724TIP3    H256588   3.987   0.711   3.852 -0.3022 -1.0048  0.7164
11725TIP3   OH256589   1.087   0.493   3.608  0.0782  0.2040  0.5115
11725TIP3    H156590   1.156   0.560   3.618  0.6990 -0.3247 -0.1169
11725TIP3    H256591   1.116   0.421   3.664  0.0886 -0.0609  0.1672
11726TIP3   OH256592   4.145   0.869   1.297  0.0441  0.4851 -0.1423
11726TIP3    H156593   4.162   0.922   1.375 -1.2336 -0.3923  0.7577
11726TIP3    H256594   4.065   0.821   1.317 -0.0404 -0.1356 -1.8117
11727TIP3   OH256595   0.890   1.651  13.248  0.0268 -0.3469 -0.3222
11727TIP3    H156596   0.935   1.698  13.177  1.5267 -0.7387  0.3314
11727TIP3    H256597   0.915   1.560  13.236 -0.0532 -0.4762  0.4619
11728TIP3   OH256598   3.400   4.258  16.831 -0.0562  0.0065 -0.2220
11728TIP3    H156599   3.381   4.342  16.872  4.1578  0.2763  1.6905
11728TIP3    H256600   3.433   4.281  16.744 -0.5054  0.1705 -0.3531
11729TIP3   OH256601   1.818   0.661  15.543 -0.2905 -0.5711  0.2230
11729TIP3    H156602   1.905   0.622  15.526 -0.0699 -0.9032  1.9571
11729TIP3    H256603   1.834   0.755  15.545 -0.1656 -0.5707 -0.4346
11730TIP3   OH256604   2.166   2.306   5.851 -0.1799  0.2056  0.1687
11730TIP3    H156605   2.259   2.287   5.864 -0.2029 -0.4224 -0.4997
11730TIP3    H256606   2.122   2.264   5.924  0.0618  0.5342  0.5063
11731TIP3   OH256607   2.715   6.422  12.358 -0.1395  0.3338 -0.7149
11731TIP3    H156608   2.768   6.475  12.298  1.0956  0.3883  0.3621
11731TIP3    H256609   2.767   6.420  12.439 -1.1564 -0.7872 -0.0669
11732TIP3   OH256610   2.698   3.104   2.214 -0.3422 -0.0949 -0.0017
11732TIP3    H156611   2.716   3.032   2.275 -1.3205 -1.6024 -1.3976
11732TIP3    H256612   2.602   3.107   2.208 -0.3326 -1.5702 -3.1259
11733TIP3   OH256613   0.898   4.554  16.183 -0.3711 -0.4925  0.2423
11733TIP3    H156614   0.922   4.609  16.257  0.1045  1.8559 -1.5575
11733TIP3    H256615   0.819   4.594  16.147 -0.8038 -1.7943 -0.3406
11734TIP3   OH256616   0.405   1.383  16.184  0.0314  1.4527 -0.2030
11734TIP3    H156617   0.464   1.378  16.109 -0.3434  1.1959 -0.4876
11734TIP3    H256618   0.324   1.420  16.148 -2.3345 -3.9091 -1.3642
11735TIP3   OH256619   3.542   0.200  11.767 -0.7158  0.1370  0.2341
11735TIP3    H156620   3.619   0.145  11.778 -1.7902 -1.3882  0.4703
11735TIP3    H256621   3.522   0.232  11.854 -1.1824 -0.6792  0.4415
11736TIP3   OH256622   3.279   0.629   2.465 -0.4154 -0.3397  0.5551
11736TIP3    H156623   3.188   0.607   2.483 -0.9538  0.6591 -0.7351
11736TIP3    H256624   3.292   0.714   2.509  0.1857 -0.9038  1.4980
11737TIP3   OH256625   4.883   6.708  11.054 -0.2030 -0.1103 -0.0050
11737TIP3    H156626   4.910   6.622  11.021 -1.5593 -0.7807  0.5769
11737TIP3    H256627   4.961   6.763  11.042 -0.2631 -0.5510 -3.3089
11738TIP3   OH256628   1.152   6.474   4.852 -0.1399 -0.1931 -0.0066
11738TIP3    H156629   1.135   6.468   4.758  1.0107 -0.6910 -0.2045
11738TIP3    H256630   1.092   6.542   4.883 -0.3307  0.1848 -1.1546
11739TIP3   OH256631   2.452   1.422  12.113 -0.1206 -0.3609 -0.2589
11739TIP3    H156632   2.540   1.457  12.128 -0.2035 -0.7674  1.4154
11739TIP3    H256633   2.394   1.497  12.125 -0.0334 -0.1438 -1.1303
11740TIP3   OH256634   3.778   0.379  14.979 -0.3489 -0.8930  0.1360
11740TIP3    H156635   3.764   0.351  14.889  0.5343 -1.7742  0.2470
11740TIP3    H256636   3.861   0.426  14.978 -1.3066  0.8797  0.1527
11741TIP3   OH256637   4.707   2.587  10.811  0.1045  0.1757 -0.4520
11741TIP3    H156638   4.721   2.500  10.848  0.9444  0.1176 -0.8947
11741TIP3    H256639   4.654   2.632  10.877  0.8687 -0.2016  0.4529
11742TIP3   OH256640   0.795   1.954   5.913 -0.8955 -0.0669  0.4979
11742TIP3    H156641   0.767   2.005   5.989 -0.9087 -0.4615  0.7603
11742TIP3    H256642   0.767   2.006   5.838 -1.3786  0.0627  0.7642
11743TIP3   OH256643   5.288   3.776  13.416 -0.1373 -0.0835 -0.1427
11743TIP3    H156644   5.383   3.779  13.428 -0.2450  1.9818  0.5365
11743TIP3    H256645   5.275   3.712  13.345  1.9639  1.4846 -2.1014
11744TIP3   OH256646   6.577   1.653  13.328  0.3094  0.3075 -0.2648
11744TIP3    H156647   6.543   1.633  13.416 -0.1578  0.4336 -0.4114
11744TIP3    H256648   6.532   1.590  13.271  2.8916 -1.9004 -0.0500
11745TIP3   OH256649   6.658   3.530   4.583  0.1612 -0.0973 -0.3155
11745TIP3    H156650   6.716   3.458   4.608  0.0575  0.1451  0.6585
11745TIP3    H256651   6.716   3.606   4.575  0.3499 -0.3836 -1.8579
11746TIP3   OH256652   6.628   4.580  16.268 -0.3692  0.6135 -0.1666
11746TIP3    H156653   6.654   4.668  16.293 -2.2572  0.9835  0.6953
11746TIP3    H256654   6.534   4.587  16.251 -0.4418 -1.1078 -0.6331
11747TIP3   OH256655   3.432   0.150   2.066  0.1980  0.0626  0.0131
11747TIP3    H156656   3.423   0.186   1.977  0.3642  0.5017  0.1702
11747TIP3    H256657   3.523   0.168   2.090  0.4510 -0.9985 -0.1277
11748TIP3   OH256658   5.025   5.139   2.061 -0.6505 -0.2564 -0.3221
11748TIP3    H156659   5.101   5.148   2.004  0.0134 -0.9013  0.4333
11748TIP3    H256660   4.953   5.175   2.010  0.3674  1.5860 -0.5744
11749TIP3   OH256661   0.029   0.120  13.110  0.4689 -0.4656 -0.0210
11749TIP3    H156662   0.097   0.172  13.068  0.2522 -1.2449 -1.4033
11749TIP3    H256663  -0.022   0.184  13.160  1.6746  0.2523  0.3388
11750TIP3   OH256664   3.825   4.209   0.239  0.2696  0.4186  0.3491
11750TIP3    H156665   3.849   4.296   0.271  0.8277  0.5429 -0.3866
11750TIP3    H256666   3.905   4.174   0.201 -0.3910  0.3219 -1.0184
11751TIP3   OH256667   4.067   0.465  12.746  0.5235  0.6010  0.1508
11751TIP3    H156668   4.076   0.548  12.793  1.1575  0.7139 -0.1595
11751TIP3    H256669   3.974   0.446  12.749  0.8036 -1.1914  4.5504
11752TIP3   OH256670   5.917   4.957   0.615  0.7565 -0.8340  0.0672
11752TIP3    H156671   5.824   4.956   0.592  0.8042  3.0546 -0.9775
11752TIP3    H256672   5.920   5.002   0.699  1.7273 -0.2542 -0.2685
11753TIP3   OH256673   0.537   6.525   1.845  0.1929 -0.5626 -0.0028
11753TIP3    H156674   0.464   6.568   1.801 -0.1116 -0.8141  0.2569
11753TIP3    H256675   0.571   6.463   1.780 -0.1761 -0.8432  0.0720
11754TIP3   OH256676   1.201   5.107   1.213  0.0851 -0.3704  0.5656
11754TIP3    H156677   1.234   5.024   1.178 -1.0688 -0.0165 -1.4913
11754TIP3    H256678   1.125   5.127   1.159  0.3412  2.0498  1.0130
11755TIP3   OH256679   0.652   0.586  12.265  0.0900  0.0961  0.2424
11755TIP3    H156680   0.636   0.611  12.174  0.0031 -1.4055 -0.1826
11755TIP3    H256681   0.721   0.520  12.260  0.2308  0.1455  1.2913
11756TIP3   OH256682   3.375   4.266   5.917  0.5327  0.5770 -0.7315
11756TIP3    H156683   3.424   4.233   5.992  2.1477 -1.0727 -2.4153
11756TIP3    H256684   3.442   4.286   5.852 -0.8005  2.3157 -1.6557
11757TIP3   OH256685   3.225   4.551   1.013  0.1846  0.2847 -0.4350
11757TIP3    H156686   3.195   4.476   0.962  1.2036 -1.0116  0.7877
11757TIP3    H256687   3.200   4.531   1.103  0.0155  1.6796 -0.1364
11758TIP3   OH256688   4.701   5.585  15.019 -0.1136  0.1572 -0.0781
11758TIP3    H156689   4.607   5.597  15.032 -1.0617 -1.8201 -3.7279
11758TIP3    H256690   4.722   5.507  15.069 -0.9488 -0.5591 -0.7928
11759TIP3   OH256691   0.020   4.977  13.809 -0.1664 -0.6833 -0.6149
11759TIP3    H156692  -0.026   5.042  13.863  1.7961  0.2584  0.0060
11759TIP3    H256693  -0.048   4.941  13.752 -2.2441 -1.3726  2.1004
11760TIP3   OH256694   0.082   0.204  16.282 -0.5099  0.2005 -0.2339
11760TIP3    H156695   0.040   0.209  16.195  0.0573  0.8833 -0.4773
11760TIP3    H256696   0.159   0.149  16.268 -0.8529 -0.3685  0.0337
11761TIP3   OH256697   5.888   2.893   0.018 -0.3219  0.1061  0.0490
11761TIP3    H156698   5.946   2.820   0.037 -1.1409 -0.9439 -1.3311
11761TIP3    H256699   5.905   2.915  -0.074 -0.8958  0.9073  0.1206
11762TIP3   OH256700   0.905   4.212   1.243 -0.0484 -0.5304 -0.2137
11762TIP3    H156701   0.966   4.238   1.312 -1.7566  1.2619  0.7121
11762TIP3    H256702   0.934   4.125   1.218  1.2017 -0.8850  2.1351
11763TIP3   OH256703   4.285   6.362   5.943  0.3633 -0.2940  0.0983
11763TIP3    H156704   4.219   6.358   5.874  0.7989  1.7100 -0.4894
11763TIP3    H256705   4.365   6.330   5.902  0.8253  1.6915 -0.6450
11764TIP3   OH256706   2.600   0.929  11.775 -0.1861  0.4167 -0.3087
11764TIP3    H156707   2.596   0.910  11.869  0.0312  0.1834 -0.3451
11764TIP3    H256708   2.513   0.963  11.754 -0.8059 -1.0980 -0.3515
11765TIP3   OH256709   3.273   1.638   3.694  0.1648 -0.2014 -0.1683
11765TIP3    H156710   3.202   1.582   3.662  0.7822  0.0183 -2.0555
11765TIP3    H256711   3.228   1.706   3.745 -1.1346  0.3664 -1.9419
11766TIP3   OH256712   6.587   1.314  14.193 -0.4744  0.0134  0.4157
11766TIP3    H156713   6.509   1.299  14.139 -1.2416 -1.4357  1.8094
11766TIP3    H256714   6.654   1.260  14.152 -0.2359  1.0821 -0.6565
11767TIP3   OH256715   5.947   6.601  11.845  0.1100  0.3824  0.1029
11767TIP3    H156716   6.041   6.608  11.827  0.1156  0.0815  0.0098
11767TIP3    H256717   5.906   6.652  11.775  0.2188  0.8123  0.3497
11768TIP3   OH256718   5.240   2.338  13.734  0.3980  0.6221  0.0766
11768TIP3    H156719   5.253   2.433  13.732  0.6487  0.6014  0.5181
11768TIP3    H256720   5.316   2.304  13.781  0.8853  0.0868 -1.0563
11769TIP3   OH256721   1.899   0.985  10.735 -0.1433  0.5954  0.1364
11769TIP3    H156722   1.869   0.917  10.795 -0.8029  0.2829 -0.5300
11769TIP3    H256723   1.941   0.937  10.663 -0.5662  0.8925 -0.3129
11770TIP3   OH256724   6.399   1.483  13.212 -0.2159  0.2152  0.2382
11770TIP3    H156725   6.467   1.419  13.233  0.3902  1.0812  1.0269
11770TIP3    H256726   6.406   1.495  13.117 -0.0905 -0.5950  0.1370
11771TIP3   OH256727   2.160   5.755   0.427 -0.1262 -0.2469 -0.1954
11771TIP3    H156728   2.129   5.665   0.416 -0.6375  0.0496 -1.4748
11771TIP3    H256729   2.154   5.792   0.339  0.6138  0.8707  0.2130
11772TIP3   OH256730   5.633   0.468   5.732  0.0909  0.0204  0.2844
11772TIP3    H156731   5.608   0.441   5.643  0.1261  2.2767 -0.4773
11772TIP3    H256732   5.726   0.444   5.738  0.0781 -0.1959 -0.2829
11773TIP3   OH256733   1.806   4.178   5.117  0.4125  0.2229 -0.1306
11773TIP3    H156734   1.723   4.131   5.128 -0.0739  0.5829 -1.9145
11773TIP3    H256735   1.827   4.212   5.204  0.0738 -2.1000  0.9192
11774TIP3   OH256736   2.232   4.104   5.148  0.1755 -0.2340 -0.0933
11774TIP3    H156737   2.273   4.135   5.067 -0.0665  0.1187 -0.0870
11774TIP3    H256738   2.187   4.024   5.123  0.1136 -0.1339 -0.3084
11775TIP3   OH256739   4.169   6.719  16.264 -0.0499 -0.2605 -0.1189
11775TIP3    H156740   4.093   6.772  16.289  0.0284 -0.3878  0.4014
11775TIP3    H256741   4.232   6.733  16.335 -0.2324 -1.4505  0.2963
11776TIP3   OH256742   1.353   4.816   2.230  0.0222 -0.0983  0.2044
11776TIP3    H156743   1.304   4.882   2.180 -0.1245 -2.2231 -2.7457
11776TIP3    H256744   1.438   4.857   2.245  0.4242  0.3992 -2.7448
11777TIP3   OH256745   4.164   0.962   2.017  0.2943  0.3433 -0.1683
11777TIP3    H156746   4.173   0.867   2.021 -0.4826  0.1321 -2.3037
11777TIP3    H256747   4.071   0.979   2.033  0.5789  0.8561  1.1108
11778TIP3   OH256748   6.578   0.970  12.695  0.4335  0.0332 -0.5047
11778TIP3    H156749   6.634   0.905  12.652 -0.3918 -0.7577 -0.4258
11778TIP3    H256750   6.505   0.982  12.635  0.7015  1.0975 -0.6338
11779TIP3   OH256751   6.427   5.758  15.859  0.0366  0.1292  0.7032
11779TIP3    H156752   6.368   5.832  15.874  1.9941  1.6382  1.5131
11779TIP3    H256753   6.430   5.748  15.764  0.3244  1.6656  0.5159
11780TIP3   OH256754   3.799   0.301   4.296  0.3607  0.3984 -0.3503
11780TIP3    H156755   3.794   0.265   4.385  0.2511  0.5689 -0.2863
11780TIP3    H256756   3.870   0.252   4.254  1.2109  1.1014  0.2057
11781TIP3   OH256757   5.771   1.951  14.417 -0.7815 -0.6356 -0.5128
11781TIP3    H156758   5.836   1.947  14.488 -1.8012 -1.0878  0.4152
11781TIP3    H256759   5.813   2.006  14.351  1.0681 -1.8860 -0.4697
11782TIP3   OH256760   1.012   2.876  13.375  0.4586 -0.2884 -0.5424
11782TIP3    H156761   1.069   2.926  13.317 -0.2465  2.1172  0.7197
11782TIP3    H256762   1.015   2.924  13.458 -0.3421 -2.3332  0.7487
11783TIP3   OH256763   1.473   4.418  17.192 -0.1047 -0.1760  0.4049
11783TIP3    H156764   1.551   4.366  17.211  0.5784  0.2841 -1.0179
11783TIP3    H256765   1.462   4.412  17.097 -1.3548  0.4098  0.4832
11784TIP3   OH256766   0.152   3.799  16.047  0.4960 -0.6477  0.2698
11784TIP3    H156767   0.118   3.710  16.040 -0.1471 -0.5319  1.6556
11784TIP3    H256768   0.192   3.816  15.961  0.2390 -2.0949 -0.1651
11785TIP3   OH256769   6.200   6.616  11.748  0.5180  0.0128 -0.2756
11785TIP3    H156770   6.207   6.556  11.674 -1.1639 -1.9682  1.0551
11785TIP3    H256771   6.275   6.593  11.804 -0.1133 -0.8895  0.2236
11786TIP3   OH256772   1.363   3.664  15.556 -0.1641 -0.0706  0.5340
11786TIP3    H156773   1.278   3.624  15.539 -0.4922  0.7903  0.0876
11786TIP3    H256774   1.376   3.724  15.483  1.0552 -0.5536  0.3389
11787TIP3   OH256775   2.457   2.792   3.427  0.2909  0.2283 -0.5095
11787TIP3    H156776   2.410   2.875   3.430  0.3558  0.2492  0.0724
11787TIP3    H256777   2.515   2.800   3.352 -1.0685 -0.0396 -1.6253
11788TIP3   OH256778   4.332   3.815   0.613 -0.5507 -0.4543  0.4495
11788TIP3    H156779   4.412   3.773   0.643 -0.3181  0.1421  0.6673
11788TIP3    H256780   4.336   3.904   0.648 -0.2212  0.3072 -1.3955
11789TIP3   OH256781   3.866   6.049  13.402  0.3978  0.3302  0.3591
11789TIP3    H156782   3.837   5.993  13.474  0.5591  1.9647  1.7552
11789TIP3    H256783   3.795   6.044  13.338  0.7196 -1.9854  0.0899
11790TIP3   OH256784   3.517   3.056   4.835  0.2323 -0.1541  0.5485
11790TIP3    H156785   3.426   3.027   4.829 -0.6314  2.2477  1.1488
11790TIP3    H256786   3.519   3.141   4.792  2.0343  0.2015  1.2306
11791TIP3   OH256787   5.108   3.573  13.569 -0.3834  0.0590 -0.3928
11791TIP3    H156788   5.097   3.663  13.599 -2.7439 -0.1977 -0.2610
11791TIP3    H256789   5.123   3.523  13.649 -0.8289  0.1260 -0.2632
11792TIP3   OH256790   5.528   0.010  11.182  0.6776 -0.3304 -0.6480
11792TIP3    H156791   5.534  -0.052  11.254  2.8747  1.2782  0.6860
11792TIP3    H256792   5.445   0.056  11.196  1.9031  1.2839  2.1360
11793TIP3   OH256793   2.794   4.293   5.367  0.2665  0.4719 -0.4190
11793TIP3    H156794   2.886   4.321   5.362  0.9539 -1.5181  0.0224
11793TIP3    H256795   2.791   4.213   5.314 -0.7116 -0.6638  1.2621
11794TIP3   OH256796   2.768   3.528   5.243  0.2775  0.1951 -0.2158
11794TIP3    H156797   2.743   3.620   5.240  4.2783  1.6066  2.1137
11794TIP3    H256798   2.852   3.524   5.197  0.3341 -2.2818 -0.0521
11795TIP3   OH256799   1.221   2.244  13.733  0.2617 -0.5499  0.1466
11795TIP3    H156800   1.194   2.280  13.817 -2.0850 -2.2386  0.1888
11795TIP3    H256801   1.161   2.283  13.670  0.4595 -1.1147 -0.4007
11796TIP3   OH256802   1.594   0.124  12.119 -0.2955 -0.2456 -0.6171
11796TIP3    H156803   1.594   0.108  12.213 -3.7399 -2.3746 -0.7945
11796TIP3    H256804   1.659   0.063  12.085  1.1185  0.6718  0.3178
11797TIP3   OH256805   1.850   3.231   4.148 -0.4314  0.2577  0.0813
11797TIP3    H156806   1.756   3.249   4.148 -1.0940 -2.6835  0.5177
11797TIP3    H256807   1.857   3.141   4.116  2.1400  0.0344  1.0421
11798TIP3   OH256808   5.818   0.916  13.228 -0.4430 -0.6759 -0.1455
11798TIP3    H156809   5.781   0.847  13.173  1.2858 -1.6286 -0.1890
11798TIP3    H256810   5.891   0.951  13.176  0.7594 -1.0873  1.2187
11799TIP3   OH256811   0.518   2.103   5.570 -0.3117 -0.1182  0.3622
11799TIP3    H156812   0.439   2.136   5.528  0.6832  0.2147 -1.3717
11799TIP3    H256813   0.544   2.172   5.630 -0.7168  0.2722  0.0923
11800TIP3   OH256814   6.615   2.756  12.650 -0.2568 -0.1858 -0.0709
11800TIP3    H156815   6.597   2.829  12.709 -4.1597  0.3413 -1.6328
11800TIP3    H256816   6.533   2.707  12.646  0.2699 -1.0896 -3.7517
11801TIP3   OH256817   0.853   0.567  14.414  0.0328 -0.4004  0.0731
11801TIP3    H156818   0.769   0.522  14.421  0.7018 -1.4386  1.9232
11801TIP3    H256819   0.911   0.519  14.473  2.0790 -0.0064 -1.4966
11802TIP3   OH256820   1.259   6.072   2.639 -0.0214  0.1088  0.1659
11802TIP3    H156821   1.222   6.007   2.580  1.1280 -1.1125  0.7536
11802TIP3    H256822   1.350   6.081   2.612  0.4498 -0.2596  1.5236
11803TIP3   OH256823   5.867   4.247   3.733  0.4423 -0.2409 -0.3200
11803TIP3    H156824   5.814   4.223   3.657  0.4556 -1.0115 -0.0938
11803TIP3    H256825   5.898   4.163   3.768 -1.2911 -0.0634  1.8130
11804TIP3   OH256826   4.740   2.309   3.728  0.3961  0.1925 -0.2626
11804TIP3    H156827   4.812   2.343   3.675 -0.4159  1.5570 -0.5356
11804TIP3    H256828   4.676   2.278   3.664  0.1794  0.1877 -0.0458
11805TIP3   OH256829   6.339   1.978  13.439  0.0262  0.6076  0.1282
11805TIP3    H156830   6.277   1.995  13.509 -0.5602 -0.0997 -0.1976
11805TIP3    H256831   6.312   2.036  13.368 -0.5893 -0.0559 -0.1925
11806TIP3   OH256832   5.807   3.118  17.092 -0.1594 -0.6326 -0.1103
11806TIP3    H156833   5.875   3.053  17.073  1.3222  0.6996  0.3969
11806TIP3    H256834   5.842   3.200  17.057 -2.1591 -0.1381 -1.0892
11807TIP3   OH256835   2.835   0.082   1.334 -0.0317 -0.3785 -0.2637
11807TIP3    H156836   2.823   0.153   1.272  1.5390  1.3120  1.2343
11807TIP3    H256837   2.917   0.040   1.307  1.3251  1.1395  1.2560
11808TIP3   OH256838   5.410   6.403  12.690 -0.6042 -0.3935 -0.2128
11808TIP3    H156839   5.441   6.316  12.662 -0.7798  0.1144 -2.1732
11808TIP3    H256840   5.468   6.464  12.645 -1.3037  0.5216  0.1101
11809TIP3   OH256841   1.064   0.496  14.058  0.2451  0.1621 -0.3177
11809TIP3    H156842   1.053   0.522  14.149  1.2764 -1.7260  0.4070
11809TIP3    H256843   0.976   0.499  14.021 -0.0408  1.9337  0.4405
11810TIP3   OH256844   1.134   0.677   1.509  0.3022  0.2651 -0.7152
11810TIP3    H156845   1.083   0.750   1.544  0.7213  0.1237  0.2154
11810TIP3    H256846   1.096   0.661   1.422 -0.6678  0.7086 -0.3899
11811TIP3   OH256847   3.531   0.486  11.329  0.3821  0.4847  0.6584
11811TIP3    H156848   3.586   0.530  11.393  0.3402 -0.6589  1.5115
11811TIP3    H256849   3.515   0.399  11.366  0.5018 -0.2788 -0.9921
11812TIP3   OH256850   2.266   0.204   5.175 -0.2533 -0.0181  0.0427
11812TIP3    H156851   2.184   0.245   5.201  0.5641  2.3135 -0.8485
11812TIP3    H256852   2.242   0.112   5.159 -2.5843  0.4942  0.2100
11813TIP3   OH256853   6.063   1.483  16.149  0.0219 -0.0878 -0.5603
11813TIP3    H156854   6.067   1.424  16.225 -0.9894 -1.5812 -1.6028
11813TIP3    H256855   6.075   1.570  16.185 -0.1996 -0.7813  1.2854
11814TIP3   OH256856   5.964   1.648  13.554  0.0965  0.3300 -0.2365
11814TIP3    H156857   5.958   1.617  13.644 -1.9643 -2.2023 -1.1287
11814TIP3    H256858   6.057   1.665  13.541  0.4433  0.8081  2.3298
11815TIP3   OH256859   3.221   1.991  11.537 -0.0938 -0.8976  0.5679
11815TIP3    H156860   3.149   2.015  11.479  0.0235  0.2682  0.8759
11815TIP3    H256861   3.285   1.949  11.480 -0.4433 -0.7389  0.0506
11816TIP3   OH256862   3.517   3.756  13.400 -0.7677  0.4310 -0.0989
11816TIP3    H156863   3.604   3.790  13.378  0.5081 -2.7088 -0.4722
11816TIP3    H256864   3.459   3.792  13.333  1.2036 -1.1221 -2.8252
11817TIP3   OH256865   3.238   4.339   2.822 -0.4889  0.1420 -0.1455
11817TIP3    H156866   3.316   4.292   2.792 -1.3063 -0.1599 -1.9702
11817TIP3    H256867   3.269   4.392   2.895  0.9454 -1.5866  0.5918
11818TIP3   OH256868   3.354   1.194   0.906 -0.6294  0.4088 -0.0816
11818TIP3    H156869   3.378   1.135   0.835 -0.6103 -0.4673  0.6236
11818TIP3    H256870   3.258   1.193   0.906 -0.6324 -0.3373  0.4819
11819TIP3   OH256871   6.342   0.903   1.130  0.0796 -0.2234  0.1698
11819TIP3    H156872   6.313   0.991   1.107 -1.9507 -0.9777 -0.3570
11819TIP3    H256873   6.313   0.891   1.220 -0.2431 -0.5755  0.0230
11820TIP3   OH256874   6.599   3.343   0.434  0.1196  0.0359 -0.2529
11820TIP3    H156875   6.649   3.349   0.515 -1.3845 -0.0691  0.7229
11820TIP3    H256876   6.665   3.339   0.365  1.4347 -0.3719  0.9904
11821TIP3   OH256877   4.581   6.190   1.128 -0.6542 -0.3289  0.2555
11821TIP3    H156878   4.490   6.172   1.105 -0.5982 -0.3655  0.0612
11821TIP3    H256879   4.630   6.115   1.096 -0.3045  0.5255 -1.3253
11822TIP3   OH256880   0.871   0.982  14.997 -0.8253  0.1184  0.7874
11822TIP3    H156881   0.779   0.983  14.972 -0.8977  2.0124  0.9438
11822TIP3    H256882   0.884   0.897  15.039 -1.9225 -1.0792 -1.1846
11823TIP3   OH256883   4.595   4.456  12.215 -0.0485  0.0444  0.5905
11823TIP3    H156884   4.550   4.380  12.253  0.9218 -0.4834  0.7277
11823TIP3    H256885   4.555   4.467  12.129 -1.4879  0.5471  1.3031
11824TIP3   OH256886   1.367   2.310   1.804  0.2941 -0.3395 -0.0780
11824TIP3    H156887   1.271   2.314   1.808  0.2453  0.2781 -1.2870
11824TIP3    H256888   1.389   2.363   1.727  1.5010 -1.7225 -0.7320
11825TIP3   OH256889   4.155   3.849   4.200 -0.2620  0.1293  0.6191
11825TIP3    H156890   4.062   3.836   4.220 -0.6241  2.0113  0.2710
11825TIP3    H256891   4.166   3.816   4.111 -0.7875  0.6979  0.3437
11826TIP3   OH256892   1.269   4.354   0.787 -0.0024  0.1114  0.1460
11826TIP3    H156893   1.317   4.274   0.768 -0.8577 -1.0157  2.3360
11826TIP3    H256894   1.228   4.379   0.704 -1.5477 -3.0318 -0.1819
11827TIP3   OH256895   1.090   6.344  13.177 -0.3915 -0.2273 -0.5583
11827TIP3    H156896   1.076   6.251  13.191 -0.6781 -0.4172 -2.0081
11827TIP3    H256897   1.009   6.385  13.206  0.0326 -0.3306  0.8407
11828TIP3   OH256898   3.441   6.434  13.627 -0.0015  0.6451  0.3040
11828TIP3    H156899   3.413   6.443  13.536  1.0176  0.0002 -0.0855
11828TIP3    H256900   3.532   6.404  13.622 -0.1461 -0.0836  1.5216
11829TIP3   OH256901   2.395   1.723  15.620  0.2992 -0.4222  0.4371
11829TIP3    H156902   2.406   1.806  15.666  0.0043 -1.6220  2.7925
11829TIP3    H256903   2.482   1.683  15.619  0.0892 -0.9160  1.0325
11830TIP3   OH256904   3.182   4.549   5.824 -0.3886  0.0201 -0.3458
11830TIP3    H156905   3.129   4.485   5.776  0.3590  0.8699 -2.4089
11830TIP3    H256906   3.272   4.518   5.813 -0.2420 -0.2901  1.4007
11831TIP3   OH256907   6.331   5.641   1.834 -0.0408  0.1818  0.1640
11831TIP3    H156908   6.266   5.614   1.769  0.0951 -0.5075  0.3030
11831TIP3    H256909   6.416   5.623   1.792  0.0558 -1.2585  0.9020
11832TIP3   OH256910   3.102   5.863   4.198 -0.1264 -0.1394  0.5395
11832TIP3    H156911   3.179   5.868   4.255 -0.7601  0.2748  1.3766
11832TIP3    H256912   3.061   5.779   4.221  0.2807 -0.5520 -0.1941
11833TIP3   OH256913   5.398   2.666  11.927 -0.7147  0.5829  0.2602
11833TIP3    H156914   5.445   2.747  11.947 -0.4986  0.6465 -0.4750
11833TIP3    H256915   5.339   2.690  11.855 -0.8447  0.1516  0.2185
11834TIP3   OH256916   0.627   3.107  15.537 -0.3174  0.4007 -0.2669
11834TIP3    H156917   0.535   3.086  15.525 -0.0236 -0.4342 -1.1610
11834TIP3    H256918   0.666   3.026  15.570 -0.1221  1.1167  1.3386
11835TIP3   OH256919   4.583   4.972   0.813  0.6885 -0.0646 -0.2321
11835TIP3    H156920   4.617   4.890   0.777 -0.3193 -0.1085 -1.1227
11835TIP3    H256921   4.515   4.945   0.874  1.5567  0.0633  0.8364
11836TIP3   OH256922   5.586   2.014   5.637 -0.1533  0.1600 -0.2259
11836TIP3    H156923   5.601   1.941   5.576 -0.0383 -1.6767  1.8876
11836TIP3    H256924   5.598   1.975   5.724  0.3371  2.8317  0.9808
11837TIP3   OH256925   6.373   2.104  11.397  0.2143 -0.1339 -0.0511
11837TIP3    H156926   6.337   2.118  11.485  1.0511  1.1877  0.1111
11837TIP3    H256927   6.296   2.087  11.342 -0.5230  0.9791  0.5838
11838TIP3   OH256928   4.898   0.887   3.541 -0.2949 -1.0290 -0.0856
11838TIP3    H156929   4.908   0.792   3.539  1.4648 -0.8760  0.0570
11838TIP3    H256930   4.938   0.917   3.459  3.3174 -0.1628  1.7581
11839TIP3   OH256931   2.583   1.651   2.692  0.1617 -0.0933  0.2229
11839TIP3    H156932   2.547   1.578   2.741  0.6165  0.5030  1.4881
11839TIP3    H256933   2.618   1.611   2.612  0.3426 -1.2464  0.8567
11840TIP3   OH256934   4.385   3.229  17.252  0.1412  0.5212 -0.0984
11840TIP3    H156935   4.379   3.144  17.208 -2.7134  0.7396 -0.3425
11840TIP3    H256936   4.310   3.230  17.312  1.0985  2.2254  1.1538
11841TIP3   OH256937   4.210   3.538   3.382 -0.1877 -0.0831  0.2200
11841TIP3    H156938   4.210   3.529   3.286  3.1503 -1.2412  0.1913
11841TIP3    H256939   4.140   3.601   3.400 -1.7688 -0.7603 -2.8445
11842TIP3   OH256940   1.733   1.511   2.564 -0.3742  0.7269 -0.2015
11842TIP3    H156941   1.710   1.598   2.598  0.1499  0.8800 -0.2281
11842TIP3    H256942   1.819   1.523   2.526  0.2714 -0.1047  0.9390
11843TIP3   OH256943   6.635   2.481   1.220 -0.0950 -0.3012  0.8558
11843TIP3    H156944   6.622   2.545   1.151  0.7046 -0.1260  0.8632
11843TIP3    H256945   6.730   2.472   1.228 -0.1891 -1.1958  1.1236
11844TIP3   OH256946   5.616   5.840   5.181  0.0960 -0.0375  0.2312
11844TIP3    H156947   5.686   5.835   5.247  0.7245  1.9327 -0.2095
11844TIP3    H256948   5.634   5.768   5.121  1.3732  0.0434  0.4931
11845TIP3   OH256949   6.133   4.341  11.691 -0.3732 -0.1156  0.4226
11845TIP3    H156950   6.171   4.303  11.770 -1.1037  0.9577  1.3020
11845TIP3    H256951   6.039   4.346  11.708 -0.7207 -1.0514 -1.0283
11846TIP3   OH256952   1.301   6.649   0.692  0.7545  0.1459 -0.3604
11846TIP3    H156953   1.325   6.686   0.607  0.4601  0.6649 -0.2219
11846TIP3    H256954   1.212   6.617   0.679  1.2836 -1.2713 -0.7129
11847TIP3   OH256955   5.096   0.482  17.101  0.1295 -0.0023  0.4958
11847TIP3    H156956   5.010   0.522  17.110  0.2603  0.1697  0.9968
11847TIP3    H256957   5.158   0.554  17.113  0.3567 -0.2805  1.0262
11848TIP3   OH256958   4.950   5.752  14.824  0.4165 -0.2815  0.1157
11848TIP3    H156959   4.857   5.752  14.847 -0.3060  1.7205 -2.3252
11848TIP3    H256960   4.992   5.798  14.896 -0.3326 -1.7447  1.5550
11849TIP3   OH256961   4.110   6.021  11.541 -0.0620  0.9632  0.2863
11849TIP3    H156962   4.026   5.981  11.518  0.9928 -0.5085 -1.2987
11849TIP3    H256963   4.111   6.022  11.637 -1.5311  0.2364  0.3364
11850TIP3   OH256964   4.837   4.859   1.949 -0.1489  0.2266  0.1493
11850TIP3    H156965   4.755   4.856   1.900 -1.0174 -1.7732  1.5843
11850TIP3    H256966   4.818   4.914   2.024 -0.5006 -0.9276  0.9362
11851TIP3   OH256967   6.108   5.060   5.742  0.2007  0.0502 -0.1433
11851TIP3    H156968   6.067   4.977   5.765  0.5858 -0.5251 -1.4241
11851TIP3    H256969   6.188   5.063   5.794 -0.6123  0.4145  1.1382
11852TIP3   OH256970   1.339   1.564  14.603  0.2219 -0.2964 -0.2467
11852TIP3    H156971   1.317   1.618  14.679 -0.8121 -0.1534 -0.6421
11852TIP3    H256972   1.293   1.605  14.530  2.3231  0.4280 -1.2711
11853TIP3   OH256973   5.354   5.137   3.677  0.0724  0.2622  0.0752
11853TIP3    H156974   5.361   5.145   3.773 -1.4409  0.6099  0.1823
11853TIP3    H256975   5.261   5.122   3.662  0.2936  0.2798 -1.3633
11854TIP3   OH256976   5.795   1.742   2.950 -0.0300 -0.0674 -0.5446
11854TIP3    H156977   5.753   1.803   2.890 -0.7325  0.2790  0.2869
11854TIP3    H256978   5.859   1.696   2.896 -0.1474  0.7386 -1.3925
11855TIP3   OH256979   0.921   4.627  14.031  0.0043 -0.4043 -0.4332
11855TIP3    H156980   1.008   4.617  14.068  0.3239  0.8693 -0.8229
11855TIP3    H256981   0.933   4.684  13.955 -0.7065 -2.5520 -2.2672
11856TIP3   OH256982   3.656   0.011   4.278 -0.0133  0.3986  0.7880
11856TIP3    H156983   3.714   0.083   4.300 -0.0936  0.1103  1.9829
11856TIP3    H256984   3.673  -0.056   4.345 -2.8739  0.9519  2.2362
11857TIP3   OH256985   0.784   2.460   2.511  0.6966 -0.5658 -0.3500
11857TIP3    H156986   0.855   2.461   2.447  2.4564  0.5724  1.5040
11857TIP3    H256987   0.827   2.443   2.595 -1.4811 -1.7734  0.6247
11858TIP3   OH256988   1.721   6.289   5.169  1.1594  0.0904 -0.0553
11858TIP3    H156989   1.662   6.215   5.155 -0.2707  1.1498  0.1638
11858TIP3    H256990   1.718   6.339   5.087  0.1625  1.2145  0.6336
11859TIP3   OH256991   6.444   4.104   0.728  0.1549  0.0505  0.3141
11859TIP3    H156992   6.383   4.176   0.740  1.1478  0.8101  0.9666
11859TIP3    H256993   6.419   4.041   0.796  1.7236  1.5352  2.3716
11860TIP3   OH256994   2.688   3.696  12.948 -0.0098  0.6074 -0.3163
11860TIP3    H156995   2.777   3.660  12.947 -0.1658  0.1034  1.3906
11860TIP3    H256996   2.700   3.790  12.935  0.9792  0.8268  1.7708
11861TIP3   OH256997   1.100   0.901   5.124 -0.7513  0.1486 -0.2341
11861TIP3    H156998   1.056   0.818   5.141  0.3112  0.0285  2.3237
11861TIP3    H256999   1.101   0.909   5.029 -1.4542 -2.4518 -0.5148
11862TIP3   OH257000   2.010   5.262  13.315  0.1722  0.5528 -0.4821
11862TIP3    H157001   2.008   5.169  13.293  1.0285  0.4931 -0.3470
11862TIP3    H257002   2.061   5.266  13.396 -1.9528  0.8876  0.9025
11863TIP3   OH257003   1.954   6.440   0.237  0.4701 -0.0704  0.5754
11863TIP3    H157004   2.001   6.365   0.199  0.8589  0.9799 -1.1112
11863TIP3    H257005   1.992   6.449   0.325  1.1009 -1.2359  0.4542
11864TIP3   OH257006   3.416   3.847   1.467 -0.1414  0.2411  0.1130
11864TIP3    H157007   3.483   3.824   1.403 -0.2533 -0.3461  0.2012
11864TIP3    H257008   3.336   3.857   1.415 -0.3184 -0.6316  0.1993
11865TIP3   OH257009   3.233   0.191   1.536  0.6022 -0.3264 -0.2835
11865TIP3    H157010   3.188   0.250   1.597 -0.8485 -0.3434 -1.3029
11865TIP3    H257011   3.324   0.223   1.535  0.3201  0.5627  0.7874
11866TIP3   OH257012   4.398   5.983  13.429  0.3072 -0.1582 -0.1068
11866TIP3    H157013   4.310   5.955  13.454  0.2108  0.8688  0.7628
11866TIP3    H257014   4.456   5.918  13.468  0.3244  2.3207  4.7480
11867TIP3   OH257015   1.251   3.741   4.851 -0.3655  0.1459  0.4412
11867TIP3    H157016   1.184   3.673   4.844 -2.2662  2.0564 -1.3631
11867TIP3    H257017   1.296   3.740   4.766  0.5758  0.2012  0.9240
11868TIP3   OH257018   6.310   1.520  15.089 -0.2000  0.5827  0.4958
11868TIP3    H157019   6.250   1.588  15.120 -1.0961 -0.1094  0.3013
11868TIP3    H257020   6.255   1.443  15.076  1.0973 -0.7443  2.4456
11869TIP3   OH257021   2.597   4.818   4.123  0.0554  0.7228  0.0057
11869TIP3    H157022   2.539   4.760   4.074  1.3523 -0.0899 -0.6330
11869TIP3    H257023   2.569   4.906   4.099 -0.2421  0.3366 -1.1203
11870TIP3   OH257024   3.100   4.946  15.098 -0.5073  0.2055 -0.6144
11870TIP3    H157025   3.166   4.881  15.121 -0.6363  0.6771  1.2961
11870TIP3    H257026   3.024   4.894  15.073 -0.0886 -0.3650 -0.7310
11871TIP3   OH257027   6.368   1.863  14.536 -0.2659  0.4536  0.7938
11871TIP3    H157028   6.383   1.938  14.594  2.3202  0.1845  0.5602
11871TIP3    H257029   6.446   1.809  14.545 -0.9906 -0.9891 -0.9121
11872TIP3   OH257030   5.204   1.974  12.227 -0.3377 -0.0504  0.3349
11872TIP3    H157031   5.257   2.004  12.153 -0.7628 -0.5930 -0.2082
11872TIP3    H257032   5.197   1.879  12.214  0.6706 -0.3465  1.8074
11873TIP3   OH257033   5.452   5.500   6.460  0.0268 -0.6618  0.1520
11873TIP3    H157034   5.426   5.413   6.489 -0.9955 -0.6330 -0.6237
11873TIP3    H257035   5.395   5.559   6.510  0.2977 -0.4661  0.2310
11874TIP3   OH257036   4.670   6.154  11.895  0.3740  0.1695  0.1279
11874TIP3    H157037   4.601   6.157  11.961 -0.2960 -0.7779 -0.4969
11874TIP3    H257038   4.724   6.078  11.919  1.2749  0.9638  0.6705
11875TIP3   OH257039   4.593   3.932  12.526  0.0303  0.0544 -0.2238
11875TIP3    H157040   4.548   4.013  12.550  0.6191  0.0246  1.0402
11875TIP3    H257041   4.600   3.936  12.430  0.5908  1.7834 -0.1439
11876TIP3   OH257042   2.757   2.953  13.146  0.0852 -0.2510 -0.1499
11876TIP3    H157043   2.718   2.980  13.063 -0.0944 -0.9616 -0.2998
11876TIP3    H257044   2.801   3.032  13.178 -1.0619  0.4500 -0.2150
11877TIP3   OH257045   2.503   3.479   5.497 -0.4764  0.4583 -0.5331
11877TIP3    H157046   2.567   3.482   5.568  0.6873  3.2352 -1.5513
11877TIP3    H257047   2.540   3.418   5.433  0.3104  0.7246 -0.3431
11878TIP3   OH257048   3.944   4.175   4.482 -0.2841  0.3381  0.0156
11878TIP3    H157049   4.030   4.149   4.514 -0.6890 -0.5280  0.4334
11878TIP3    H257050   3.919   4.106   4.421  0.0466  1.4714 -1.4722
11879TIP3   OH257051   3.356   4.292   3.525  0.5163 -0.0387  0.2775
11879TIP3    H157052   3.348   4.334   3.610 -1.6486 -0.0942  0.1610
11879TIP3    H257053   3.327   4.202   3.539  0.5213 -0.1601 -0.4410
11880TIP3   OH257054   6.066   1.176  14.151  0.1853 -0.5375 -0.3489
11880TIP3    H157055   6.061   1.244  14.218  0.1574 -1.3484  0.4826
11880TIP3    H257056   6.054   1.094  14.198  0.4225 -1.1453 -1.3098
11881TIP3   OH257057   2.233   3.908  16.322 -0.4192 -0.2403 -0.3818
11881TIP3    H157058   2.273   3.838  16.271 -1.8792 -1.7979  0.5030
11881TIP3    H257059   2.145   3.917  16.287 -0.3878  0.8857 -0.2073
11882TIP3   OH257060   3.829   2.444   6.311 -0.2843 -0.0313  0.3602
11882TIP3    H157061   3.880   2.435   6.391  1.9330 -0.5320 -1.0172
11882TIP3    H257062   3.789   2.358   6.299  0.1772 -0.2593  0.4274
11883TIP3   OH257063   4.963   3.803   2.072 -0.1771 -0.1367 -0.4022
11883TIP3    H157064   5.001   3.881   2.112 -0.5710  0.0184 -0.3294
11883TIP3    H257065   5.030   3.735   2.084 -1.2687 -0.8182  2.9101
11884TIP3   OH257066   1.877   3.234  17.054 -0.6541 -0.1612  0.1456
11884TIP3    H157067   1.954   3.183  17.030 -0.1874  0.4270  0.3501
11884TIP3    H257068   1.913   3.313  17.094 -1.3451  0.5018 -0.5114
11885TIP3   OH257069   1.200   6.084  10.588  0.0947 -0.3552 -0.0302
11885TIP3    H157070   1.265   6.117  10.650 -0.8192  2.7074 -0.5303
11885TIP3    H257071   1.237   6.002  10.555  4.4028  1.8481 -1.2876
11886TIP3   OH257072   6.503   0.649   0.077  0.2234  0.1552  0.9880
11886TIP3    H157073   6.537   0.632   0.164  2.5989  0.1338  0.1402
11886TIP3    H257074   6.564   0.713   0.039 -2.1147  2.0749  0.1503
11887TIP3   OH257075   2.044   4.819   4.859 -0.1604  0.0058  0.3490
11887TIP3    H157076   1.970   4.764   4.885  0.6705 -1.4988 -0.3378
11887TIP3    H257077   2.113   4.757   4.838  1.2709  1.3750  0.8468
11888TIP3   OH257078   3.290   5.902  14.916  0.7148  0.0004  0.1463
11888TIP3    H157079   3.314   5.845  14.988 -0.9833 -0.2857  0.5351
11888TIP3    H257080   3.344   5.980  14.928  1.8621 -0.8323  0.5633
11889TIP3   OH257081   3.358   3.980  13.992  0.4132  0.5822 -0.3437
11889TIP3    H157082   3.421   3.971  13.920  0.6463 -0.1179 -0.0661
11889TIP3    H257083   3.273   3.973  13.950  0.5518 -0.1039 -0.5306
11890TIP3   OH257084   2.907   4.092   4.883  0.1181  0.5107  0.1498
11890TIP3    H157085   2.908   4.170   4.828  0.8431  0.0376 -0.5191
11890TIP3    H257086   2.955   4.026   4.833 -0.9341 -0.5395  0.4578
11891TIP3   OH257087   4.529   2.436  11.795 -0.1453  0.7395 -0.5068
11891TIP3    H157088   4.473   2.457  11.721  1.3220  0.6032 -1.6996
11891TIP3    H257089   4.509   2.344  11.815  1.5682 -0.2122 -2.7622
11892TIP3   OH257090   2.733   3.492  16.249 -0.3583 -0.3251  0.0166
11892TIP3    H157091   2.787   3.455  16.319  1.2084  1.0991 -0.3802
11892TIP3    H257092   2.647   3.505  16.290  0.6756  1.0607  1.9146
11893TIP3   OH257093   6.250   5.360  14.838 -0.7101 -0.0951  0.5579
11893TIP3    H157094   6.263   5.268  14.812  0.7469 -0.7262  3.1442
11893TIP3    H257095   6.298   5.410  14.772  1.0438 -1.4328  0.7256
11894TIP3   OH257096   6.642   3.936  12.604 -0.5172  0.5005 -0.0905
11894TIP3    H157097   6.733   3.965  12.609 -1.1416  3.1558 -1.9226
11894TIP3    H257098   6.648   3.841  12.595  2.0153  0.5382  0.3708
11895TIP3   OH257099   6.102   4.884   3.525  0.2794  0.0784 -0.1885
11895TIP3    H157100   6.192   4.911   3.503  0.5299 -0.0483  0.6402
11895TIP3    H257101   6.088   4.804   3.475  0.4318  0.3990 -0.7461
11896TIP3   OH257102   1.081   4.275   1.432  0.1277 -0.1392 -0.0249
11896TIP3    H157103   1.116   4.350   1.383  1.2680 -0.4046  0.3455
11896TIP3    H257104   1.067   4.310   1.520 -0.9360  0.0645 -0.2622
11897TIP3   OH257105   2.956   4.306  14.884 -0.0973 -0.2388  0.1242
11897TIP3    H157106   2.929   4.276  14.798 -1.0072 -1.0988  0.6790
11897TIP3    H257107   2.901   4.256  14.945  0.1338  0.7516  1.1822
11898TIP3   OH257108   2.287   0.145   2.998  0.2385  0.0944 -0.3625
11898TIP3    H157109   2.324   0.222   2.954 -0.0523 -1.0026 -2.7090
11898TIP3    H257110   2.301   0.161   3.091  0.1953  2.9587 -0.7672
11899TIP3   OH257111   6.087   2.830  13.947  1.0862 -0.0060 -0.5901
11899TIP3    H157112   6.142   2.829  13.869  1.2802  0.4540 -0.4646
11899TIP3    H257113   6.108   2.749  13.992  1.3818 -0.0106 -0.7361
11900TIP3   OH257114   2.081   0.335   3.875 -0.0799  0.3816 -0.0974
11900TIP3    H157115   2.165   0.341   3.919 -1.0619  1.8280  1.7205
11900TIP3    H257116   2.017   0.324   3.946 -1.4710 -0.3057 -1.3867
11901TIP3   OH257117   6.497   1.792  10.973 -0.4171  0.0517  0.2645
11901TIP3    H157118   6.439   1.771  11.046 -0.6752  0.9062  0.3148
11901TIP3    H257119   6.439   1.794  10.896 -0.2758 -0.0751  0.1518
11902TIP3   OH257120   3.480   2.813  14.085 -0.1202  0.0937 -0.5906
11902TIP3    H157121   3.402   2.867  14.100 -0.8788 -0.5491 -2.0099
11902TIP3    H257122   3.534   2.865  14.026 -1.9523 -1.5082 -3.9770
11903TIP3   OH257123   5.772   1.170  16.983 -0.7160 -0.3168  0.1123
11903TIP3    H157124   5.779   1.164  16.888 -0.2785 -1.3444  0.1982
11903TIP3    H257125   5.802   1.259  17.004 -0.0068 -0.3733 -0.6356
11904TIP3   OH257126   4.784   2.839  15.987 -0.4573  0.1608  0.1472
11904TIP3    H157127   4.792   2.906  16.055 -2.4261  1.2579 -0.6358
11904TIP3    H257128   4.714   2.782  16.018 -0.6218  0.0276 -0.4665
11905TIP3   OH257129   5.673   1.276  11.722  0.3324  0.4668 -0.2218
11905TIP3    H157130   5.671   1.313  11.810  2.6121  0.5495 -0.1456
11905TIP3    H257131   5.595   1.310  11.680  0.0727  1.8083  1.2381
11906TIP3   OH257132   4.445   4.483  13.170  0.1980 -0.6805 -0.2348
11906TIP3    H157133   4.533   4.506  13.201  0.1872  1.5425 -1.5873
11906TIP3    H257134   4.408   4.430  13.241  1.7575  0.3617  1.4669
11907TIP3   OH257135   0.792   3.387   2.568  0.4037  0.0285 -0.1792
11907TIP3    H157136   0.841   3.317   2.524  2.5092  1.9388 -1.0487
11907TIP3    H257137   0.840   3.403   2.649  0.2161  0.7794 -0.2158
11908TIP3   OH257138   5.404   5.112   0.950  0.7580 -0.0057  0.0900
11908TIP3    H157139   5.434   5.163   0.875 -0.2673 -1.6211 -1.4907
11908TIP3    H257140   5.312   5.135   0.960  1.2423  1.3361  1.8681
11909TIP3   OH257141   2.787   5.843  16.237  0.2722  0.1228 -1.0356
11909TIP3    H157142   2.743   5.925  16.212 -0.8621 -0.4915 -1.0992
11909TIP3    H257143   2.725   5.799  16.294  1.7258  0.2324  0.7160
11910TIP3   OH257144   0.602   4.155   5.560 -0.0306  0.1462 -0.6353
11910TIP3    H157145   0.659   4.212   5.508 -0.8025  0.9991 -0.5777
11910TIP3    H257146   0.632   4.166   5.650 -0.7437  1.1784 -0.5083
11911TIP3   OH257147   0.729   5.419   4.079  0.5254  0.3351 -0.0648
11911TIP3    H157148   0.814   5.450   4.048 -0.6494  2.7645 -1.1168
11911TIP3    H257149   0.709   5.344   4.022  2.2884 -0.8695  0.7914
11912TIP3   OH257150   6.100   2.436   0.145  0.1559 -0.5877 -0.3210
11912TIP3    H157151   6.052   2.506   0.102  0.3070 -1.0408 -1.2561
11912TIP3    H257152   6.171   2.481   0.192 -0.3292 -0.0398 -0.1075
11913TIP3   OH257153   6.465   2.641  14.188 -0.0937  0.9256 -0.4949
11913TIP3    H157154   6.529   2.675  14.125  1.5771 -0.9378  0.0942
11913TIP3    H257155   6.411   2.580  14.137  1.0847 -0.3749 -0.2601
11914TIP3   OH257156   3.107   5.773  16.552 -0.0290 -0.0285  0.0752
11914TIP3    H157157   3.021   5.733  16.538 -0.2399  0.6221 -0.5369
11914TIP3    H257158   3.167   5.722  16.498 -0.2617  0.3542 -0.5463
11915TIP3   OH257159   2.005   3.108   6.012  0.0782  0.3918  0.3255
11915TIP3    H157160   1.988   3.132   6.103 -0.7684 -1.6911  0.7932
11915TIP3    H257161   1.953   3.028   5.999  0.1312  0.6716 -2.0140
11916TIP3   OH257162   3.286   2.642   5.016  0.3207 -0.0179  0.3815
11916TIP3    H157163   3.358   2.627   4.955  0.6622 -1.3782  1.0769
11916TIP3    H257164   3.318   2.608   5.100 -0.9864 -0.3154  0.7886
11917TIP3   OH257165   2.664   5.621   2.216 -0.0043  0.5417  0.3100
11917TIP3    H157166   2.725   5.629   2.289  0.3742  0.4490  0.0032
11917TIP3    H257167   2.717   5.635   2.138 -0.3565  0.3648  0.0363
11918TIP3   OH257168   2.854   5.709  13.623 -0.4327  0.3233  0.1486
11918TIP3    H157169   2.919   5.776  13.645  1.9410 -1.6513 -0.3154
11918TIP3    H257170   2.816   5.683  13.707  2.6323 -1.4706  1.1543
11919TIP3   OH257171   6.670   4.774   3.560  0.2269 -0.1608 -0.6122
11919TIP3    H157172   6.656   4.813   3.646 -0.6707  2.2364 -1.7472
11919TIP3    H257173   6.765   4.760   3.555  0.3213 -0.0064  0.6378
11920TIP3   OH257174   6.094   6.212  15.456  0.4084 -0.0164 -0.0182
11920TIP3    H157175   6.154   6.172  15.520 -0.4683 -0.4096  0.5761
11920TIP3    H257176   6.107   6.306  15.467  1.3332 -0.0981 -0.3038
11921TIP3   OH257177   2.062   0.421   5.221  0.2388  0.5833  0.5550
11921TIP3    H157178   2.137   0.433   5.279  0.1826  1.0980  0.5281
11921TIP3    H257179   1.989   0.461   5.268  0.4151  2.0823 -0.3485
11922TIP3   OH257180   4.890   0.380  14.724  0.0905 -0.4083  0.3728
11922TIP3    H157181   4.955   0.319  14.758  2.7076  1.8207 -0.3067
11922TIP3    H257182   4.932   0.423  14.651 -2.1708  1.1924 -0.1114
11923TIP3   OH257183   4.456   2.629   3.970  0.2537 -0.5573 -0.1543
11923TIP3    H157184   4.504   2.611   3.889  1.1282  1.2110 -0.0824
11923TIP3    H257185   4.520   2.614   4.040  0.5873  1.2803 -0.0249
11924TIP3   OH257186   4.071   1.067   5.193  0.1402  0.6122  0.2039
11924TIP3    H157187   4.021   1.030   5.266  0.2857 -1.3963 -0.6477
11924TIP3    H257188   4.083   0.993   5.133  2.8448  1.3984 -0.3263
11925TIP3   OH257189   6.131   3.735  15.677 -0.3089 -0.0258  0.3527
11925TIP3    H157190   6.175   3.680  15.741 -0.4715  0.7076  1.1092
11925TIP3    H257191   6.080   3.674  15.624 -0.5617 -0.5911  1.2288
11926TIP3   OH257192   3.430   1.705  15.469 -0.5447 -0.2437 -0.0326
11926TIP3    H157193   3.469   1.747  15.545  1.6796 -0.5053 -0.9311
11926TIP3    H257194   3.442   1.612  15.484 -1.6045 -0.3822  0.0246
11927TIP3   OH257195   1.739   0.632   3.264  0.3088 -0.0011 -0.2472
11927TIP3    H157196   1.702   0.545   3.244  0.2648  0.2414 -1.3112
11927TIP3    H257197   1.815   0.613   3.318 -0.2651 -0.6389  0.3674
11928TIP3   OH257198   5.778   5.742  11.649  0.4613  0.4978 -0.2698
11928TIP3    H157199   5.759   5.659  11.605 -1.0523 -0.0611  1.3345
11928TIP3    H257200   5.715   5.803  11.613  1.6528  1.0333 -1.5374
11929TIP3   OH257201   2.319   3.571   4.626 -0.2474 -0.1266 -0.1457
11929TIP3    H157202   2.391   3.507   4.634  0.2149  0.5104  1.0315
11929TIP3    H257203   2.273   3.565   4.709 -2.8200 -1.9130 -1.5667
11930TIP3   OH257204   2.679   1.134  12.651  0.3147  0.4495 -0.0666
11930TIP3    H157205   2.700   1.067  12.586 -1.9150 -0.8486  0.4213
11930TIP3    H257206   2.593   1.167  12.623  0.1544  1.1583  1.2142
11931TIP3   OH257207   2.831   2.751  13.411  0.0586 -0.0116  0.1284
11931TIP3    H157208   2.869   2.834  13.382  1.3868 -0.6712 -0.1114
11931TIP3    H257209   2.853   2.689  13.342  0.4926 -0.9027  1.0250
11932TIP3   OH257210   4.899   2.416   4.348  0.1631 -0.5552  0.0580
11932TIP3    H157211   4.942   2.455   4.423  1.4416 -0.7318 -0.5665
11932TIP3    H257212   4.944   2.333   4.334 -0.6155 -0.9197 -0.3953
11933TIP3   OH257213   2.043   5.603   0.799 -0.2162 -0.6469  0.0853
11933TIP3    H157214   2.054   5.591   0.893 -0.5085  1.2420  0.4107
11933TIP3    H257215   2.110   5.668   0.775 -0.7827 -0.3659 -0.7968
11934TIP3   OH257216   6.027   4.594   4.393 -0.1963  0.4573 -0.1024
11934TIP3    H157217   6.074   4.574   4.474  0.4999  2.7983  0.1267
11934TIP3    H257218   5.978   4.514   4.374  3.1466 -1.8584  0.1020
11935TIP3   OH257219   1.870   5.442  12.404  0.4811  0.4227  0.2139
11935TIP3    H157220   1.955   5.476  12.433  0.6370 -0.4418  0.8239
11935TIP3    H257221   1.808   5.511  12.426  0.8453  0.5113  1.0113
11936TIP3   OH257222   1.877   0.442  12.322 -0.1958 -0.1369  0.3077
11936TIP3    H157223   1.910   0.484  12.243  1.6601 -1.0714  0.5157
11936TIP3    H257224   1.936   0.472  12.391 -0.2378 -1.2673  0.8545
11937TIP3   OH257225   4.879   4.613   4.357 -0.1753  0.8661 -0.5476
11937TIP3    H157226   4.899   4.635   4.448 -0.8925  0.1161 -0.2000
11937TIP3    H257227   4.834   4.691   4.322  0.3952  1.2808 -0.3679
11938TIP3   OH257228   2.430   5.491  14.898 -0.0457 -0.0058 -0.4214
11938TIP3    H157229   2.490   5.521  14.967 -1.0353 -1.9513  1.3974
11938TIP3    H257230   2.481   5.496  14.817  2.4618 -1.1796  0.9768
11939TIP3   OH257231   1.477   1.144   5.310 -0.0404  0.0409 -0.5318
11939TIP3    H157232   1.417   1.194   5.254  0.0924 -0.4518 -1.1182
11939TIP3    H257233   1.424   1.116   5.384 -0.5153 -0.3181 -1.0056
11940TIP3   OH257234   0.060   5.185   2.798  0.2339 -0.2547 -0.7319
11940TIP3    H157235   0.036   5.161   2.709 -1.7681  1.0887 -0.6084
11940TIP3    H257236   0.049   5.280   2.802 -0.5715 -0.3775  1.1736
11941TIP3   OH257237   4.830   1.711  12.398  0.5957 -0.0948 -0.5410
11941TIP3    H157238   4.822   1.758  12.315 -1.0179  0.2459 -0.2143
11941TIP3    H257239   4.879   1.771  12.455 -1.2415  1.1571 -0.2036
11942TIP3   OH257240   1.646   1.030  16.150  0.1034 -0.0791  0.6683
11942TIP3    H157241   1.651   1.120  16.117 -1.3907  0.0986  0.8296
11942TIP3    H257242   1.737   1.000  16.154  0.4996  0.5885 -1.6803
11943TIP3   OH257243   2.073   3.518   4.504  0.1426 -0.0789  0.0108
11943TIP3    H157244   2.152   3.535   4.555  0.2482  0.2648 -0.2594
11943TIP3    H257245   2.098   3.445   4.446  0.9676  1.3753 -1.5576
11944TIP3   OH257246   4.036   4.986  13.197  0.0303  0.0117  0.1078
11944TIP3    H157247   3.981   5.013  13.270  0.5371 -0.4979  0.6877
11944TIP3    H257248   4.073   4.901  13.224  1.1514  0.3698 -0.2228
11945TIP3   OH257249   5.676   5.078  16.874 -0.0683  0.6964 -0.5812
11945TIP3    H157250   5.660   5.153  16.817 -2.0253  0.4579 -0.4073
11945TIP3    H257251   5.621   5.093  16.950 -0.3594 -0.8134 -0.4549
11946TIP3   OH257252   2.535   6.109  17.119  0.0325 -0.3057  0.3766
11946TIP3    H157253   2.470   6.176  17.141 -0.2385 -1.3208  3.1076
11946TIP3    H257254   2.505   6.073  17.036 -2.5390 -0.2455  1.1848
11947TIP3   OH257255   0.224   0.253   4.811  0.8955 -0.2833 -0.3157
11947TIP3    H157256   0.269   0.332   4.842  0.8103 -0.2392 -0.3028
11947TIP3    H257257   0.252   0.243   4.721 -0.9777  1.1744 -1.1283
11948TIP3   OH257258   0.756   5.292  17.094 -0.0223  0.1653 -0.0566
11948TIP3    H157259   0.759   5.312  17.000  1.4186  1.0635  0.1445
11948TIP3    H257260   0.825   5.227  17.107  0.5708  0.8864  0.5307
11949TIP3   OH257261   0.639   6.485   6.307  0.2775 -0.4487 -0.5283
11949TIP3    H157262   0.569   6.543   6.276  1.8226  1.9128  0.1728
11949TIP3    H257263   0.597   6.433   6.375 -1.3738 -0.8308 -1.7472
11950TIP3   OH257264   5.612   6.444   0.078 -0.4217  0.0428 -0.4205
11950TIP3    H157265   5.552   6.408   0.144  2.0865 -3.0974  0.3896
11950TIP3    H257266   5.656   6.516   0.122 -0.3046 -0.6546  0.6408
11951TIP3   OH257267   1.911   4.169   3.293  0.8318  0.2994  0.1804
11951TIP3    H157268   1.932   4.251   3.248  0.8290 -2.2104 -5.1750
11951TIP3    H257269   1.993   4.120   3.292  0.1764 -0.8421  0.5094
11952TIP3   OH257270   2.312   6.478  14.790  0.7080  0.5551  0.5495
11952TIP3    H157271   2.333   6.565  14.755 -0.2961  0.9146  0.7963
11952TIP3    H257272   2.217   6.477  14.796  0.7455 -0.3118  1.2114
11953TIP3   OH257273   2.053   5.103  10.924  0.1381  0.0675  0.1222
11953TIP3    H157274   2.047   5.091  10.830 -1.6662  1.6897 -0.0413
11953TIP3    H257275   1.968   5.075  10.957  0.5424  0.0658  1.2087
11954TIP3   OH257276   4.681   2.804  15.522 -0.0448  0.0505  0.2265
11954TIP3    H157277   4.634   2.748  15.583 -1.3901 -0.7168 -1.4333
11954TIP3    H257278   4.740   2.746  15.476  0.1285  0.4024 -0.0022
11955TIP3   OH257279   2.872   2.000   5.191 -0.0547 -0.2102 -0.4216
11955TIP3    H157280   2.827   1.943   5.128 -0.0076 -1.7058  0.8389
11955TIP3    H257281   2.963   1.969   5.190  0.1312  0.3183 -0.2350
11956TIP3   OH257282   1.393   3.154   3.449  0.3172  0.4364 -0.3427
11956TIP3    H157283   1.311   3.194   3.418  0.1683 -0.2861 -0.9169
11956TIP3    H257284   1.441   3.133   3.369  1.1871  1.0889 -0.0039
11957TIP3   OH257285   3.502   0.594  14.429  0.7805  0.9344 -0.0156
11957TIP3    H157286   3.574   0.629  14.482  0.3635  0.0409  1.1844
11957TIP3    H257287   3.467   0.670  14.384  2.6870  1.3465 -0.9162
11958TIP3   OH257288   0.429   4.088   3.274  0.2568  0.3605 -0.2137
11958TIP3    H157289   0.366   4.024   3.240  0.4964  0.3753 -0.6939
11958TIP3    H257290   0.506   4.079   3.218  0.2564  1.1481 -0.3527
11959TIP3   OH257291   1.167   4.973   0.165 -0.0801 -0.3250  0.6068
11959TIP3    H157292   1.101   5.005   0.227 -0.6093 -1.6820  0.7832
11959TIP3    H257293   1.116   4.939   0.091  0.5209  0.6531 -0.2858
11960TIP3   OH257294   2.667   6.560   2.929 -0.8098  0.0826  0.8616
11960TIP3    H157295   2.582   6.603   2.920 -0.3624  0.9477  0.5802
11960TIP3    H257296   2.719   6.596   2.857  0.1967  0.5550  1.7928
11961TIP3   OH257297   2.085   2.539  15.924 -0.6955 -0.3483 -0.7830
11961TIP3    H157298   2.152   2.597  15.886 -1.2843  2.0077  1.4611
11961TIP3    H257299   2.080   2.465  15.864  1.4677  1.0374 -2.8419
11962TIP3   OH257300   6.461   1.691   1.951  0.2636  0.2266  0.6696
11962TIP3    H157301   6.550   1.664   1.974 -0.2210 -1.8048  0.3298
11962TIP3    H257302   6.439   1.759   2.015  1.2516 -0.8261  2.1856
11963TIP3   OH257303   1.475   4.169   4.399 -0.4255 -0.5246  0.4491
11963TIP3    H157304   1.391   4.213   4.384  0.0338  0.2383  0.0704
11963TIP3    H257305   1.513   4.160   4.312 -0.4391 -1.5512  0.5356
11964TIP3   OH257306   1.585   1.807  12.934  0.0153 -0.4429  0.3195
11964TIP3    H157307   1.514   1.764  12.887 -0.3539 -0.7702  1.1596
11964TIP3    H257308   1.665   1.766  12.900 -0.1994 -0.2390 -0.4555
11965TIP3   OH257309   2.045   0.876   5.171  0.4826  0.2793 -0.4880
11965TIP3    H157310   2.116   0.812   5.165 -0.3178 -0.5138 -1.9382
11965TIP3    H257311   2.074   0.950   5.118  1.4441  1.2341  1.2540
11966TIP3   OH257312   1.741   1.527   1.929  0.0210 -0.3539 -0.1156
11966TIP3    H157313   1.788   1.581   1.993 -2.2512 -0.1834  1.5387
11966TIP3    H257314   1.649   1.553   1.939 -0.8109 -2.6617 -1.1599
11967TIP3   OH257315   5.100   4.523   1.150  0.2433  0.6079  0.9970
11967TIP3    H157316   5.103   4.573   1.232  0.8831 -0.0898  1.4100
11967TIP3    H257317   5.010   4.488   1.146  0.1243  0.8846  1.2500
11968TIP3   OH257318   2.737   1.712   4.749  0.0790 -0.5089  0.1904
11968TIP3    H157319   2.695   1.772   4.688 -0.0112 -0.8779 -0.1182
11968TIP3    H257320   2.798   1.767   4.799  0.6659 -0.3168 -0.7091
11969TIP3   OH257321   4.540   2.820   1.206 -0.5616  0.2514 -0.2309
11969TIP3    H157322   4.490   2.827   1.125 -1.8123 -0.7974  0.4106
11969TIP3    H257323   4.632   2.829   1.179 -0.7572 -2.2928 -2.0903
11970TIP3   OH257324   5.935   5.436   2.879 -0.4539  0.1644  0.0046
11970TIP3    H157325   5.896   5.500   2.820 -0.7360  0.0074  0.0205
11970TIP3    H257326   6.030   5.453   2.874 -0.5725  1.1081  0.6136
11971TIP3   OH257327   1.111   2.578  10.996 -0.0486 -0.4080 -0.2705
11971TIP3    H157328   1.042   2.600  11.059 -1.4777 -1.7887 -1.2647
11971TIP3    H257329   1.127   2.658  10.947  0.2744  0.3744  1.0739
11972TIP3   OH257330   3.749   0.082  11.157  0.6312 -0.2212  0.2204
11972TIP3    H157331   3.775  -0.009  11.145 -0.0369 -0.6535  1.7781
11972TIP3    H257332   3.790   0.109  11.239 -1.6597 -0.1444  1.4479
11973TIP3   OH257333   3.858   2.045  13.492  0.1398  0.6316 -0.5099
11973TIP3    H157334   3.795   2.097  13.542 -0.4923 -0.1172 -0.5195
11973TIP3    H257335   3.838   2.067  13.400 -0.5333 -0.0825 -0.5395
11974TIP3   OH257336   2.910   4.677   0.417 -0.1636  1.2024  0.4103
11974TIP3    H157337   2.916   4.638   0.504 -2.1429  0.2427  0.1837
11974TIP3    H257338   2.824   4.719   0.416 -0.5230  0.5060 -1.3319
11975TIP3   OH257339   6.624   4.287  13.339  0.1731 -0.2618  0.2252
11975TIP3    H157340   6.543   4.292  13.390  0.4223 -2.3655  0.9518
11975TIP3    H257341   6.612   4.211  13.283  0.2567  1.5054 -2.3430
11976TIP3   OH257342   6.443   3.089  11.654  0.3058  0.0301 -0.3492
11976TIP3    H157343   6.385   3.069  11.581  0.3885  1.1341 -0.7424
11976TIP3    H257344   6.525   3.044  11.634 -0.5264 -1.9661  0.4572
11977TIP3   OH257345   4.074   5.345   2.466 -0.0700 -0.0501 -0.2906
11977TIP3    H157346   4.014   5.378   2.532 -0.6979  1.4064 -1.5204
11977TIP3    H257347   4.028   5.358   2.383  0.9202 -1.2811 -1.0779
11978TIP3   OH257348   5.354   4.542   0.124 -0.5570  0.7871 -0.8796
11978TIP3    H157349   5.262   4.541   0.096 -0.5675 -0.9452 -0.9055
11978TIP3    H257350   5.354   4.494   0.206  0.3815  0.3999 -1.0954
11979TIP3   OH257351   0.166   0.387  13.285 -0.0129  1.1829 -0.7900
11979TIP3    H157352   0.233   0.345  13.232 -1.0198 -2.0838  0.2547
11979TIP3    H257353   0.202   0.386  13.374 -0.0461  2.6844 -0.7431
11980TIP3   OH257354   4.743   5.792   0.323 -0.1672  0.2157  0.1273
11980TIP3    H157355   4.691   5.831   0.393 -1.9787 -0.8669 -0.5577
11980TIP3    H257356   4.760   5.702   0.352 -0.4534 -0.0681 -0.5371
11981TIP3   OH257357   4.904   2.723   0.478  0.4333  0.3507 -0.5264
11981TIP3    H157358   4.890   2.707   0.571  0.7486 -3.7466 -0.9905
11981TIP3    H257359   4.820   2.753   0.445 -0.0557  0.5451  0.8523
11982TIP3   OH257360   2.241   1.838   2.870  0.1191 -0.0292  0.2267
11982TIP3    H157361   2.217   1.835   2.962  0.3651 -1.5870  0.2574
11982TIP3    H257362   2.202   1.759   2.832 -0.3296  0.7925 -1.1028
11983TIP3   OH257363   1.602   4.641   3.713  0.4366  0.5620  0.5530
11983TIP3    H157364   1.592   4.546   3.712  1.2511  0.4550  1.2072
11983TIP3    H257365   1.696   4.655   3.721  0.3370  1.4288  0.2782
11984TIP3   OH257366   1.818   1.551  15.813 -0.4088  0.2115  0.0173
11984TIP3    H157367   1.856   1.572  15.899  0.8004 -0.0144 -0.4424
11984TIP3    H257368   1.799   1.457  15.818  0.4773  0.0030 -0.2384
11985TIP3   OH257369   6.329   2.659  15.933  0.3798  0.2526 -0.0118
11985TIP3    H157370   6.339   2.565  15.919  0.6357 -0.0646  1.9809
11985TIP3    H257371   6.418   2.691  15.943  0.3155  0.8000 -1.0493
11986TIP3   OH257372   4.394   4.864  10.551  0.3719  0.4580  0.5257
11986TIP3    H157373   4.323   4.912  10.508  0.5723  1.4383  1.2356
11986TIP3    H257374   4.361   4.775  10.560 -0.4406  0.7022  0.1026
11987TIP3   OH257375   6.631   4.689  17.108 -0.1890 -0.3196 -0.3839
11987TIP3    H157376   6.677   4.757  17.156 -0.9075 -1.1719  1.6548
11987TIP3    H257377   6.547   4.728  17.085 -0.6873 -0.5466  0.9754
11988TIP3   OH257378   5.070   3.858  12.010  0.1817 -0.5688 -0.4938
11988TIP3    H157379   5.005   3.800  12.050 -1.8680  1.8035 -0.1223
11988TIP3    H257380   5.031   3.883  11.926  1.2674 -0.1456 -0.8899
11989TIP3   OH257381   1.963   2.443   3.979  0.1267 -0.2621 -0.1270
11989TIP3    H157382   1.881   2.395   3.976  0.3555 -0.6157 -2.2808
11989TIP3    H257383   1.957   2.505   3.906  1.4472  0.2334  0.1595
11990TIP3   OH257384   2.278   3.787  16.671 -0.3197  0.0379 -0.1982
11990TIP3    H157385   2.356   3.786  16.726  0.9473 -0.9276 -1.9128
11990TIP3    H257386   2.260   3.879  16.655  1.4481  0.2657 -1.0512
11991TIP3   OH257387   5.245   5.475  11.622  0.0332  0.3648 -0.1433
11991TIP3    H157388   5.301   5.524  11.683 -1.7534  0.8777  1.1655
11991TIP3    H257389   5.173   5.443  11.676 -0.3931 -1.2293 -1.5555
11992TIP3   OH257390   5.313   3.495   1.704  0.1237  0.5190  0.5902
11992TIP3    H157391   5.345   3.410   1.674 -1.1236  0.1289  0.3028
11992TIP3    H257392   5.377   3.558   1.672 -0.8529  0.0745 -2.5246
11993TIP3   OH257393   5.682   0.230   4.218  0.2973 -0.5151  0.0343
11993TIP3    H157394   5.763   0.260   4.175  0.6414  1.6908  1.9958
11993TIP3    H257395   5.709   0.151   4.266  2.1906  1.7126  2.9730
11994TIP3   OH257396   0.024   5.283   0.679 -0.0938  0.1190  0.3514
11994TIP3    H157397   0.092   5.264   0.614  0.1979  1.2819  0.2916
11994TIP3    H257398  -0.041   5.214   0.667  0.6815 -0.5526 -0.1373
11995TIP3   OH257399   0.875   1.371  16.177  0.2518 -0.0540  0.0836
11995TIP3    H157400   0.894   1.394  16.268 -1.1635  0.5571  0.2467
11995TIP3    H257401   0.943   1.416  16.127 -0.4656  1.8058  0.6703
11996TIP3   OH257402   1.267   1.367  11.501  0.6458 -0.1869  0.4151
11996TIP3    H157403   1.342   1.426  11.499  1.3588 -1.0939 -0.5162
11996TIP3    H257404   1.287   1.300  11.436 -0.3748 -1.1786  1.0816
11997TIP3   OH257405   4.958   6.415   0.171 -0.0715 -0.0451  0.0559
11997TIP3    H157406   5.049   6.395   0.189 -0.1611 -0.5749 -0.0560
11997TIP3    H257407   4.955   6.510   0.164  0.3403  0.0252  0.7550
11998TIP3   OH257408   1.934   4.707  12.138  0.1338  0.1474  0.0538
11998TIP3    H157409   1.999   4.666  12.081  0.4024 -1.7163  1.5827
11998TIP3    H257410   1.983   4.774  12.185  0.2881  0.5962 -0.7338
11999TIP3   OH257411   1.233   5.889  13.636  0.0850 -0.3609 -0.2747
11999TIP3    H157412   1.140   5.868  13.647 -0.1448  0.1035 -1.2225
11999TIP3    H257413   1.259   5.926  13.720 -1.3447  2.1665 -0.8380
12000TIP3   OH257414   6.450   3.049   3.653  0.1376  0.2912  0.1781
12000TIP3    H157415   6.395   3.085   3.584  1.5106  0.9632 -0.6022
12000TIP3    H257416   6.445   3.112   3.725 -2.1809 -0.9457  1.2065
12001TIP3   OH257417   3.205   5.576   2.738  0.8108 -0.2680 -0.6618
12001TIP3    H157418   3.129   5.633   2.753 -0.0257 -0.7377 -2.8360
12001TIP3    H257419   3.167   5.489   2.722  1.8071 -0.5600 -1.5212
12002TIP3   OH257420   4.322   6.057   1.911 -0.5060  0.1260  0.2919
12002TIP3    H157421   4.299   6.030   2.001  0.5835 -1.9864  0.0004
12002TIP3    H257422   4.379   6.133   1.923 -0.2769 -0.1929  1.4161
12003TIP3   OH257423   0.335   0.445  17.307 -0.1407  0.3661  0.2242
12003TIP3    H157424   0.344   0.498  17.227 -3.3297 -0.8612 -1.1221
12003TIP3    H257425   0.275   0.496  17.362 -1.0242 -0.5267  0.1129
12004TIP3   OH257426   2.584   2.413   0.517 -0.0106 -0.3042 -0.0096
12004TIP3    H157427   2.656   2.429   0.455  0.6084 -0.4679  0.6588
12004TIP3    H257428   2.562   2.320   0.503 -0.3396 -0.1640 -0.4617
12005TIP3   OH257429   3.469   3.807  11.087 -0.0849  0.7015 -0.5005
12005TIP3    H157430   3.392   3.756  11.062  0.3356 -0.4758  0.5213
12005TIP3    H257431   3.535   3.786  11.021  0.0159  0.0860 -0.2081
12006TIP3   OH257432   3.640   6.682  13.858 -0.3228 -0.4383  0.0723
12006TIP3    H157433   3.709   6.707  13.920 -1.7519  0.5339  1.3623
12006TIP3    H257434   3.673   6.710  13.773 -0.3627  2.9972  1.0197
12007TIP3   OH257435   3.089   3.187  13.105 -0.5265  0.7190  0.2487
12007TIP3    H157436   3.068   3.258  13.165 -0.3629  0.1708  0.9697
12007TIP3    H257437   3.184   3.191  13.096 -0.1483 -1.0842  2.4925
12008TIP3   OH257438   6.660   1.674  17.374 -0.2046  0.0534  0.2442
12008TIP3    H157439   6.577   1.681  17.420  0.7768 -0.4710  2.2086
12008TIP3    H257440   6.699   1.593  17.408  1.1420  0.3321 -0.5654
12009TIP3   OH257441   1.411   5.743   5.686  0.2644  0.3110 -0.4027
12009TIP3    H157442   1.444   5.657   5.710  0.0413  0.0590 -0.9641
12009TIP3    H257443   1.383   5.783   5.768 -0.2952 -0.4433 -0.2135
12010TIP3   OH257444   4.278   5.814  13.987 -0.8857  0.4529 -0.3486
12010TIP3    H157445   4.265   5.719  13.990 -0.2629  0.3441 -0.8707
12010TIP3    H257446   4.231   5.847  14.064 -0.1908 -0.3839  0.4541
12011TIP3   OH257447   0.807   2.325   6.568  0.3500 -0.2152  0.0635
12011TIP3    H157448   0.851   2.242   6.581  1.3133  0.0206 -1.5214
12011TIP3    H257449   0.877   2.388   6.550 -0.4056  0.8278  0.6002
12012TIP3   OH257450   5.795   4.378   4.721 -0.4825  0.3726  0.1383
12012TIP3    H157451   5.818   4.358   4.812 -0.6156  0.8146  0.2710
12012TIP3    H257452   5.785   4.292   4.679 -1.5450  0.1408  0.8237
12013TIP3   OH257453   1.048   2.544   6.052 -0.4368 -0.2828 -0.6648
12013TIP3    H157454   1.051   2.495   6.135  0.0214 -2.2798 -1.8096
12013TIP3    H257455   1.076   2.633   6.076  0.6033 -1.0429  1.1534
12014TIP3   OH257456   3.630   6.509   4.394 -0.2869  0.4686 -0.1648
12014TIP3    H157457   3.626   6.481   4.485  1.1963 -1.6778 -0.6874
12014TIP3    H257458   3.548   6.478   4.356 -0.3231  0.1902  0.1394
12015TIP3   OH257459   6.559   4.830  10.799 -0.0361  0.8028 -0.9617
12015TIP3    H157460   6.528   4.798  10.714  0.1273  0.9094 -1.0613
12015TIP3    H257461   6.484   4.818  10.857  0.8663 -2.5423 -0.2432
12016TIP3   OH257462   2.888   2.862   0.812  0.4994 -0.1140 -0.2894
12016TIP3    H157463   2.829   2.903   0.875  0.4625  0.0974 -0.4601
12016TIP3    H257464   2.846   2.779   0.792 -0.7781  0.8552 -1.8937
12017TIP3   OH257465   0.675   4.262  13.150  0.2971  0.2229 -0.2718
12017TIP3    H157466   0.642   4.232  13.065  1.0592  0.3906 -0.6376
12017TIP3    H257467   0.735   4.192  13.178  0.7401  0.5857 -0.3028
12018TIP3   OH257468   6.604   3.276  14.351  0.1431 -0.6846  0.4135
12018TIP3    H157469   6.596   3.341  14.421 -1.1215 -0.1595 -0.1900
12018TIP3    H257470   6.533   3.214  14.368 -0.9180  0.0759 -1.0104
12019TIP3   OH257471   2.068   6.265   5.787 -0.7155  0.5866 -0.1098
12019TIP3    H157472   2.096   6.315   5.863 -2.0611  2.2209 -0.6435
12019TIP3    H257473   2.150   6.239   5.744  0.0421  0.2519  1.4591
12020TIP3   OH257474   2.354   4.567  15.062 -0.1042 -0.8270 -0.5959
12020TIP3    H157475   2.398   4.566  14.977 -1.5528  0.9749 -1.4294
12020TIP3    H257476   2.426   4.567  15.126  1.0468 -0.3351 -1.8393
12021TIP3   OH257477   5.304   6.701   1.563  0.2391  0.1222 -0.3021
12021TIP3    H157478   5.233   6.638   1.574 -0.0051  0.8374  3.3449
12021TIP3    H257479   5.260   6.786   1.564  0.9631  0.4971  0.0965
12022TIP3   OH257480   2.730   6.633   1.735 -0.2501 -0.0839  0.5733
12022TIP3    H157481   2.675   6.705   1.766 -2.4187 -1.2287 -0.4228
12022TIP3    H257482   2.776   6.603   1.813 -1.1383  0.8197  1.4802
12023TIP3   OH257483   1.525   2.711  17.162  0.1783 -0.3996 -0.2458
12023TIP3    H157484   1.601   2.672  17.120  1.4400  0.8347  0.7729
12023TIP3    H257485   1.479   2.757  17.091  1.8410  1.0051 -0.4857
12024TIP3   OH257486   1.578   0.785  16.795  0.2995 -0.3465  0.4680
12024TIP3    H157487   1.534   0.705  16.823  0.0115 -0.5749 -0.6017
12024TIP3    H257488   1.515   0.855  16.814 -0.9211 -0.7525 -1.8030
12025TIP3   OH257489   1.342   6.057   3.082 -0.3065 -0.1678 -0.2975
12025TIP3    H157490   1.317   6.123   3.147 -1.5594 -0.4502 -0.4613
12025TIP3    H257491   1.339   6.102   2.998  1.8506  0.3407 -0.1495
12026TIP3   OH257492   6.621   0.624  16.530 -0.5635  0.2981  0.0009
12026TIP3    H157493   6.574   0.656  16.607  0.4749  1.8275  0.0417
12026TIP3    H257494   6.559   0.631  16.458 -0.9630  0.5984  0.3740
12027TIP3   OH257495   4.382   4.837   3.619  0.3420  0.8673 -0.1820
12027TIP3    H157496   4.439   4.852   3.544 -0.1046 -0.0848 -0.7270
12027TIP3    H257497   4.298   4.874   3.593  0.2440  0.7301 -0.0624
12028TIP3   OH257498   4.275   2.767   5.501  0.1189 -0.4738  0.0858
12028TIP3    H157499   4.230   2.847   5.529  0.2624  0.1426 -1.3616
12028TIP3    H257500   4.276   2.712   5.579  0.5186  1.1479  1.2709
12029TIP3   OH257501   0.725   0.452   1.872 -0.2201 -0.3990 -0.4197
12029TIP3    H157502   0.765   0.451   1.785  0.3314  0.8983 -0.1932
12029TIP3    H257503   0.681   0.537   1.877 -1.8469 -1.2220 -0.1260
12030TIP3   OH257504   6.561   1.639   5.675 -0.0442  0.7647 -0.2828
12030TIP3    H157505   6.552   1.711   5.738  1.4170  0.3987  0.3826
12030TIP3    H257506   6.593   1.682   5.595  0.1922  0.9430 -0.0946
12031TIP3   OH257507   2.091   5.078   5.843  0.2019  0.2806  0.0810
12031TIP3    H157508   2.144   5.041   5.913 -1.3219 -0.2194  1.0340
12031TIP3    H257509   2.137   5.156   5.815  2.0601 -0.7958 -0.0061
12032TIP3   OH257510   4.020   1.957   4.638  0.3696 -0.5369 -0.4590
12032TIP3    H157511   4.067   1.977   4.556  0.4427  1.7916  0.0731
12032TIP3    H257512   3.932   1.934   4.610  0.8295 -1.3648 -1.2761
12033TIP3   OH257513   6.252   1.035   1.893  0.3877  0.0253 -0.8678
12033TIP3    H157514   6.227   1.127   1.898 -0.6961 -0.2976 -0.0280
12033TIP3    H257515   6.341   1.032   1.928  0.3267  0.7092 -0.6458
12034TIP3   OH257516   4.637   5.948  16.736 -0.1133 -0.6603  0.6226
12034TIP3    H157517   4.602   6.036  16.746 -1.1102 -1.1117  1.2474
12034TIP3    H257518   4.650   5.916  16.825  2.3450 -0.3657  0.4418
12035TIP3   OH257519   5.980   5.732  16.848  0.7234 -0.4769  0.0551
12035TIP3    H157520   6.034   5.737  16.927  1.4630 -0.5670 -0.4388
12035TIP3    H257521   5.940   5.818  16.840 -0.7212 -0.9787  1.4742
12036TIP3   OH257522   3.201   2.785   4.160 -0.5660 -0.3932  0.6184
12036TIP3    H157523   3.173   2.696   4.140 -0.7646 -0.1151 -0.3976
12036TIP3    H257524   3.216   2.785   4.254  0.0519 -1.6691  0.5349
12037TIP3   OH257525   3.349   0.581   2.849  0.2085 -0.5005 -0.7005
12037TIP3    H157526   3.444   0.572   2.835 -0.0758 -2.1300 -2.0000
12037TIP3    H257527   3.339   0.666   2.890  2.3704 -0.9284  0.9130
12038TIP3   OH257528   6.349   0.645   6.397  0.6103 -0.1928  0.4828
12038TIP3    H157529   6.356   0.642   6.493 -0.1133  0.8210  0.5942
12038TIP3    H257530   6.262   0.609   6.379  0.2415  0.7445  0.3189
12039TIP3   OH257531   6.701   2.672   4.809 -0.1706  0.4040  0.1682
12039TIP3    H157532   6.642   2.686   4.735 -0.2634 -1.1172 -0.0873
12039TIP3    H257533   6.788   2.668   4.769 -0.3341 -1.7481 -0.1087
12040TIP3   OH257534   5.174   4.185   6.607 -0.1162 -0.0431  0.3385
12040TIP3    H157535   5.080   4.200   6.618 -0.2140 -1.4541  1.7310
12040TIP3    H257536   5.216   4.259   6.652 -0.5634  0.1321  0.4716
12041TIP3   OH257537   3.137   2.715  13.940  0.0190 -0.0536 -0.4336
12041TIP3    H157538   3.054   2.746  13.903 -0.4885 -0.3342  0.4298
12041TIP3    H257539   3.153   2.632  13.895 -1.6050 -1.3931  1.2567
12042TIP3   OH257540   3.794   1.673   4.667 -0.0939 -0.2635  0.2593
12042TIP3    H157541   3.712   1.629   4.689  0.5860 -0.6261  2.2867
12042TIP3    H257542   3.830   1.699   4.752  0.0392  3.3756 -0.7463
12043TIP3   OH257543   4.483   5.359  11.097 -0.4622  0.0904 -0.4234
12043TIP3    H157544   4.447   5.272  11.080 -1.5156  0.0892  1.4881
12043TIP3    H257545   4.575   5.344  11.115 -0.7722 -0.7537  0.5500
12044TIP3   OH257546   1.423   0.887   5.996  0.0510 -0.4645 -0.1943
12044TIP3    H157547   1.415   0.972   5.953  0.6456 -0.0476  0.4964
12044TIP3    H257548   1.492   0.899   6.061 -0.5874 -1.1746  0.6466
12045TIP3   OH257549   2.215   3.798   2.124  0.1316  0.0828 -0.2500
12045TIP3    H157550   2.260   3.751   2.054 -1.1294  0.5016 -1.3775
12045TIP3    H257551   2.244   3.888   2.115  3.1379 -0.4541  2.3827
12046TIP3   OH257552   6.349   1.286   4.811  0.4955  0.6213 -0.2185
12046TIP3    H157553   6.425   1.289   4.869  0.3708  1.2831 -0.0835
12046TIP3    H257554   6.274   1.298   4.869  0.2263 -0.7764 -0.2519
12047TIP3   OH257555   3.198   2.154  12.599  0.1679  0.0273  0.1630
12047TIP3    H157556   3.209   2.223  12.533 -0.7080 -0.9248 -1.0190
12047TIP3    H257557   3.288   2.133  12.625  0.4640  3.1539  2.3101
12048TIP3   OH257558   5.809   0.685  17.208  0.1307  0.0645 -0.3182
12048TIP3    H157559   5.816   0.613  17.146 -2.8712 -1.1906  0.6308
12048TIP3    H257560   5.851   0.759  17.164  1.6481 -1.7608 -2.0936
12049TIP3   OH257561   2.824   4.097   5.140 -0.2454 -0.0997  0.2569
12049TIP3    H157562   2.813   4.002   5.138 -1.5764  0.0492 -1.0286
12049TIP3    H257563   2.868   4.117   5.057  1.1293  0.3058  1.0589
12050TIP3   OH257564   3.234   0.242   4.316  0.1245  0.2724  0.1035
12050TIP3    H157565   3.289   0.173   4.353 -1.8802 -0.4582  1.9018
12050TIP3    H257566   3.167   0.196   4.266  0.0667  1.0580 -0.5765
12051TIP3   OH257567   5.709   3.395   0.410  0.1606  0.0849 -0.0823
12051TIP3    H157568   5.776   3.463   0.411 -0.4628  0.7100 -0.3267
12051TIP3    H257569   5.636   3.432   0.460  0.7383 -1.3775  1.9653
12052TIP3   OH257570   0.813   0.903   4.750  0.3202  0.4909 -0.3151
12052TIP3    H157571   0.746   0.915   4.683  0.8293 -0.9013 -1.0887
12052TIP3    H257572   0.887   0.863   4.705  1.3065  1.0361  0.7423
12053TIP3   OH257573   2.784   5.537  15.531  0.8349 -0.0930 -0.2363
12053TIP3    H157574   2.780   5.549  15.436 -1.8978  1.6477 -0.0337
12053TIP3    H257575   2.828   5.616  15.564  0.9618 -0.2524 -0.0225
12054TIP3   OH257576   1.420   5.386  17.016  0.0988 -0.0221 -0.3652
12054TIP3    H157577   1.428   5.471  16.974  2.6022  0.4984  0.9676
12054TIP3    H257578   1.385   5.405  17.103  2.0886 -0.0771  0.5072
12055TIP3   OH257579   1.138   4.524  11.906 -0.3336  0.1855  0.1384
12055TIP3    H157580   1.157   4.592  11.970 -2.9729  1.3421 -0.1999
12055TIP3    H257581   1.109   4.570  11.828 -0.9525 -1.2837 -0.5519
12056TIP3   OH257582   2.501   3.055  17.078  0.2774 -0.5134 -0.8896
12056TIP3    H157583   2.578   3.018  17.121 -0.8646 -0.9169  0.9394
12056TIP3    H257584   2.488   3.139  17.122 -0.1691 -0.3281 -1.3683
12057TIP3   OH257585   4.801   3.691   5.466  0.5640  0.0400 -0.0975
12057TIP3    H157586   4.807   3.778   5.428  0.9705 -0.3484 -0.9608
12057TIP3    H257587   4.723   3.652   5.425 -0.1222  0.2795  0.9243
12058TIP3   OH257588   5.741   2.068  13.725 -0.5380 -0.8146  0.5682
12058TIP3    H157589   5.757   2.142  13.667  2.5539 -0.8145  1.2636
12058TIP3    H257590   5.793   1.996  13.687  0.3718 -1.2248  2.4527
12059TIP3   OH257591   6.443   1.039   3.272 -0.0352 -0.1663 -0.3265
12059TIP3    H157592   6.400   1.116   3.308  1.2507  0.6341 -0.4439
12059TIP3    H257593   6.466   0.986   3.348 -0.1650 -0.0201 -0.1853
12060TIP3   OH257594   2.166   4.580  13.601 -0.0073 -0.0429  0.2115
12060TIP3    H157595   2.131   4.515  13.662  1.6855 -1.1192  0.1033
12060TIP3    H257596   2.092   4.600  13.543 -0.8477 -1.1393  0.8554
12061TIP3   OH257597   5.266   2.827   3.958 -0.5940  0.2580 -0.3607
12061TIP3    H157598   5.178   2.865   3.956 -0.9455 -0.5440 -0.3000
12061TIP3    H257599   5.278   2.800   4.048 -0.2372  0.4548 -0.3472
12062TIP3   OH257600   4.697   1.314  15.619 -0.3454  0.1567  0.5296
12062TIP3    H157601   4.788   1.296  15.645 -0.9847 -2.5776  1.1739
12062TIP3    H257602   4.695   1.298  15.525 -0.2347 -0.1841  0.5832
12063TIP3   OH257603   6.163   2.649   4.546  0.0904  0.5575  0.2836
12063TIP3    H157604   6.080   2.675   4.506  0.2936  1.7371  0.5949
12063TIP3    H257605   6.191   2.574   4.495 -2.0112 -1.0082  1.2468
12064TIP3   OH257606   1.155   6.266   0.170 -0.2258 -0.7555  0.2156
12064TIP3    H157607   1.185   6.342   0.120  1.1609 -1.3674  0.0706
12064TIP3    H257608   1.090   6.224   0.113 -1.9935  0.9933  0.8400
12065TIP3   OH257609   2.552   2.171   4.712  0.1616 -0.0286 -0.4242
12065TIP3    H157610   2.634   2.219   4.714 -0.3334  0.8303  1.9257
12065TIP3    H257611   2.578   2.079   4.726  0.7328  0.1909 -0.0230
12066TIP3   OH257612   5.001   1.145   4.919  0.3302 -0.5306  0.6180
12066TIP3    H157613   5.074   1.184   4.871  0.2909  1.2127  1.9011
12066TIP3    H257614   5.002   1.187   5.004 -2.8292  0.3798  0.3351
12067TIP3   OH257615   3.264   5.613  12.524  0.0316 -0.2321 -0.1390
12067TIP3    H157616   3.230   5.523  12.515 -0.3614 -0.0045 -1.0553
12067TIP3    H257617   3.330   5.620  12.455 -0.6235  0.4830 -0.7094
12068TIP3   OH257618   4.515   5.798  13.826  0.2904 -0.0918 -0.1678
12068TIP3    H157619   4.445   5.759  13.878 -0.9384 -0.7118 -2.1452
12068TIP3    H257620   4.481   5.884  13.801  1.4895  0.8280  1.2057
12069TIP3   OH257621   2.940   2.087  11.487  0.4707  0.2428  0.3008
12069TIP3    H157622   2.903   2.081  11.399  0.7456  0.6505  0.1537
12069TIP3    H257623   2.981   2.002  11.501  0.8414  0.3433 -0.1543
12070TIP3   OH257624   3.291   6.429  14.635  0.5834  0.3331  0.4474
12070TIP3    H157625   3.243   6.489  14.692  1.6159  2.1860 -0.5317
12070TIP3    H257626   3.374   6.414  14.681 -0.1028 -1.3184  1.2256
12071TIP3   OH257627   1.863   1.543   1.677 -0.3255 -0.0673 -0.1011
12071TIP3    H157628   1.807   1.549   1.755  0.6529  1.8592  0.5115
12071TIP3    H257629   1.804   1.563   1.604 -1.1706 -1.5203  0.1590
12072TIP3   OH257630   1.766   0.020   5.966  0.3839  0.0836 -0.7329
12072TIP3    H157631   1.843   0.072   5.989  2.3154 -2.0756 -1.8743
12072TIP3    H257632   1.693   0.082   5.971  2.1809  2.2946  0.1789
12073TIP3   OH257633   2.094   5.996  12.317 -0.5102 -0.6409  0.1141
12073TIP3    H157634   2.056   6.084  12.306 -0.4579 -0.3962  1.6303
12073TIP3    H257635   2.027   5.949  12.367 -1.0551 -1.8652 -1.6753
12074TIP3   OH257636   2.805   5.027   0.412  0.4543 -0.1993 -0.2195
12074TIP3    H157637   2.759   5.026   0.495  0.6373 -0.7403 -0.1216
12074TIP3    H257638   2.736   5.040   0.346 -0.1578 -2.8509 -0.2436
12075TIP3   OH257639   4.043   0.757  10.812 -0.2245  0.0260  0.3929
12075TIP3    H157640   3.959   0.802  10.823 -0.7354 -0.8668  0.2154
12075TIP3    H257641   4.102   0.825  10.779 -0.5596  0.9552  1.6043
12076TIP3   OH257642   1.878   3.330   1.293  0.6894  0.2922  0.4028
12076TIP3    H157643   1.904   3.317   1.384  1.8610  1.1660  0.2239
12076TIP3    H257644   1.855   3.423   1.288  1.3217  0.4214 -0.3377
12077TIP3   OH257645   5.053   1.775   2.184  0.1585  0.0063  0.6439
12077TIP3    H157646   5.147   1.777   2.169  0.0939  0.3991  0.2842
12077TIP3    H257647   5.041   1.822   2.266 -0.0110  2.8444 -0.8694
12078TIP3   OH257648   2.340   6.268   2.357 -0.1020  0.2239 -1.0647
12078TIP3    H157649   2.324   6.354   2.318 -0.6783  1.4468  1.6005
12078TIP3    H257650   2.263   6.217   2.335 -1.2019  1.4315 -0.1636
12079TIP3   OH257651   3.698   3.675  14.183 -0.1868  0.2244  0.6490
12079TIP3    H157652   3.756   3.618  14.132 -0.1678  0.3148  0.5710
12079TIP3    H257653   3.712   3.762  14.148  0.4330  0.4150  1.3619
12080TIP3   OH257654   3.554   1.175   0.608 -0.5642 -0.0517 -0.4354
12080TIP3    H157655   3.636   1.191   0.561  2.1734  0.2597  3.9034
12080TIP3    H257656   3.499   1.251   0.587  1.1525  0.9337 -1.6636
12081TIP3   OH257657   1.210   3.951  13.178  0.4069 -0.4573  0.1275
12081TIP3    H157658   1.237   4.016  13.113  0.0885 -2.3247 -1.9563
12081TIP3    H257659   1.213   3.867  13.132 -0.1329 -1.8363  2.4476
12082TIP3   OH257660   6.475   3.341  13.175  0.1935 -0.9046  0.0008
12082TIP3    H157661   6.550   3.378  13.223 -0.4493 -0.7905  0.9545
12082TIP3    H257662   6.504   3.253  13.151  1.1076 -0.4129 -0.7945
12083TIP3   OH257663   3.638   2.344  16.184  0.0060  0.2347  0.0574
12083TIP3    H157664   3.581   2.372  16.255  1.2856 -1.7641  2.0174
12083TIP3    H257665   3.713   2.403  16.188  1.3776 -1.4739  2.3342
12084TIP3   OH257666   1.334   2.344   5.337 -0.8269 -0.2969  0.5029
12084TIP3    H157667   1.402   2.337   5.271 -1.0222 -1.7562  0.4352
12084TIP3    H257668   1.355   2.425   5.384  0.2798 -0.1259 -0.2459
12085TIP3   OH257669   5.034   6.391   2.984  0.0884 -0.0309  0.3921
12085TIP3    H157670   5.054   6.305   3.021  1.3911  1.3103  3.0738
12085TIP3    H257671   5.116   6.421   2.947  0.3486  1.0216  1.7186
12086TIP3   OH257672   1.461   6.291   5.596 -0.5081 -0.4853 -0.3346
12086TIP3    H157673   1.538   6.241   5.622  0.6828  0.7923 -1.2611
12086TIP3    H257674   1.393   6.224   5.583  0.3065 -1.6044  0.8831
12087TIP3   OH257675   6.586   2.762   2.312  0.1762 -0.8168 -0.6410
12087TIP3    H157676   6.563   2.733   2.401  0.2675 -0.8762 -0.6360
12087TIP3    H257677   6.644   2.694   2.279 -0.1520 -0.9785 -0.8873
12088TIP3   OH257678   4.180   4.191   1.591 -0.1043 -0.5496  0.8217
12088TIP3    H157679   4.238   4.258   1.554  1.1160 -1.0367  1.7636
12088TIP3    H257680   4.185   4.119   1.528  0.1738 -0.5114  0.7973
12089TIP3   OH257681   5.074   2.144   2.023  0.1346 -0.8559 -0.1849
12089TIP3    H157682   5.133   2.203   1.977  0.1847  0.4077  1.3898
12089TIP3    H257683   5.061   2.071   1.963  2.2074 -0.5304 -1.1356
12090TIP3   OH257684   1.931   6.545   2.039 -0.0329  0.1137  0.3804
12090TIP3    H157685   1.841   6.576   2.037 -0.1374 -0.2083 -0.9788
12090TIP3    H257686   1.936   6.480   1.969  0.7293 -1.4465  1.8122
12091TIP3   OH257687   0.114   5.800  14.565 -0.4044 -0.0184  0.0265
12091TIP3    H157688   0.157   5.806  14.650 -0.5548 -2.4904  0.3502
12091TIP3    H257689   0.186   5.791  14.503 -0.3310  0.6532  0.0069
12092TIP3   OH257690   6.069   5.794  15.590  0.1195 -0.6660  0.5166
12092TIP3    H157691   6.010   5.773  15.518 -0.9733  0.4037  1.0459
12092TIP3    H257692   6.052   5.886  15.609 -0.3804 -1.1506  2.7861
12093TIP3   OH257693   0.939   4.654   6.015 -0.2757 -0.2094  0.3369
12093TIP3    H157694   0.912   4.601   6.090 -3.4857 -1.3229 -1.3931
12093TIP3    H257695   0.891   4.736   6.025  0.7721  0.3871  0.4744
12094TIP3   OH257696   1.087   6.445  14.976  0.4319 -0.0298 -0.3571
12094TIP3    H157697   1.097   6.540  14.972  2.4422 -0.1569  0.4302
12094TIP3    H257698   1.081   6.425  15.069 -0.3346 -0.6678 -0.5270
12095TIP3   OH257699   4.112   2.988  13.144 -0.7443  0.2922 -0.3986
12095TIP3    H157700   4.044   3.028  13.198 -0.5881 -0.2178  0.1839
12095TIP3    H257701   4.141   2.912  13.194  1.7119  1.6100  0.3730
12096TIP3   OH257702   5.613   4.131   4.611  0.3518 -0.3888  0.0435
12096TIP3    H157703   5.540   4.118   4.550  0.0750  1.7640 -0.1664
12096TIP3    H257704   5.575   4.118   4.698  0.0733 -0.6442 -0.1125
12097TIP3   OH257705   2.016   2.303   6.096 -0.0951 -0.3114 -0.0320
12097TIP3    H157706   2.090   2.259   6.137 -0.3345 -1.9963 -1.3118
12097TIP3    H257707   1.993   2.373   6.157  1.3500 -0.9312  1.2841
12098TIP3   OH257708   0.341   0.650   1.259 -0.7868  0.7833  0.0625
12098TIP3    H157709   0.436   0.659   1.249 -0.5952 -0.5508  0.5116
12098TIP3    H257710   0.324   0.675   1.349 -0.4405 -1.6988  0.8801
12099TIP3   OH257711   1.633   0.821  15.265 -0.3291 -0.2524 -0.1877
12099TIP3    H157712   1.583   0.790  15.340 -3.3663 -1.0847 -2.3257
12099TIP3    H257713   1.642   0.915  15.278  0.6585 -0.5756  1.8887
12100TIP3   OH257714   5.397   1.994   0.225  0.0547 -0.7376  0.0776
12100TIP3    H157715   5.342   2.058   0.271  2.1736  1.8200 -0.6648
12100TIP3    H257716   5.366   1.997   0.135 -0.9936 -2.1613  0.3665
12101TIP3   OH257717   1.604   0.623   4.181  0.3516 -0.3932  0.4866
12101TIP3    H157718   1.696   0.621   4.156 -0.1715 -0.8107 -1.5781
12101TIP3    H257719   1.585   0.716   4.195  1.2782 -0.3825  1.8727
12102TIP3   OH257720   4.696   2.544   1.391  0.2314 -0.5493  0.3595
12102TIP3    H157721   4.752   2.601   1.444  1.2753 -0.1401 -1.0998
12102TIP3    H257722   4.608   2.579   1.404  0.5413 -0.1001  1.3477
12103TIP3   OH257723   4.578   2.863  14.350  0.2057  0.4612 -0.0423
12103TIP3    H157724   4.657   2.810  14.361 -0.5107 -0.5431  0.4751
12103TIP3    H257725   4.522   2.836  14.423 -0.8955  0.6182 -0.8185
12104TIP3   OH257726   5.620   6.423  12.505 -0.1928  0.4471 -0.3934
12104TIP3    H157727   5.604   6.357  12.438  1.0207 -0.5016  0.2082
12104TIP3    H257728   5.668   6.492  12.460 -0.4528  0.3906 -0.7637
12105TIP3   OH257729   1.163   5.095   6.332  0.0936 -0.0324 -0.0334
12105TIP3    H157730   1.118   5.095   6.248  1.1378 -0.8971 -0.6154
12105TIP3    H257731   1.093   5.106   6.397 -0.9665 -1.3199 -0.9025
12106TIP3   OH257732   3.670   4.924   5.638  0.1695 -0.1671  0.8623
12106TIP3    H157733   3.697   4.843   5.595  1.7866  0.1361  1.2290
12106TIP3    H257734   3.684   4.908   5.731 -0.7690  0.0852  1.0544
12107TIP3   OH257735   5.412   6.557   4.594 -0.0395  0.3621  0.1341
12107TIP3    H157736   5.476   6.628   4.607  0.9106 -0.8128  2.4043
12107TIP3    H257737   5.391   6.528   4.683  0.3934 -2.8872 -0.7168
12108TIP3   OH257738   4.830   0.336   4.049  0.2442 -0.3846  0.4966
12108TIP3    H157739   4.915   0.299   4.024 -0.0485 -0.6672 -0.0998
12108TIP3    H257740   4.793   0.271   4.108  0.7804  0.1146  1.4048
12109TIP3   OH257741   1.893   5.851   3.912 -0.4816 -0.6202 -0.5355
12109TIP3    H157742   1.802   5.823   3.911 -0.4350 -0.8791  0.9259
12109TIP3    H257743   1.895   5.926   3.971  0.1029  0.0162 -1.3238
12110TIP3   OH257744   2.901   1.616   5.325 -0.5017  0.5190  0.2064
12110TIP3    H157745   2.862   1.636   5.239 -0.7514  0.7301  0.3672
12110TIP3    H257746   2.994   1.633   5.313 -0.6739  1.6028  0.2784
12111TIP3   OH257747   4.760   1.214  16.924 -0.1931 -0.0455  0.2180
12111TIP3    H157748   4.720   1.155  16.861  0.9474 -2.5901  1.7376
12111TIP3    H257749   4.838   1.247  16.879  0.2946 -1.3650  0.0626
12112TIP3   OH257750   1.179   2.818   2.071 -0.3684 -0.2443  0.3289
12112TIP3    H157751   1.246   2.781   2.013 -1.0695  0.4777 -1.0119
12112TIP3    H257752   1.137   2.886   2.017 -0.9129  0.6076  1.7817
12113TIP3   OH257753   3.916   5.916   4.769  0.0436  0.5923  0.1195
12113TIP3    H157754   3.873   5.970   4.703 -1.8425 -0.5002  0.3898
12113TIP3    H257755   3.868   5.833   4.767  1.4592 -0.2985  1.2316
12114TIP3   OH257756   2.507   3.212  15.158  0.1361 -0.1183 -0.2417
12114TIP3    H157757   2.420   3.249  15.166 -0.0806  0.0531 -2.7229
12114TIP3    H257758   2.525   3.174  15.244 -2.1156  0.3722  0.5023
12115TIP3   OH257759   3.437   3.053   2.636  0.1175 -0.2583  0.0765
12115TIP3    H157760   3.426   2.981   2.698  0.4432 -0.8536 -0.5404
12115TIP3    H257761   3.498   3.019   2.571 -1.0275 -0.0269 -1.1601
12116TIP3   OH257762   1.339   0.188   1.332  0.3315  0.3267  0.4428
12116TIP3    H157763   1.319   0.141   1.413  0.1457 -2.0414 -0.8670
12116TIP3    H257764   1.253   0.202   1.292  0.5642 -0.9644 -0.5693
12117TIP3   OH257765   6.235   5.988  16.867 -0.0705 -0.9583 -0.0521
12117TIP3    H157766   6.315   5.979  16.919  0.2021  0.3519 -0.2028
12117TIP3    H257767   6.243   5.922  16.798 -0.8001 -3.2884  1.9454
12118TIP3   OH257768   3.703   4.089  16.482  0.2182  0.5414 -0.2194
12118TIP3    H157769   3.778   4.148  16.490  0.9364 -0.4551  0.6576
12118TIP3    H257770   3.727   4.028  16.412  0.4388 -0.0406  0.3439
12119TIP3   OH257771   0.014   2.287  17.026 -0.7533 -0.1724  0.7876
12119TIP3    H157772   0.001   2.213  16.967 -2.3102  1.0866 -0.5495
12119TIP3    H257773   0.082   2.258  17.087 -1.4767 -2.7565  0.4711
12120TIP3   OH257774   3.864   3.811   2.383  0.0078  0.3150  0.6601
12120TIP3    H157775   3.864   3.727   2.339  1.8427  0.2323  0.7276
12120TIP3    H257776   3.836   3.874   2.316  0.5888 -0.0995  0.0200
12121TIP3   OH257777   0.468   5.668   4.851 -0.3888 -0.3571 -0.2096
12121TIP3    H157778   0.518   5.746   4.877 -0.9802 -0.3087  0.8228
12121TIP3    H257779   0.534   5.600   4.840  0.2100  0.4160 -1.7176
12122TIP3   OH257780   5.448   5.531   4.728  0.0179  0.4917  0.3144
12122TIP3    H157781   5.427   5.509   4.819  0.4865  0.6257  0.4558
12122TIP3    H257782   5.427   5.625   4.721  0.6170  0.6431  0.4758
12123TIP3   OH257783   4.844   3.703  14.236  0.0389 -0.3662 -0.0458
12123TIP3    H157784   4.752   3.716  14.259  0.4338  1.9246  0.4261
12123TIP3    H257785   4.883   3.666  14.316 -0.2303 -0.2259  0.1536
12124TIP3   OH257786   1.713   4.463  13.620 -0.1435 -0.1036  0.2211
12124TIP3    H157787   1.745   4.431  13.536 -0.7710 -0.2010  0.0157
12124TIP3    H257788   1.652   4.533  13.598 -0.0389  0.1122  0.6086
12125TIP3   OH257789   1.737   6.400  12.846 -0.4317  0.1641 -0.9527
12125TIP3    H157790   1.696   6.361  12.768 -1.2781 -0.5132 -0.1939
12125TIP3    H257791   1.792   6.330  12.882 -0.2240  0.3990 -0.8109
12126TIP3   OH257792   1.031   3.243  15.323  0.1776 -0.3291 -0.2708
12126TIP3    H157793   1.077   3.268  15.243 -2.0593  1.2933 -1.1488
12126TIP3    H257794   1.089   3.270  15.394 -0.1336  3.5228 -1.2724
12127TIP3   OH257795   2.269   5.831   4.826  0.2325 -0.3418 -0.3248
12127TIP3    H157796   2.255   5.796   4.738  1.6198  0.8545 -1.0519
12127TIP3    H257797   2.362   5.816   4.844 -0.3196 -1.8899  1.5680
12128TIP3   OH257798   1.015   3.892  13.771  0.0327  0.6979 -0.0366
12128TIP3    H157799   1.089   3.833  13.781 -1.3765 -1.1089  0.1466
12128TIP3    H257800   0.941   3.836  13.747 -0.8399  2.6795 -2.5039
12129TIP3   OH257801   0.843   2.532  14.869 -0.1089 -0.1160 -0.2538
12129TIP3    H157802   0.825   2.606  14.811 -0.8932  1.0547  1.4040
12129TIP3    H257803   0.837   2.455  14.812 -0.0359  1.0102 -1.8729
12130TIP3   OH257804   0.072   5.528   5.212  0.0408 -0.1645  0.0453
12130TIP3    H157805   0.151   5.546   5.262  0.5713 -0.8282 -0.5261
12130TIP3    H257806   0.096   5.550   5.122 -0.3042 -0.7175 -0.1845
12131TIP3   OH257807   4.662   1.679   4.390  0.5109  0.0576  0.1106
12131TIP3    H157808   4.693   1.622   4.460  1.8801  1.0606  0.3606
12131TIP3    H257809   4.612   1.621   4.332 -0.9411 -0.7505  2.0338
12132TIP3   OH257810   6.319   4.073   3.549  0.5521  0.2230 -0.1993
12132TIP3    H157811   6.354   4.162   3.553  0.2514  0.3451 -0.2594
12132TIP3    H257812   6.254   4.070   3.619 -0.3153  0.4401 -0.9714
12133TIP3   OH257813   1.283   1.406   6.464 -0.1359  0.0827  0.2608
12133TIP3    H157814   1.227   1.362   6.528 -1.3573  0.3768 -0.5673
12133TIP3    H257815   1.271   1.499   6.482  1.7342  0.1361  1.4199
12134TIP3   OH257816   5.270   3.792  12.992 -0.0240  0.1232 -0.9185
12134TIP3    H157817   5.241   3.776  13.082 -0.8729  0.2449 -1.1583
12134TIP3    H257818   5.320   3.714  12.969 -0.9790 -0.5477 -0.8021
12135TIP3   OH257819   2.538   6.179  12.332  0.3064  0.0864  0.0640
12135TIP3    H157820   2.593   6.139  12.265  1.0929 -0.9736  1.2994
12135TIP3    H257821   2.594   6.246  12.372  0.0725  0.2474  0.1239
12136TIP3   OH257822   6.533   4.217  17.145  0.0188 -0.1507  0.6092
12136TIP3    H157823   6.511   4.217  17.238 -0.3182 -0.2097  0.5310
12136TIP3    H257824   6.609   4.276  17.139  1.6429 -2.0621  1.2878
12137TIP3   OH257825   3.373   1.056   3.467 -0.1232 -0.6222 -0.4041
12137TIP3    H157826   3.326   0.976   3.444  0.9036 -0.8060 -2.0046
12137TIP3    H257827   3.370   1.110   3.388  0.6865  0.1740  0.0884
12138TIP3   OH257828   4.036   1.544  15.735  0.9243  0.1454 -0.6768
12138TIP3    H157829   4.122   1.574  15.706  1.1496 -0.9018 -1.1378
12138TIP3    H257830   4.050   1.452  15.758  0.2626  0.3548  0.6977
12139TIP3   OH257831   2.460   4.920   1.058  0.4819 -0.4561  0.0414
12139TIP3    H157832   2.518   4.983   1.016 -0.4082  0.6121  0.3684
12139TIP3    H257833   2.519   4.857   1.100  1.4537  1.1698  1.2600
12140TIP3   OH257834   0.317   4.232   4.249  0.0576  0.5463 -0.8359
12140TIP3    H157835   0.316   4.240   4.344  2.1487 -1.4635 -0.5702
12140TIP3    H257836   0.231   4.195   4.227  0.0913 -0.3268  0.4347
12141TIP3   OH257837   0.629   0.206   2.569  0.1877  0.2894  0.8740
12141TIP3    H157838   0.541   0.221   2.605 -1.0429 -2.2354 -0.7937
12141TIP3    H257839   0.629   0.255   2.486 -0.3311 -1.0550  0.0493
12142TIP3   OH257840   2.677   3.838  13.741 -0.1441 -0.0032 -0.0939
12142TIP3    H157841   2.695   3.928  13.713 -1.2356 -0.0379 -0.9655
12142TIP3    H257842   2.587   3.821  13.712  0.3673 -1.7102 -0.7859
12143TIP3   OH257843   5.918   2.292  14.403 -0.5003 -0.8463  0.7579
12143TIP3    H157844   5.921   2.229  14.331 -2.4343  0.6734 -0.7777
12143TIP3    H257845   5.825   2.299  14.425 -0.2097  0.5752  1.6839
12144TIP3   OH257846   0.186   6.456   0.052 -0.1909 -0.5086 -0.5157
12144TIP3    H157847   0.182   6.429  -0.039  0.7706 -0.5463 -0.5586
12144TIP3    H257848   0.173   6.375   0.102  0.5287 -0.7153 -0.6382
12145TIP3   OH257849   6.733   3.799   1.028 -0.6282  0.1240 -0.2727
12145TIP3    H157850   6.690   3.765   1.106 -2.7933 -1.1752 -1.9340
12145TIP3    H257851   6.713   3.736   0.959  2.7440  0.2108 -1.5742
12146TIP3   OH257852   0.850   6.011  16.186 -0.3027  0.6762 -0.4670
12146TIP3    H157853   0.788   6.041  16.253 -1.5649  0.9486 -1.7012
12146TIP3    H257854   0.927   6.066  16.198 -0.7221  1.0902  0.4047
12147TIP3   OH257855   3.737   2.214   6.231 -0.4269 -0.3642 -0.3113
12147TIP3    H157856   3.754   2.167   6.149 -0.6520 -0.0951 -0.5148
12147TIP3    H257857   3.788   2.167   6.297  0.0181 -0.3787 -0.6650
12148TIP3   OH257858   6.464   1.932   1.243 -0.6279  0.2674 -0.3057
12148TIP3    H157859   6.453   2.024   1.264 -3.0313  0.5874 -2.5400
12148TIP3    H257860   6.486   1.931   1.150 -1.1319 -1.4420 -0.4350
12149TIP3   OH257861   1.204   0.021  13.157 -0.0084  0.3786  0.4508
12149TIP3    H157862   1.165   0.097  13.114  1.4622 -0.6461 -3.0458
12149TIP3    H257863   1.154  -0.054  13.124 -0.4658 -0.3663  2.6476
12150TIP3   OH257864   5.207   3.333   0.224  0.4240 -0.4292 -0.1227
12150TIP3    H157865   5.153   3.304   0.298 -0.6543  0.6025 -0.4842
12150TIP3    H257866   5.291   3.355   0.264  0.5244 -1.8138  0.4859
12151TIP3   OH257867   2.779   1.453   0.864  0.6321  0.3649  0.3765
12151TIP3    H157868   2.800   1.373   0.815 -1.1356  0.8622 -1.2919
12151TIP3    H257869   2.684   1.457   0.864  0.6569  1.7766  1.6445
12152TIP3   OH257870   1.047   1.793  15.021 -0.4376 -0.2108 -0.1529
12152TIP3    H157871   1.031   1.764  15.111 -1.1186  1.1183  0.1827
12152TIP3    H257872   0.960   1.806  14.984 -0.1698  1.2301 -0.3230
12153TIP3   OH257873   2.193   4.967  11.898  0.1228  0.5385 -0.3218
12153TIP3    H157874   2.211   4.955  11.992 -0.3412 -0.6997 -0.3732
12153TIP3    H257875   2.123   5.031  11.895 -0.2690  0.1492  0.2265
12154TIP3   OH257876   5.055   0.038  15.342 -0.0491  0.3758  0.2645
12154TIP3    H157877   5.121   0.097  15.380  0.9804 -0.7945  0.3616
12154TIP3    H257878   5.091  -0.049  15.354 -0.3447 -0.1551 -2.0974
12155TIP3   OH257879   2.553   0.615  15.108 -0.0679 -0.0458  0.5821
12155TIP3    H157880   2.529   0.682  15.044 -0.6494 -2.0475 -1.4241
12155TIP3    H257881   2.648   0.604  15.098 -0.3371 -1.2770 -0.9837
12156TIP3   OH257882   3.665   0.362   4.031  0.1313  0.6052 -0.1042
12156TIP3    H157883   3.732   0.335   4.094  0.1302 -0.0558 -0.3738
12156TIP3    H257884   3.709   0.357   3.946 -0.0479  0.8840 -0.2136
12157TIP3   OH257885   4.899   3.853   3.808  0.0758  0.0349  0.7051
12157TIP3    H157886   4.949   3.784   3.764  0.7467  0.1820  1.2225
12157TIP3    H257887   4.811   3.817   3.816  0.1581 -0.3408  0.0360
12158TIP3   OH257888   1.041   1.402   1.597 -0.6058 -0.2130 -0.0620
12158TIP3    H157889   1.045   1.486   1.643 -0.9806  0.3274 -1.0049
12158TIP3    H257890   1.130   1.389   1.564 -0.3591 -0.5561  0.6922
12159TIP3   OH257891   4.968   4.538   4.129 -0.1663 -0.0642 -0.6519
12159TIP3    H157892   4.949   4.559   4.220 -2.7506 -2.4207 -0.5086
12159TIP3    H257893   5.055   4.498   4.131  0.0703  0.4708  0.6544
12160TIP3   OH257894   2.471   5.862  11.328 -0.2580 -0.2324  0.4946
12160TIP3    H157895   2.520   5.852  11.246 -0.3589 -2.3122  0.6482
12160TIP3    H257896   2.394   5.914  11.303  1.4264  2.2028  0.0430
12161TIP3   OH257897   5.996   2.990   2.938  0.2239  0.0168 -0.0249
12161TIP3    H157898   6.046   2.957   3.013 -1.3481  1.1678  1.6178
12161TIP3    H257899   5.963   3.075   2.966 -2.3285 -0.5117 -1.1184
12162TIP3   OH257900   6.526   2.670   5.303  0.1000  0.4435 -0.8541
12162TIP3    H157901   6.541   2.758   5.268  0.0814  0.1092 -1.7160
12162TIP3    H257902   6.601   2.654   5.361 -0.4664  1.4621  0.2135
12163TIP3   OH257903   6.198   2.028   6.281 -0.1549 -0.3921 -0.1141
12163TIP3    H157904   6.270   2.070   6.235  1.1108 -1.5252  0.7681
12163TIP3    H257905   6.178   2.088   6.353 -0.8678  0.4589 -0.9944
12164TIP3   OH257906   6.509   5.422  13.752 -0.0080 -0.9383  0.2926
12164TIP3    H157907   6.426   5.375  13.752 -1.0176  0.7183 -1.8234
12164TIP3    H257908   6.562   5.377  13.687 -0.6023  0.1311 -0.9788
12165TIP3   OH257909   5.209   1.146  14.957  0.0565 -0.3452 -0.3171
12165TIP3    H157910   5.173   1.087  15.024  1.3742 -0.6045  0.2001
12165TIP3    H257911   5.169   1.231  14.977 -1.8963 -1.0259 -1.0944
12166TIP3   OH257912   0.424   0.366  16.294  0.3293 -0.0197  0.2529
12166TIP3    H157913   0.461   0.298  16.350 -3.1650 -0.8272  1.8631
12166TIP3    H257914   0.448   0.340  16.205  1.6878 -1.6335  1.0395
12167TIP3   OH257915   2.795   3.564   4.472 -0.2345 -0.0870  0.0845
12167TIP3    H157916   2.828   3.622   4.404  0.5306 -2.2751 -1.5194
12167TIP3    H257917   2.704   3.548   4.447 -0.9967  1.6715  1.4914
12168TIP3   OH257918   1.412   6.700   1.950  0.6424  0.4832 -0.2095
12168TIP3    H157919   1.425   6.761   2.023 -0.5382  1.1833 -0.5541
12168TIP3    H257920   1.321   6.712   1.925  1.4356  1.6428 -3.0100
12169TIP3   OH257921   1.983   6.458   3.690 -0.5396  0.3153  0.2349
12169TIP3    H157922   1.907   6.482   3.637  1.7056  1.6314 -2.6448
12169TIP3    H257923   1.999   6.536   3.744  0.5776  1.3907 -1.5356
12170TIP3   OH257924   6.700   0.967   1.913  0.1423  0.1770 -0.5547
12170TIP3    H157925   6.661   0.992   1.829 -4.0103 -0.6307  0.8943
12170TIP3    H257926   6.692   0.872   1.915  1.4313  0.0593  0.3119
12171TIP3   OH257927   6.600   5.684  14.890  0.2881 -0.2067  0.5164
12171TIP3    H157928   6.677   5.651  14.935 -0.0324 -0.9273  0.5496
12171TIP3    H257929   6.628   5.697  14.799  0.9179  1.1884  0.8809
12172TIP3   OH257930   2.572   5.226  14.984  0.0012 -0.3355  0.2658
12172TIP3    H157931   2.523   5.296  14.942 -1.0255 -1.4449 -0.4423
12172TIP3    H257932   2.535   5.219  15.072 -1.1019 -1.1069 -0.2344
12173TIP3   OH257933   4.760   6.534   2.116  0.4935  0.3558 -0.3022
12173TIP3    H157934   4.825   6.481   2.163 -1.1190 -0.0965  1.5538
12173TIP3    H257935   4.738   6.604   2.176  0.1747  1.2480 -1.4251
12174TIP3   OH257936   6.664   1.922  13.351  0.2133  0.3952 -0.0891
12174TIP3    H157937   6.645   1.828  13.344  0.7181  0.2167  0.8282
12174TIP3    H257938   6.600   1.956  13.413  1.4616  0.2056  1.3369
12175TIP3   OH257939   3.513   6.438  11.174 -0.3567 -0.3624 -0.1274
12175TIP3    H157940   3.524   6.494  11.251 -1.3311 -0.2994 -0.0256
12175TIP3    H257941   3.454   6.487  11.117  2.1016  0.6619 -1.9948
12176TIP3   OH257942   2.112   4.902  16.649 -0.1622 -0.7658 -0.3718
12176TIP3    H157943   2.033   4.950  16.674  0.8913  0.2773  1.1819
12176TIP3    H257944   2.087   4.810  16.654 -1.1289 -0.4736  0.7481
12177TIP3   OH257945   2.127   1.454   3.261 -0.4209  0.2636 -0.2379
12177TIP3    H157946   2.091   1.487   3.179 -0.0730  0.0763 -0.4676
12177TIP3    H257947   2.209   1.503   3.273  0.0249 -0.3967 -0.5088
12178TIP3   OH257948   3.402   0.455  12.530  0.3496  0.6213 -0.5451
12178TIP3    H157949   3.467   0.505  12.581  0.6855 -0.9218  0.5927
12178TIP3    H257950   3.337   0.520  12.506  1.4646  1.8922 -0.2902
12179TIP3   OH257951   1.998   1.731   6.127 -0.2224 -0.4807  0.3703
12179TIP3    H157952   1.905   1.755   6.126 -0.9151 -2.7792  1.4359
12179TIP3    H257953   2.017   1.713   6.219  0.4853 -2.6882 -0.1460
12180TIP3   OH257954   0.823   4.841   4.390 -0.1630 -0.0692  0.6116
12180TIP3    H157955   0.796   4.791   4.312  0.1377 -1.9340  1.6467
12180TIP3    H257956   0.802   4.784   4.464 -0.0712  1.4939  1.8950
12181TIP3   OH257957   4.265   5.748  15.351  0.0817  1.0084 -0.2183
12181TIP3    H157958   4.194   5.779  15.295  0.2081  0.5009 -0.6691
12181TIP3    H257959   4.252   5.794  15.434 -1.6931 -0.1978  0.2294
12182TIP3   OH257960   0.008   4.823   2.046 -0.4903 -0.1028  0.4591
12182TIP3    H157961  -0.027   4.901   2.089  2.9434  1.6460  0.4757
12182TIP3    H257962   0.053   4.775   2.116 -1.3155 -1.3437  0.1623
12183TIP3   OH257963   4.016   1.093   6.512 -0.3920  0.3746  0.1076
12183TIP3    H157964   3.999   1.043   6.592 -0.8127  0.1937 -0.0873
12183TIP3    H257965   4.067   1.034   6.457 -0.1254  0.4892  0.2335
12184TIP3   OH257966   1.958   1.709   3.351 -0.0772 -0.1922  0.0482
12184TIP3    H157967   1.876   1.660   3.357 -0.2924 -0.1150 -1.7205
12184TIP3    H257968   1.947   1.764   3.274  1.1705  0.7514  0.5082
12185TIP3   OH257969   3.619   4.061   5.534  0.1335  0.6785  0.0571
12185TIP3    H157970   3.530   4.051   5.502  0.1759  1.6089 -0.3910
12185TIP3    H257971   3.650   3.972   5.550 -0.8737  0.3545  0.2296
12186TIP3   OH257972   4.678   0.668  16.531 -0.3543 -0.7869  0.2313
12186TIP3    H157973   4.739   0.700  16.597 -0.6689 -1.1058  0.6789
12186TIP3    H257974   4.681   0.734  16.461  1.2192 -1.2690 -0.1984
12187TIP3   OH257975   3.938   0.106   5.905  0.1058 -0.3527  0.0946
12187TIP3    H157976   4.024   0.090   5.942  1.0443  1.4403 -1.1804
12187TIP3    H257977   3.878   0.055   5.960  2.0751 -2.6412  0.2606
12188TIP3   OH257978   3.208   4.520   0.385 -0.1074 -0.2093 -0.2851
12188TIP3    H157979   3.150   4.542   0.313 -1.4394  0.7138  1.0082
12188TIP3    H257980   3.173   4.438   0.420  0.6361 -0.7468 -0.7690
12189TIP3   OH257981   5.664   5.774   4.118 -0.2636  0.1071 -0.3573
12189TIP3    H157982   5.675   5.805   4.028  2.7603  1.5469  0.3650
12189TIP3    H257983   5.703   5.686   4.118  0.2348  0.3236 -0.3636
12190TIP3   OH257984   5.419   1.996   1.497  0.0882 -0.0485 -0.5384
12190TIP3    H157985   5.408   2.077   1.547  2.0578  1.7339 -2.7168
12190TIP3    H257986   5.430   1.928   1.563 -1.9731  1.3677  1.3894
12191TIP3   OH257987   0.827   6.747  15.213 -1.0544  0.1445  0.0650
12191TIP3    H157988   0.766   6.707  15.151 -1.9163  0.1817  0.8602
12191TIP3    H257989   0.773   6.771  15.288 -0.3983  1.9242  0.0330
12192TIP3   OH257990   1.769   2.845   5.711  0.1403  0.1923 -0.3965
12192TIP3    H157991   1.718   2.923   5.690 -1.1026 -0.4223  0.2292
12192TIP3    H257992   1.729   2.775   5.660 -0.6814 -0.6010  1.2349
12193TIP3   OH257993   2.651   4.320   1.424  0.7282  0.3816 -0.2785
12193TIP3    H157994   2.672   4.257   1.493 -1.1065 -0.2570 -0.2422
12193TIP3    H257995   2.602   4.389   1.468  1.5248  1.1516 -0.5678
12194TIP3   OH257996   3.084   6.353  10.789  0.2216 -0.1922 -0.4417
12194TIP3    H157997   3.037   6.284  10.835  0.8977 -1.1372 -1.1502
12194TIP3    H257998   3.176   6.338  10.808  0.3308  1.0772  0.1519
12195TIP3   OH257999   3.947   5.381   0.584  0.5595  0.1062 -0.7198
12195TIP3    H158000   3.898   5.455   0.617 -0.0980 -0.7963  0.3777
12195TIP3    H258001   3.989   5.343   0.661  1.5931 -0.1645 -1.3880
12196TIP3   OH258002   4.190   3.421  16.334  0.3381 -0.4879  0.1838
12196TIP3    H158003   4.220   3.476  16.407  0.3568  1.5786 -1.2740
12196TIP3    H258004   4.247   3.447  16.261 -0.4345 -1.6448 -0.8578
12197TIP3   OH258005   2.701   5.545  10.560 -0.1231  0.5177  0.1995
12197TIP3    H158006   2.719   5.638  10.573 -1.0483  0.7866 -0.3791
12197TIP3    H258007   2.636   5.542  10.491  1.1266 -0.6494 -0.9977
12198TIP3   OH258008   4.562   5.123  15.886 -0.0733 -0.0536  0.0514
12198TIP3    H158009   4.533   5.181  15.957  1.2773  0.5425  0.1500
12198TIP3    H258010   4.601   5.182  15.821 -0.0268 -0.7219 -0.5319
12199TIP3   OH258011   3.371   5.969  17.388 -0.7042  0.0551 -0.5534
12199TIP3    H158012   3.462   5.972  17.418 -1.1553 -1.9349  1.2918
12199TIP3    H258013   3.373   5.907  17.314 -0.6066 -0.3246 -0.2386
12200TIP3   OH258014   5.144   5.506   2.657 -0.2802  0.7246  0.6757
12200TIP3    H158015   5.049   5.495   2.664 -0.3835  0.0912 -1.2167
12200TIP3    H258016   5.179   5.417   2.656  0.2173  0.9142  0.1949
12201TIP3   OH258017   2.423   3.786  12.828 -0.8772  0.1722 -0.3617
12201TIP3    H158018   2.508   3.742  12.831 -0.8375  0.1531 -1.4894
12201TIP3    H258019   2.439   3.871  12.868 -0.2680  0.2623 -0.7874
12202TIP3   OH258020   3.210   4.419   2.231 -0.4951 -0.1800  0.4033
12202TIP3    H158021   3.143   4.426   2.163 -0.9881  1.5808  1.0238
12202TIP3    H258022   3.162   4.395   2.310  0.0724 -2.1843  0.1898
12203TIP3   OH258023   6.340   1.888   0.788  0.0338  0.3648  0.2805
12203TIP3    H158024   6.345   1.937   0.870  0.5190  1.8609 -0.5919
12203TIP3    H258025   6.333   1.956   0.721  0.4106 -0.7949 -0.9671
12204TIP3   OH258026   3.218   4.122  11.445  0.0683  0.0518 -0.1962
12204TIP3    H158027   3.305   4.163  11.450  0.3658 -0.6260  0.7163
12204TIP3    H258028   3.236   4.031  11.420 -0.3110 -0.2564  0.6075
12205TIP3   OH258029   4.887   3.994  16.566  0.1785  0.0896 -0.2259
12205TIP3    H158030   4.960   4.034  16.520 -1.0973  1.1493 -1.4215
12205TIP3    H258031   4.890   3.902  16.540  1.2543  0.0371  0.0220
12206TIP3   OH258032   6.687   4.531   2.994 -0.2631  0.0752  0.0031
12206TIP3    H158033   6.596   4.506   3.012 -0.9400  1.1476 -1.6960
12206TIP3    H258034   6.725   4.546   3.081 -2.1215  0.9675  0.7203
12207TIP3   OH258035   1.731   1.878  11.528 -0.2983  0.5763 -0.1520
12207TIP3    H158036   1.823   1.891  11.548 -0.5556  0.6672  1.0523
12207TIP3    H258037   1.693   1.843  11.610 -1.0697 -0.7065 -1.0134
12208TIP3   OH258038   1.376   3.606   2.488 -0.4261 -0.3187 -0.0430
12208TIP3    H158039   1.458   3.569   2.455  0.1000  0.9594 -0.2310
12208TIP3    H258040   1.353   3.673   2.424 -2.5010 -1.7163 -0.8718
12209TIP3   OH258041   3.464   5.192  16.770  0.1890  0.1161 -0.1365
12209TIP3    H158042   3.498   5.256  16.708  0.0852 -0.1742 -0.4996
12209TIP3    H258043   3.540   5.166  16.822  0.2038  0.6276  0.0958
12210TIP3   OH258044   4.545   2.884   3.799 -0.0439  0.1017 -0.1483
12210TIP3    H158045   4.586   2.798   3.787  0.6716  0.6169 -1.6481
12210TIP3    H258046   4.510   2.906   3.712  1.2180  2.0206 -0.2399
12211TIP3   OH258047   4.021   0.345   6.431  0.1211  0.0761  0.3749
12211TIP3    H158048   4.078   0.313   6.500  1.2025  0.4542 -0.3101
12211TIP3    H258049   4.025   0.277   6.363 -1.9583 -0.9141  1.1823
12212TIP3   OH258050   2.467   5.073  11.958  0.1597 -0.3466  0.2759
12212TIP3    H158051   2.395   5.049  12.016 -1.7348 -2.1810 -2.5280
12212TIP3    H258052   2.441   5.159  11.922 -0.9592 -1.1656 -1.0064
12213TIP3   OH258053   3.837   4.699  14.280 -0.1328  0.0525 -0.1504
12213TIP3    H158054   3.929   4.722  14.265  0.2182 -0.7586  0.6460
12213TIP3    H258055   3.838   4.604  14.293 -0.9161  0.1825  1.0268
12214TIP3   OH258056   2.875   3.228  14.169 -0.1500 -0.0706 -0.2745
12214TIP3    H158057   2.913   3.313  14.189  0.2839 -0.1874 -0.5971
12214TIP3    H258058   2.780   3.241  14.179 -0.0287  0.1618  0.7499
12215TIP3   OH258059   0.631   6.714  13.387  0.1223  0.5630  0.4828
12215TIP3    H158060   0.722   6.737  13.371  0.4461 -0.0123  1.3609
12215TIP3    H258061   0.609   6.652  13.318  0.8325 -0.3099  1.0069
12216TIP3   OH258062   6.559   2.316   0.309  0.3175  0.4230 -0.5139
12216TIP3    H158063   6.618   2.373   0.356  0.1299 -1.0828  1.6843
12216TIP3    H258064   6.610   2.237   0.292 -0.0415  0.4186 -1.7030
12217TIP3   OH258065   3.018   4.552  14.999 -0.5703  0.4571 -0.1989
12217TIP3    H158066   2.939   4.590  15.036 -0.0915 -0.0500  1.4064
12217TIP3    H258067   2.991   4.467  14.964 -0.5500 -0.2007  1.3316
12218TIP3   OH258068   3.107   2.061   0.851 -0.3365 -0.3309  0.5076
12218TIP3    H158069   3.180   2.064   0.788  1.2987 -0.7999  2.2624
12218TIP3    H258070   3.079   2.152   0.859 -0.2960 -0.2070 -0.5769
12219TIP3   OH258071   2.168   2.944  13.290 -0.3282 -0.5570  0.0868
12219TIP3    H158072   2.213   2.862  13.268 -2.8904 -1.9651 -0.2245
12219TIP3    H258073   2.191   2.959  13.382  1.7631 -0.4901 -0.3980
12220TIP3   OH258074   2.049   6.531  11.764  0.2101 -0.2452 -0.1083
12220TIP3    H158075   2.020   6.535  11.673  0.8454 -1.5364 -0.3939
12220TIP3    H258076   1.989   6.589  11.811 -0.1262  0.4406 -1.3399
12221TIP3   OH258077   0.474   6.451  15.839 -0.3398  0.1571  0.2685
12221TIP3    H158078   0.386   6.430  15.809 -0.9958  3.0091 -0.0700
12221TIP3    H258079   0.463   6.471  15.932 -0.2110  1.1035  0.0967
12222TIP3   OH258080   5.602   5.870   4.787 -0.1793 -0.1181  0.4018
12222TIP3    H158081   5.536   5.916   4.839 -0.9835 -0.5349 -0.2311
12222TIP3    H258082   5.638   5.805   4.847 -0.4258  0.0376  0.7203
12223TIP3   OH258083   1.626   2.101  14.584  0.5077 -0.1570  0.2714
12223TIP3    H158084   1.616   2.055  14.500  0.9023 -2.1835  1.2544
12223TIP3    H258085   1.540   2.141  14.599  0.6986  1.0601 -1.4910
12224TIP3   OH258086   3.555   4.554  12.517 -0.1810  0.6334 -0.0149
12224TIP3    H158087   3.564   4.601  12.600  1.1522  3.1750 -1.4678
12224TIP3    H258088   3.638   4.569  12.471 -0.2991 -1.9027 -1.2794
12225TIP3   OH258089   4.119   0.783  13.878 -0.4297  0.0108  0.0487
12225TIP3    H158090   4.103   0.826  13.794 -0.7860  0.2509  0.2397
12225TIP3    H258091   4.209   0.751  13.871 -0.7591 -0.7775 -0.7775
12226TIP3   OH258092   3.965   3.014   1.530 -0.1650  0.2288  0.2229
12226TIP3    H158093   4.059   3.024   1.515 -0.4313  2.0560 -0.3718
12226TIP3    H258094   3.944   2.929   1.492  1.0331  0.3252 -0.7013
12227TIP3   OH258095   2.618   4.869  13.998  0.4063 -0.5885 -0.4491
12227TIP3    H158096   2.641   4.827  14.081 -1.7636 -1.2556 -0.1061
12227TIP3    H258097   2.564   4.944  14.024 -0.8593 -1.1969 -1.2350
12228TIP3   OH258098   1.342   2.017  16.138  0.2865 -0.3740 -0.1333
12228TIP3    H158099   1.303   2.004  16.225  0.6634  0.3996  0.1517
12228TIP3    H258100   1.350   2.112  16.129 -1.6876 -0.2892 -1.8700
12229TIP3   OH258101   0.949   4.959  13.324  0.4552  0.1614 -0.4638
12229TIP3    H158102   0.860   4.988  13.344  0.7612  0.0975  1.1930
12229TIP3    H258103   0.940   4.867  13.299  0.0042  0.2879 -0.7722
12230TIP3   OH258104   6.624   0.094   1.160 -0.2591  0.5670  0.0412
12230TIP3    H158105   6.629   0.012   1.111 -1.3879 -0.9458  2.3175
12230TIP3    H258106   6.716   0.118   1.176  0.0854 -0.4226 -0.3614
12231TIP3   OH258107   2.578   5.101   2.460  0.2059 -0.2760  0.2982
12231TIP3    H158108   2.523   5.139   2.391 -1.3840  0.8276  2.1025
12231TIP3    H258109   2.587   5.170   2.525  0.1886 -1.8115  2.0226
12232TIP3   OH258110   6.188   2.392  15.406 -0.0465  0.0195 -0.0019
12232TIP3    H158111   6.143   2.471  15.376  0.3439  0.5587  0.8158
12232TIP3    H258112   6.123   2.347  15.461 -0.5579 -0.6711 -1.1376
12233TIP3   OH258113   3.218   0.312  16.207  0.4450 -0.3181  0.1271
12233TIP3    H158114   3.160   0.284  16.278  0.5782 -1.1686 -0.0864
12233TIP3    H258115   3.254   0.395  16.237 -0.8920  0.2495  0.2567
12234TIP3   OH258116   1.592   2.240  14.302  0.2988  0.2609 -0.7198
12234TIP3    H158117   1.684   2.221  14.284  0.5966  1.4310 -0.5630
12234TIP3    H258118   1.546   2.218  14.222  0.3807 -2.2772 -0.1547
12235TIP3   OH258119   3.935   5.555  16.888  0.3194 -0.5388 -0.3491
12235TIP3    H158120   3.857   5.507  16.859 -0.1697 -0.4566  0.8005
12235TIP3    H258121   3.993   5.487  16.922  1.0215 -0.6696 -1.7268
12236TIP3   OH258122   1.665   2.708   2.055 -0.0518 -0.2818 -0.1391
12236TIP3    H158123   1.637   2.617   2.056 -0.9382 -0.0547 -1.4634
12236TIP3    H258124   1.609   2.751   2.120 -2.7969  0.1164 -2.5581
12237TIP3   OH258125   6.175   2.074   1.115 -0.1547  0.5324 -0.2698
12237TIP3    H158126   6.121   1.995   1.116  0.2936  0.2171  0.8304
12237TIP3    H258127   6.259   2.044   1.079 -0.1241  0.5998 -0.2541
12238TIP3   OH258128   3.452   1.357  12.495  0.2778  0.1481  0.4857
12238TIP3    H158129   3.437   1.265  12.472  1.5231  0.5170 -2.2699
12238TIP3    H258130   3.493   1.354  12.581 -0.4116 -1.8314  0.7955
12239TIP3   OH258131   3.593   0.961   0.762  0.8717 -0.0091  0.1290
12239TIP3    H158132   3.564   1.042   0.719 -1.1563 -0.2184  1.0021
12239TIP3    H258133   3.621   0.905   0.689  2.9603  1.6605 -0.4467
12240TIP3   OH258134   5.443   0.847   1.411 -0.0677 -0.0383  0.6206
12240TIP3    H158135   5.471   0.938   1.405 -1.5918  0.3906 -1.0890
12240TIP3    H258136   5.524   0.796   1.408  0.7485  1.2316  0.4471
12241TIP3   OH258137   0.459   3.793   0.593  0.4024  0.2323 -0.0664
12241TIP3    H158138   0.484   3.736   0.519  0.0251  0.4921 -0.4007
12241TIP3    H258139   0.380   3.752   0.628  1.7701 -1.1239  1.5855
12242TIP3   OH258140   0.027   2.741  15.095 -0.0976 -0.6376 -0.1079
12242TIP3    H158141   0.021   2.647  15.077 -3.4076 -0.3421 -1.2550
12242TIP3    H258142  -0.031   2.754  15.170  1.0183  0.4180  0.6075
12243TIP3   OH258143   6.624   3.264  15.597  0.6791 -0.1942  0.5474
12243TIP3    H158144   6.632   3.208  15.520  0.7302  1.2236 -0.5155
12243TIP3    H258145   6.536   3.246  15.631  0.1389  0.1092 -0.6357
12244TIP3   OH258146   2.359   1.449  16.109 -0.4377 -0.0373  0.5744
12244TIP3    H158147   2.332   1.359  16.087 -0.4080  0.2729 -0.8427
12244TIP3    H258148   2.452   1.441  16.129 -0.4512 -0.3340  0.5338
12245TIP3   OH258149   3.196   4.587  13.564  0.6025 -0.6139 -0.3249
12245TIP3    H158150   3.239   4.661  13.608 -0.6459 -0.4904  0.7438
12245TIP3    H258151   3.158   4.535  13.635 -1.4741 -0.4140 -1.2068
12246TIP3   OH258152   2.618   3.825   4.824  0.5839  0.6623 -0.3512
12246TIP3    H158153   2.595   3.915   4.848  1.8015  0.9271 -0.1118
12246TIP3    H258154   2.588   3.816   4.734 -1.3614  0.6412  0.2557
12247TIP3   OH258155   3.321   0.942   3.723  0.2958  0.2738  0.1474
12247TIP3    H158156   3.326   1.006   3.652  0.4917 -0.3929 -0.4503
12247TIP3    H258157   3.405   0.896   3.719 -0.2267 -0.6712 -0.0581
12248TIP3   OH258158   6.380   5.022  17.015  0.1802  0.4317 -0.3559
12248TIP3    H158159   6.357   4.993  16.926  0.7258  0.8424 -0.6344
12248TIP3    H258160   6.376   4.942  17.068  1.4150 -0.1321 -1.0637
12249TIP3   OH258161   2.315   4.910  11.624  0.0002  0.3263  1.0554
12249TIP3    H158162   2.290   4.954  11.543 -0.6028  0.0631  1.0981
12249TIP3    H258163   2.249   4.938  11.688  0.3210  0.3247  1.3901
12250TIP3   OH258164   0.706   6.096  17.309  0.2885 -0.1727  0.4330
12250TIP3    H158165   0.785   6.119  17.358 -1.1559  1.8099  1.9862
12250TIP3    H258166   0.671   6.020  17.355  1.1337 -0.9558 -0.1617
12251TIP3   OH258167   6.533   0.565   1.933 -0.5530  0.0820 -0.1446
12251TIP3    H158168   6.450   0.517   1.925  0.7620 -2.2468 -0.7553
12251TIP3    H258169   6.557   0.557   2.025 -0.6017  0.0281 -0.1367
12252TIP3   OH258170   6.371   2.794   2.118  0.2912 -0.3674  0.1828
12252TIP3    H158171   6.329   2.708   2.129  1.4793 -0.9680  0.1701
12252TIP3    H258172   6.427   2.803   2.196  0.5857  0.1468 -0.0893
12253TIP3   OH258173   6.395   5.831   1.122  0.3249  0.7319 -0.1347
12253TIP3    H158174   6.301   5.832   1.136  0.0447  0.5619 -1.8516
12253TIP3    H258175   6.431   5.798   1.205 -1.2492 -1.0864 -0.1106
12254TIP3   OH258176   1.563   0.540   1.981  0.1695 -0.1436  0.2917
12254TIP3    H158177   1.593   0.560   1.893  0.3411  0.1930  0.4227
12254TIP3    H258178   1.472   0.511   1.970  0.1758 -0.0567  0.0110
12255TIP3   OH258179   1.728   0.212   3.712  0.0748 -0.5297 -0.1184
12255TIP3    H158180   1.718   0.233   3.805 -0.8324 -0.1465 -0.2886
12255TIP3    H258181   1.715   0.118   3.707 -2.1727 -0.2848 -0.1053
12256TIP3   OH258182   0.244   6.385   4.902 -0.1257  0.5256  0.5183
12256TIP3    H158183   0.331   6.352   4.922 -0.1992  0.7272  1.2152
12256TIP3    H258184   0.241   6.471   4.945 -1.3110 -0.2740  2.1651
12257TIP3   OH258185   5.881   2.678   5.002  0.2032  0.3323 -0.3149
12257TIP3    H158186   5.852   2.652   4.914  1.0099  0.5106 -0.6402
12257TIP3    H258187   5.973   2.699   4.991  0.9196 -1.7938  1.0265
12258TIP3   OH258188   4.589   4.964  16.215  0.0925 -0.0406 -0.6330
12258TIP3    H158189   4.578   4.962  16.120  0.3239  1.3439 -0.7060
12258TIP3    H258190   4.638   5.045  16.232 -1.1107  0.4236  0.7849
12259TIP3   OH258191   0.816   0.743  17.331  0.6326  0.2351  0.0359
12259TIP3    H158192   0.763   0.744  17.251 -0.0321  2.2981  0.4538
12259TIP3    H258193   0.892   0.798  17.310  0.9663 -0.0325  0.5160
12260TIP3   OH258194   0.321   0.168  17.327 -0.2690 -0.1132  0.3605
12260TIP3    H158195   0.416   0.158  17.331 -0.3059 -0.2140  1.3391
12260TIP3    H258196   0.307   0.253  17.284  0.3322  0.8266  1.9315
12261TIP3   OH258197   6.421   2.878  12.124  0.0618 -0.2444 -0.4357
12261TIP3    H158198   6.342   2.850  12.077 -0.2422 -0.6908  0.3243
12261TIP3    H258199   6.484   2.898  12.055  0.0862 -2.2211 -1.0515
12262TIP3   OH258200   4.277   2.595   1.563 -0.2083  0.0236  0.0106
12262TIP3    H158201   4.182   2.606   1.567 -0.6688 -2.6620 -1.0645
12262TIP3    H258202   4.301   2.629   1.477 -0.1730  0.7607  0.3078
12263TIP3   OH258203   0.824   3.331   0.913  0.0103  0.2247 -0.3011
12263TIP3    H158204   0.887   3.262   0.937  0.6934  0.6344 -0.8565
12263TIP3    H258205   0.747   3.283   0.883 -1.1031 -0.3214  3.0590
12264TIP3   OH258206   1.801   3.052   3.230  0.0347 -0.1871 -0.3085
12264TIP3    H158207   1.718   3.085   3.197 -1.6868 -1.9641  1.8936
12264TIP3    H258208   1.841   3.008   3.155 -0.5028  1.5347 -1.6549
12265TIP3   OH258209   1.408   2.729   5.883 -0.6935 -0.1968 -0.1885
12265TIP3    H158210   1.406   2.783   5.962 -1.0411  0.4581 -0.6372
12265TIP3    H258211   1.491   2.752   5.841 -1.1846  0.5676 -0.7670
12266TIP3   OH258212   4.481   0.413   0.594  0.3250 -1.0230 -0.7131
12266TIP3    H158213   4.542   0.384   0.527  2.3447 -1.7424  1.3115
12266TIP3    H258214   4.533   0.415   0.675 -1.8601  0.2379  0.7657
12267TIP3   OH258215   5.058   0.673  16.573  0.8373 -0.0498 -0.0243
12267TIP3    H158216   5.016   0.751  16.609  1.1799  0.7283 -1.2513
12267TIP3    H258217   5.078   0.696  16.482 -2.0729 -2.7013 -1.5490
12268TIP3   OH258218   5.797   0.370   0.619 -0.6979 -0.0275  0.7306
12268TIP3    H158219   5.844   0.454   0.620 -1.3991  0.3708  0.6904
12268TIP3    H258220   5.851   0.313   0.564 -1.3369  1.0707 -1.1100
12269TIP3   OH258221   6.062   2.345  14.048 -0.1534 -0.4683  0.1522
12269TIP3    H158222   6.077   2.260  14.006  0.4976 -1.1519  1.6848
12269TIP3    H258223   6.069   2.327  14.142 -3.4263  0.6181  0.7335
12270TIP3   OH258224   5.081   5.685  10.676  0.2049  0.3066  0.5094
12270TIP3    H158225   5.093   5.759  10.735  0.3512  0.3500  0.4248
12270TIP3    H258226   4.996   5.702  10.635 -0.1908 -0.0524  1.1754
12271TIP3   OH258227   3.176   6.220   1.351  0.2663 -0.4823 -0.5971
12271TIP3    H158228   3.141   6.309   1.356 -1.4853 -1.0836 -1.2988
12271TIP3    H258229   3.215   6.215   1.264  0.1363 -0.4830 -0.6552
12272TIP3   OH258230   3.014   0.681  17.349  0.0255  0.0459  0.5131
12272TIP3    H158231   3.084   0.727  17.302 -0.6012 -0.4094 -0.9127
12272TIP3    H258232   2.934   0.705  17.302 -0.4074 -1.8909  0.1972
12273TIP3   OH258233   6.003   2.090   2.995 -0.1065 -0.3842 -0.1229
12273TIP3    H158234   6.011   2.125   2.907  1.1322  2.0240  0.8453
12273TIP3    H258235   6.082   2.037   3.006 -0.1678 -0.5333 -0.3925
12274TIP3   OH258236   4.581   2.147  14.545 -0.3452 -0.4704 -0.1657
12274TIP3    H158237   4.553   2.115  14.459  0.0212 -3.1750  0.6357
12274TIP3    H258238   4.641   2.219  14.525 -0.7227 -0.6563 -2.1551
12275TIP3   OH258239   6.514   5.288  16.230 -0.9136 -0.1634 -0.1917
12275TIP3    H158240   6.507   5.194  16.246  0.8565 -0.4124 -0.6369
12275TIP3    H258241   6.512   5.297  16.135 -0.9699  0.2442 -0.1525
12276TIP3   OH258242   6.742   5.464   2.801  0.3477  0.0962 -0.7308
12276TIP3    H158243   6.721   5.548   2.760  0.9145  0.4240 -0.3748
12276TIP3    H258244   6.823   5.481   2.849 -0.8973  0.1036  1.5497
12277TIP3   OH258245   1.876   6.326   1.874  0.1181 -0.3349 -0.2191
12277TIP3    H158246   1.794   6.276   1.869  0.0629 -0.4180  1.1914
12277TIP3    H258247   1.934   6.281   1.812 -0.7993 -0.4541 -1.0184
12278TIP3   OH258248   3.067   6.507   2.089 -0.3030 -0.7134 -0.3360
12278TIP3    H158249   3.045   6.431   2.036  0.3932 -1.8339  0.9123
12278TIP3    H258250   3.162   6.516   2.081 -0.0867 -1.3042  1.1757
12279TIP3   OH258251   0.359   0.582   0.179  0.1758 -0.1794 -0.3766
12279TIP3    H158252   0.414   0.652   0.142 -0.8010  0.9864  0.2866
12279TIP3    H258253   0.276   0.590   0.133  0.5249 -1.9299 -1.3669
12280TIP3   OH258254   1.381   3.517   2.123  0.2193  0.4046  0.3531
12280TIP3    H158255   1.300   3.467   2.121  1.4468 -1.6939 -1.1029
12280TIP3    H258256   1.392   3.549   2.033  2.0604 -1.2700 -0.0819
12281TIP3   OH258257   1.637   1.596  16.805  0.2606 -0.0524 -0.3045
12281TIP3    H158258   1.608   1.592  16.714  2.7216  0.1462 -1.1861
12281TIP3    H258259   1.732   1.585  16.800  0.6413  1.3791  2.1224
12282TIP3   OH258260   0.572   4.238  14.921 -0.2342 -0.3302 -0.7223
12282TIP3    H158261   0.648   4.186  14.895 -1.3313 -3.4359  1.7011
12282TIP3    H258262   0.599   4.281  15.003 -1.1982 -2.0447  0.5605
12283TIP3   OH258263   1.285   4.826   6.003 -0.4847 -0.0010  0.3670
12283TIP3    H158264   1.274   4.745   6.052 -4.4094 -1.2014 -2.0299
12283TIP3    H258265   1.334   4.801   5.925 -2.6998 -0.4826 -0.9470
12284TIP3   OH258266   5.770   5.688  14.111  0.3341  0.4136 -0.3724
12284TIP3    H158267   5.699   5.651  14.059  2.0929 -0.5639 -2.2313
12284TIP3    H258268   5.739   5.775  14.136 -2.2728 -0.7048  0.6120
12285TIP3   OH258269   5.632   5.300  17.225  0.4208 -0.4141  0.4417
12285TIP3    H158270   5.654   5.207  17.228 -0.8520 -0.7519 -0.5002
12285TIP3    H258271   5.538   5.303  17.212  0.4238  1.0206  0.5720
12286TIP3   OH258272   0.425   5.494  11.790 -0.1193 -0.0968 -0.1464
12286TIP3    H158273   0.404   5.430  11.722 -0.5277  1.1455 -1.2551
12286TIP3    H258274   0.506   5.536  11.760  0.7315 -0.7797  1.0952
12287TIP3   OH258275   1.023   3.502  11.706 -0.2127  0.5232  0.2932
12287TIP3    H158276   1.038   3.489  11.613  0.9669 -2.0524  0.7474
12287TIP3    H258277   1.090   3.565  11.733 -0.2730  0.9404 -0.5090
12288TIP3   OH258278   2.700   6.224   1.559  0.1688  0.2253  0.4181
12288TIP3    H158279   2.606   6.212   1.568  0.4291 -1.6903  0.9977
12288TIP3    H258280   2.710   6.275   1.479 -1.2967 -1.5870 -1.0206
12289TIP3   OH258281   3.382   5.342  12.191  0.2155 -0.2848 -0.4942
12289TIP3    H158282   3.429   5.393  12.124 -1.1991  0.1181 -1.2214
12289TIP3    H258283   3.429   5.361  12.272  1.1955  0.2395 -1.1504
12290TIP3   OH258284   2.284   4.679  15.546  0.0792 -0.5476 -0.1116
12290TIP3    H158285   2.339   4.657  15.471  0.4593 -0.1502  0.0414
12290TIP3    H258286   2.321   4.761  15.580  0.5366 -1.2309  1.1103
12291TIP3   OH258287   5.353   6.589   1.314 -0.2290  0.2656 -0.1662
12291TIP3    H158288   5.339   6.633   1.397  0.2645  1.0106 -0.4700
12291TIP3    H258289   5.415   6.519   1.333 -1.4796 -0.7330  0.4443
12292TIP3   OH258290   1.496   2.962  16.010  0.0816  0.1380  0.5294
12292TIP3    H158291   1.466   2.922  15.928 -0.1182 -3.7405  2.2822
12292TIP3    H258292   1.586   2.987  15.992 -0.0337 -0.4224 -0.9768
12293TIP3   OH258293   1.205   5.467  16.792  0.1322 -0.2935 -0.0728
12293TIP3    H158294   1.191   5.555  16.826 -0.9589 -1.1915  2.0146
12293TIP3    H258295   1.137   5.456  16.725  0.4808  0.5382 -0.5750
12294TIP3   OH258296   5.369   2.496  12.140 -0.6011 -0.2725 -0.3416
12294TIP3    H158297   5.297   2.433  12.137  0.9057 -2.1059  0.1423
12294TIP3    H258298   5.364   2.542  12.055 -1.6413 -1.1317 -0.7703
12295TIP3   OH258299   4.722   4.430  15.698  0.1514  0.2432 -0.0061
12295TIP3    H158300   4.816   4.433  15.680  0.1849  1.2226  0.2776
12295TIP3    H258301   4.693   4.348  15.658  1.0397  0.1546 -0.5051
12296TIP3   OH258302   0.144   5.374  15.090 -0.5258  0.1289 -0.3968
12296TIP3    H158303   0.068   5.431  15.105 -0.4027  0.7934 -2.0578
12296TIP3    H258304   0.108   5.285  15.094 -1.0702  0.3770  0.4444
12297TIP3   OH258305   2.995   2.411  11.578  0.6941 -0.2829 -0.5445
12297TIP3    H158306   2.960   2.351  11.645  0.4801  1.5802  1.1201
12297TIP3    H258307   2.969   2.372  11.495 -1.5392 -1.2629  0.5289
12298TIP3   OH258308   4.366   3.487  14.966 -0.7824  0.0211  0.4445
12298TIP3    H158309   4.271   3.488  14.957 -0.6540  0.0203 -1.2131
12298TIP3    H258310   4.387   3.396  14.988 -1.0371 -0.5660 -1.4890
12299TIP3   OH258311   6.675   5.036   5.392 -0.6326  0.5697 -0.1309
12299TIP3    H158312   6.711   5.118   5.359 -0.9012  1.7179  2.2347
12299TIP3    H258313   6.613   5.062   5.460 -0.7548 -1.5915  0.6682
12300TIP3   OH258314   1.700   0.086   4.678 -0.0881  0.3232  0.8889
12300TIP3    H158315   1.751   0.010   4.650 -0.3205 -0.2935  2.0504
12300TIP3    H258316   1.759   0.161   4.666  1.1945 -0.3869  2.3387
12301TIP3   OH258317   0.421   2.254  15.586 -0.2655 -0.8020  0.5443
12301TIP3    H158318   0.516   2.255  15.603  0.1112 -0.3592 -1.3981
12301TIP3    H258319   0.401   2.341  15.553 -0.9260 -1.5348 -1.0905
12302TIP3   OH258320   2.575   4.808  10.536  0.6270 -0.3672 -0.3848
12302TIP3    H158321   2.630   4.772  10.605  0.5052 -2.2188 -1.1867
12302TIP3    H258322   2.634   4.865  10.486  1.0283  0.0104  0.5026
12303TIP3   OH258323   3.316   5.851  15.194 -0.3243 -0.6731  0.2278
12303TIP3    H158324   3.339   5.803  15.273 -0.3666 -1.9791 -0.5229
12303TIP3    H258325   3.244   5.908  15.220 -0.9114 -1.7073  0.9368
12304TIP3   OH258326   0.412   4.863   5.135  0.6831 -0.2368 -0.4893
12304TIP3    H158327   0.444   4.904   5.054  2.2098 -0.9189 -0.2604
12304TIP3    H258328   0.332   4.910   5.155  0.2034 -0.1183 -2.4645
12305TIP3   OH258329   5.415   3.610   3.391 -0.3719  0.1241 -0.0182
12305TIP3    H158330   5.396   3.703   3.402 -0.0994  0.2285 -0.3622
12305TIP3    H258331   5.356   3.565   3.450  0.9119  0.6140  1.7223
12306TIP3   OH258332   0.723   5.597  15.548 -0.8845  0.8381 -0.0320
12306TIP3    H158333   0.704   5.556  15.633  2.6447 -2.5518 -0.6088
12306TIP3    H258334   0.667   5.549  15.486 -0.2861  0.2324 -0.1137
12307TIP3   OH258335   0.127   4.285  11.691 -0.2973 -0.1206 -0.6417
12307TIP3    H158336   0.214   4.300  11.728 -1.7626  0.2308  3.0993
12307TIP3    H258337   0.097   4.372  11.663 -0.7643  0.4489  1.4727
12308TIP3   OH258338   2.453   2.600  16.103  0.4786  0.7246  0.1738
12308TIP3    H158339   2.457   2.662  16.030  1.9225 -0.9560 -1.2652
12308TIP3    H258340   2.369   2.618  16.145 -0.0587  2.2548 -1.4263
12309TIP3   OH258341   5.207   2.694   5.768 -0.2227  0.2111  0.1532
12309TIP3    H158342   5.291   2.658   5.799  0.1342 -0.5119 -1.5398
12309TIP3    H258343   5.142   2.656   5.827  0.4900 -0.5320  0.4931
12310TIP3   OH258344   6.200   3.248  13.179 -0.0775 -0.1013 -0.0193
12310TIP3    H158345   6.283   3.291  13.199  0.1345 -0.2529 -0.5426
12310TIP3    H258346   6.162   3.300  13.108  1.2590 -1.9832 -2.2802
12311TIP3   OH258347   6.240   6.658   5.609 -0.0057 -0.6769  0.3722
12311TIP3    H158348   6.145   6.653   5.623 -0.6313  2.6838 -1.5488
12311TIP3    H258349   6.256   6.602   5.533 -0.8172  0.0886 -0.3877
12312TIP3   OH258350   3.568   4.658  16.592  0.1763 -0.1679  0.3664
12312TIP3    H158351   3.594   4.595  16.526 -0.1742 -0.0898  0.1503
12312TIP3    H258352   3.611   4.629  16.672 -1.0928 -1.4937  0.5988
12313TIP3   OH258353   3.498   0.300   1.502  0.5771 -0.3787  0.3847
12313TIP3    H158354   3.529   0.246   1.429 -0.8156  0.5110 -0.9310
12313TIP3    H258355   3.551   0.272   1.577  1.6149 -1.7777 -0.8098
12314TIP3   OH258356   6.645   6.040  12.636 -0.5303 -0.3951 -0.4303
12314TIP3    H158357   6.717   5.997  12.683 -0.4987  0.8974  0.7838
12314TIP3    H258358   6.674   6.131  12.628 -1.2576 -0.2494 -1.5598
12315TIP3   OH258359   6.339   4.870   3.739 -0.4299 -0.0647  0.4403
12315TIP3    H158360   6.263   4.878   3.797 -0.8567  0.3693 -0.1686
12315TIP3    H258361   6.330   4.943   3.678  1.1441  0.7375  1.1166
12316TIP3   OH258362   2.326   6.633  13.377  0.3368  0.4839 -0.2108
12316TIP3    H158363   2.345   6.590  13.460 -0.8867 -0.5256 -0.4209
12316TIP3    H258364   2.344   6.567  13.310 -0.7840  0.5509 -0.5982
12317TIP3   OH258365   1.733   0.141  15.207  0.3001 -0.0854 -0.1030
12317TIP3    H158366   1.801   0.078  15.182  0.0436 -0.9805  1.3020
12317TIP3    H258367   1.669   0.089  15.255  0.3219  1.3167  1.5629
12318TIP3   OH258368   0.337   6.238   1.510 -0.0106 -0.2077  0.3841
12318TIP3    H158369   0.279   6.313   1.525  0.7146  0.4331  0.0020
12318TIP3    H258370   0.318   6.211   1.420  0.9954  0.6394 -0.0962
12319TIP3   OH258371   1.270   1.431   5.957  0.4529  0.2377 -0.4799
12319TIP3    H158372   1.195   1.383   5.922  1.2690 -1.0516 -0.5407
12319TIP3    H258373   1.235   1.477   6.034 -0.7130  0.8543 -1.3494
12320TIP3   OH258374   5.923   6.478  11.187  0.0753  0.1222 -0.0844
12320TIP3    H158375   5.864   6.534  11.137  1.4987 -0.0932 -2.1176
12320TIP3    H258376   5.947   6.407  11.127  1.7843 -0.2228  0.9237
12321TIP3   OH258377   3.829   3.126   2.832  0.6684 -0.1127 -0.2308
12321TIP3    H158378   3.800   3.205   2.785 -0.0246 -0.0725  0.2486
12321TIP3    H258379   3.763   3.114   2.900  1.5565 -0.2854  0.6114
12322TIP3   OH258380   6.097   2.623  14.110 -0.5068 -0.1755 -0.7364
12322TIP3    H158381   6.183   2.582  14.099 -0.0799  0.4138  0.2573
12322TIP3    H258382   6.035   2.550  14.107 -0.0493 -0.5453 -2.0630
12323TIP3   OH258383   3.290   4.126  15.810 -0.1479 -0.3699 -0.2028
12323TIP3    H158384   3.359   4.066  15.781  0.8099  1.1142 -1.1420
12323TIP3    H258385   3.331   4.213  15.805 -2.0162  0.5355 -0.5505
12324TIP3   OH258386   4.304   5.007   4.296  0.2461  0.3332 -0.3597
12324TIP3    H158387   4.287   5.078   4.235 -0.1623  3.2414  2.8473
12324TIP3    H258388   4.218   4.983   4.330  0.6397  0.3799  0.7084
12325TIP3   OH258389   3.718   0.824  14.382 -0.3655  0.3733 -0.1926
12325TIP3    H158390   3.737   0.836  14.475  0.4654  0.3442 -0.3431
12325TIP3    H258391   3.641   0.878  14.366  0.2922  1.4614  0.2257
12326TIP3   OH258392   4.924   6.008  11.609 -0.2520 -0.1847 -0.2532
12326TIP3    H158393   4.909   5.914  11.607 -0.0666 -0.2909  1.5543
12326TIP3    H258394   4.837   6.046  11.593 -0.6908 -0.6993  0.7961
12327TIP3   OH258395   1.468   2.741   3.765 -0.5481 -0.5487  0.0793
12327TIP3    H158396   1.392   2.783   3.725 -0.9292  1.6825  2.8667
12327TIP3    H258397   1.434   2.700   3.845  1.0233 -0.2869  0.9264
12328TIP3   OH258398   6.298   1.684   3.174  0.1287  0.4201  0.2312
12328TIP3    H158399   6.246   1.604   3.183 -2.1977  1.9473  1.6310
12328TIP3    H258400   6.388   1.654   3.169 -0.5527 -2.2592  1.9667
12329TIP3   OH258401   5.063   3.259   5.615 -0.6465 -0.2365 -0.3116
12329TIP3    H158402   4.998   3.213   5.669 -0.9497 -0.0007 -0.4759
12329TIP3    H258403   5.105   3.189   5.565  0.7002 -0.6548  1.3187
12330TIP3   OH258404   1.014   2.092   1.562 -0.2207  0.2924  0.1410
12330TIP3    H158405   0.983   2.135   1.482  0.7294  0.5849 -0.0807
12330TIP3    H258406   0.951   2.118   1.629  0.3090  2.0701  0.0219
12331TIP3   OH258407   0.963   3.052  14.630  0.1979  0.1982  0.1819
12331TIP3    H158408   0.890   2.991  14.618 -0.0422  0.2318  1.2985
12331TIP3    H258409   0.922   3.138  14.635  0.4762  0.3961 -0.7603
12332TIP3   OH258410   0.773   6.462   4.641  0.4897  0.1923  0.4928
12332TIP3    H158411   0.831   6.506   4.703  0.2717  0.8951  0.2060
12332TIP3    H258412   0.715   6.531   4.608 -0.3398 -0.4513  0.5713
12333TIP3   OH258413   5.676   4.410  11.327  0.1149 -0.1613  0.3960
12333TIP3    H158414   5.744   4.415  11.260 -1.2148  1.4838 -0.9237
12333TIP3    H258415   5.693   4.487  11.383  0.8073 -1.1447  1.5838
12334TIP3   OH258416   5.700   1.479   6.421  0.3626  0.2231 -0.3004
12334TIP3    H158417   5.780   1.488   6.369  0.1402  0.5865 -0.5871
12334TIP3    H258418   5.651   1.409   6.378 -0.2443  1.1332 -1.1576
12335TIP3   OH258419   4.031   0.012   2.877 -0.0476  0.4746 -0.2536
12335TIP3    H158420   4.061  -0.030   2.796 -0.2523 -0.5807  0.2013
12335TIP3    H258421   3.938   0.030   2.862  0.1079  1.0801 -0.5620
12336TIP3   OH258422   5.382   0.507   4.482 -0.0108  0.2819  0.6064
12336TIP3    H158423   5.451   0.563   4.517  1.2232 -1.4566  1.0422
12336TIP3    H258424   5.316   0.504   4.551  0.7771 -0.2741  1.3494
12337TIP3   OH258425   5.335   3.318  11.345  0.0439 -0.0945 -0.2753
12337TIP3    H158426   5.369   3.391  11.396  1.8546 -1.7436  1.0632
12337TIP3    H258427   5.289   3.358  11.272  0.2222  2.3532  0.8746
12338TIP3   OH258428   5.764   0.076  13.518 -0.1416  0.0207 -0.1795
12338TIP3    H158429   5.857   0.069  13.497 -0.2832  0.7147 -1.1243
12338TIP3    H258430   5.719   0.038  13.443 -0.6789  2.9008 -1.4751
12339TIP3   OH258431   0.411   6.255  15.575  0.0872 -0.4041  0.1229
12339TIP3    H158432   0.340   6.270  15.637  0.9345 -0.7601  1.2017
12339TIP3    H258433   0.487   6.235  15.629  0.9315 -0.4115 -1.0206
12340TIP3   OH258434   1.824   0.310   4.600  0.3714  0.4873  0.6166
12340TIP3    H158435   1.897   0.306   4.539 -0.6209  1.2812 -0.6730
12340TIP3    H258436   1.844   0.384   4.658  0.0874  1.3866 -0.4173
12341TIP3   OH258437   3.268   4.822  12.848 -0.6842 -0.2845  0.3790
12341TIP3    H158438   3.212   4.899  12.843 -2.8453 -1.8083 -2.0879
12341TIP3    H258439   3.255   4.778  12.764  3.0898 -1.6406  0.2973
12342TIP3   OH258440   4.144   6.334  16.857 -0.0590  0.4005  0.0059
12342TIP3    H158441   4.110   6.248  16.881  0.6806  0.6121  1.9217
12342TIP3    H258442   4.093   6.396  16.909 -0.2971  1.1231 -1.0394
12343TIP3   OH258443   4.630   0.418  13.824  0.0812 -0.0338 -0.4174
12343TIP3    H158444   4.623   0.333  13.780 -0.7132  0.6743 -1.6995
12343TIP3    H258445   4.715   0.452  13.795  0.8364 -0.7413  0.8236
12344TIP3   OH258446   4.777   0.198   4.799 -0.0632 -0.0051 -0.1847
12344TIP3    H158447   4.845   0.173   4.862  0.6976  1.1432 -0.5173
12344TIP3    H258448   4.746   0.283   4.831 -0.0758  0.3123 -1.0309
12345TIP3   OH258449   1.838   0.536  16.926  0.0171 -0.2933 -0.1623
12345TIP3    H158450   1.901   0.540  16.998 -0.2961 -1.3041  0.1741
12345TIP3    H258451   1.766   0.591  16.955 -0.4724 -1.3451  0.6720
12346TIP3   OH258452   3.094   6.336  15.644  0.2220  0.1914  0.5467
12346TIP3    H158453   3.159   6.311  15.711  0.3266 -0.1570  0.3167
12346TIP3    H258454   3.048   6.410  15.683 -1.4929 -1.5878  2.1618
12347TIP3   OH258455   0.298   1.991  17.058 -0.5085  0.0667 -0.0075
12347TIP3    H158456   0.208   1.959  17.071 -0.1829 -0.4156  1.1172
12347TIP3    H258457   0.354   1.916  17.080  0.1810  0.2605 -1.0155
12348TIP3   OH258458   2.594   3.923  14.498 -0.0048 -0.3880  0.7800
12348TIP3    H158459   2.509   3.894  14.532  0.5569 -2.3187  0.6667
12348TIP3    H258460   2.605   4.011  14.533 -1.9158 -0.1935  1.0254
12349TIP3   OH258461   0.036   0.676   1.490  0.4199  0.3183 -0.2554
12349TIP3    H158462  -0.047   0.706   1.527  0.5105  0.0655  0.1597
12349TIP3    H258463   0.050   0.590   1.530  1.0522  0.5151 -0.0510
12350TIP3   OH258464   6.492   2.521  16.221 -0.3641 -0.2435 -0.0484
12350TIP3    H158465   6.542   2.563  16.151 -0.1563 -0.1696  0.1439
12350TIP3    H258466   6.429   2.465  16.175  0.2327 -0.7311 -0.2878
12351TIP3   OH258467   4.584   5.181   4.917  0.2534  0.1575 -0.4419
12351TIP3    H158468   4.509   5.221   4.961 -0.5220 -0.6309 -1.0091
12351TIP3    H258469   4.551   5.156   4.831  1.2998  0.2096 -0.8821
12352TIP3   OH258470   4.959   4.853  13.039 -0.2087 -0.0289 -0.6546
12352TIP3    H158471   5.021   4.785  13.013  0.1466  0.6364 -1.6037
12352TIP3    H258472   5.012   4.931  13.052 -0.4853 -0.1145  1.3473
12353TIP3   OH258473   2.349   0.873   4.084  0.8301 -0.4480 -1.0984
12353TIP3    H158474   2.419   0.896   4.024  1.0015  1.3161 -0.2972
12353TIP3    H258475   2.393   0.861   4.169  0.1012  2.1353 -0.2537
12354TIP3   OH258476   3.409   3.197   5.104  0.3555  0.0888  0.2782
12354TIP3    H158477   3.322   3.230   5.124  0.3433 -1.1595  2.7063
12354TIP3    H258478   3.394   3.107   5.074  0.7345  0.3685 -0.7918
12355TIP3   OH258479   6.118   5.096   4.014  0.4870  0.5501 -0.5385
12355TIP3    H158480   6.149   5.099   3.923  0.3696  0.7316 -0.5713
12355TIP3    H258481   6.041   5.040   4.011  0.6312  0.3497 -0.5088
12356TIP3   OH258482   1.565   4.230   0.881 -0.3229 -0.5379 -0.0298
12356TIP3    H158483   1.589   4.159   0.941 -0.6474  0.2229  1.0191
12356TIP3    H258484   1.484   4.200   0.840 -0.8326 -0.5012  0.9130
12357TIP3   OH258485   1.236   2.109  11.648  0.0579  0.2762  0.1455
12357TIP3    H158486   1.300   2.064  11.704 -0.1232 -1.2504 -0.8293
12357TIP3    H258487   1.152   2.068  11.669  0.1256 -1.0380 -1.8811
12358TIP3   OH258488   2.273   6.257   5.056 -0.4982  0.1651  0.2003
12358TIP3    H158489   2.352   6.211   5.085 -1.5719 -0.6531  1.9982
12358TIP3    H258490   2.212   6.187   5.032 -0.2467  0.8069 -2.5460
12359TIP3   OH258491   5.679   3.480   6.187  0.2694 -0.2754 -0.7316
12359TIP3    H158492   5.773   3.487   6.208 -0.0977  0.0756  0.9567
12359TIP3    H258493   5.675   3.489   6.092  1.8704  0.6432 -0.7540
12360TIP3   OH258494   0.198   0.434  13.597 -0.5215 -0.0990 -0.2993
12360TIP3    H158495   0.116   0.484  13.604  0.9954  2.5705  0.0304
12360TIP3    H258496   0.219   0.411  13.688 -0.1245  0.6742 -0.1820
12361TIP3   OH258497   4.120   1.696  16.326 -0.0283 -0.5570  0.5129
12361TIP3    H158498   4.170   1.614  16.330  0.5816 -0.3448 -1.5013
12361TIP3    H258499   4.031   1.669  16.305  0.4121 -0.7209 -1.3779
12362TIP3   OH258500   5.864   0.648   0.612 -0.6344  0.3244  0.2055
12362TIP3    H158501   5.823   0.727   0.648 -1.4299 -0.3769  0.8922
12362TIP3    H258502   5.854   0.657   0.517 -1.0689  0.8691  0.2945
12363TIP3   OH258503   1.297   1.891  16.910 -0.1441  0.2699  0.0485
12363TIP3    H158504   1.257   1.829  16.848 -1.7824 -0.4043  1.6945
12363TIP3    H258505   1.382   1.911  16.871 -0.6343 -0.9887 -1.8508
12364TIP3   OH258506   5.942   6.651  12.100  0.5261  0.1748 -0.2143
12364TIP3    H158507   5.964   6.625  12.010 -0.7531 -0.7944 -0.2720
12364TIP3    H258508   5.935   6.747  12.096  0.9287  0.1837 -1.0318
12365TIP3   OH258509   0.699   0.284   1.492  0.3043 -0.2087 -0.4299
12365TIP3    H158510   0.616   0.327   1.472  0.0394 -0.4493  0.1451
12365TIP3    H258511   0.761   0.356   1.502 -0.0716  0.0285  0.2290
12366TIP3   OH258512   3.338   6.544  13.857  0.1423  0.0875 -0.0392
12366TIP3    H158513   3.352   6.503  13.771 -0.5843 -1.4858  0.5556
12366TIP3    H258514   3.425   6.550  13.895  0.3495 -0.2086 -0.4569
12367TIP3   OH258515   3.449   5.416  11.465 -0.7206  0.6574 -0.4592
12367TIP3    H158516   3.540   5.422  11.434 -1.2333  0.5753 -2.0690
12367TIP3    H258517   3.410   5.500  11.442 -1.1028  0.6309  0.0776
12368TIP3   OH258518   5.745   6.445  13.896 -0.6258  0.3316 -0.0617
12368TIP3    H158519   5.689   6.379  13.855 -1.8922  2.3314 -1.6805
12368TIP3    H258520   5.825   6.445  13.844 -1.0248  0.7482 -0.6842
12369TIP3   OH258521   6.618   0.972   1.028 -0.9727  0.5138  0.5204
12369TIP3    H158522   6.539   0.969   1.082 -1.1929  1.2121  0.2479
12369TIP3    H258523   6.587   0.950   0.940 -0.5837 -0.8128  0.6945
12370TIP3   OH258524   4.260   1.041   1.052 -0.3428  0.3031  0.2505
12370TIP3    H158525   4.172   1.063   1.083 -0.1023  0.1649  1.0523
12370TIP3    H258526   4.278   0.955   1.089  0.0013  0.1869 -0.1838
12371TIP3   OH258527   3.149   0.475   0.297 -0.7142  0.2761  0.4437
12371TIP3    H158528   3.171   0.419   0.371 -0.8537 -1.5544 -0.8312
12371TIP3    H258529   3.120   0.557   0.337 -0.5328 -0.5552  2.3940
12372TIP3   OH258530   5.382   2.987   4.788  0.0705  0.2802  0.2561
12372TIP3    H158531   5.329   2.966   4.711 -0.6952 -0.1615  0.8858
12372TIP3    H258532   5.326   2.965   4.862 -0.0917  2.8737  0.9946
12373TIP3   OH258533   2.607   6.067  15.605 -0.2823 -0.0354  0.4206
12373TIP3    H158534   2.522   6.090  15.643 -0.5130  0.7022 -0.4764
12373TIP3    H258535   2.599   6.093  15.513 -0.1957 -2.9026 -0.4745
12374TIP3   OH258536   0.531   2.690   3.947  0.2636  0.4512 -0.0718
12374TIP3    H158537   0.497   2.737   4.023 -1.0243  1.4640 -1.2227
12374TIP3    H258538   0.574   2.613   3.983  0.2742  1.2561  1.7116
12375TIP3   OH258539   0.946   1.876  10.838  0.3914 -0.2049 -0.2539
12375TIP3    H158540   0.942   1.968  10.863 -0.7797 -0.4175  0.4194
12375TIP3    H258541   1.006   1.874  10.764  1.1507  0.9621  0.3024
12376TIP3   OH258542   2.677   1.896   1.630  0.3972 -0.2239  0.7140
12376TIP3    H158543   2.744   1.827   1.626 -0.2205 -1.2127  4.2215
12376TIP3    H258544   2.720   1.967   1.678  0.2404  0.9482 -0.8035
12377TIP3   OH258545   2.698   3.599   2.427  0.3005 -0.6607  0.4312
12377TIP3    H158546   2.683   3.674   2.485 -1.3155  0.2567 -1.0801
12377TIP3    H258547   2.781   3.618   2.384  0.1840 -0.0273  0.4823
12378TIP3   OH258548   0.788   0.203  14.142  0.3226  0.3524  0.3792
12378TIP3    H158549   0.834   0.149  14.078 -0.1130  1.1957 -0.6874
12378TIP3    H258550   0.752   0.276  14.090 -5.3515 -1.9939  0.2985
12379TIP3   OH258551   4.491   4.280  12.391  0.3462  0.1672  0.9890
12379TIP3    H158552   4.419   4.229  12.430  0.1923  0.2966  0.8781
12379TIP3    H258553   4.557   4.215  12.368  0.3189  0.0605  1.2098
12380TIP3   OH258554   2.056   3.074  13.082 -0.6712  0.3045 -0.4604
12380TIP3    H158555   2.069   3.021  13.161 -2.3873 -1.1678 -1.0678
12380TIP3    H258556   2.144   3.092  13.050  0.0750  1.1884  1.9156
12381TIP3   OH258557   5.824   2.834  16.677 -0.5817 -0.0334 -0.0824
12381TIP3    H158558   5.919   2.831  16.661 -0.4592 -0.6944  0.7237
12381TIP3    H258559   5.789   2.762  16.625 -0.5269 -0.3745  0.3496
12382TIP3   OH258560   2.876   0.786  16.740  0.3528 -0.1895 -0.1729
12382TIP3    H158561   2.949   0.846  16.724  0.4606  0.1945  1.5916
12382TIP3    H258562   2.916   0.713  16.786 -0.0429 -0.9681 -1.0392
12383TIP3   OH258563   1.344   0.273  12.765 -0.1411  0.3444  1.0214
12383TIP3    H158564   1.398   0.267  12.844  1.3726 -2.0930 -0.1016
12383TIP3    H258565   1.325   0.182  12.741 -0.7245  1.0019 -1.3117
12384TIP3   OH258566   2.921   5.888  12.201 -0.9065  0.6871 -0.7440
12384TIP3    H158567   2.899   5.976  12.173 -0.2291  1.5873  1.3274
12384TIP3    H258568   2.867   5.873  12.279  2.3985  1.3160  1.9130
12385TIP3   OH258569   5.946   0.149   0.511  0.7502  0.3300  0.2395
12385TIP3    H158570   6.034   0.119   0.489  0.4372 -0.4201 -0.0263
12385TIP3    H258571   5.904   0.165   0.427  0.0359 -1.1198  0.2823
12386TIP3   OH258572   1.587   6.268   1.883  0.2132 -0.1869 -0.1706
12386TIP3    H158573   1.602   6.273   1.977  1.1483  1.5881 -0.3723
12386TIP3    H258574   1.557   6.355   1.858  0.2175 -0.5471 -1.5586
12387TIP3   OH258575   6.287   6.209   6.442 -0.6315 -0.0116  0.0792
12387TIP3    H158576   6.357   6.225   6.504 -0.8121 -1.3300  0.6557
12387TIP3    H258577   6.253   6.296   6.420  0.4850  0.5632  0.5892
12388TIP3   OH258578   1.257   6.745  12.758  1.0606  0.4733 -0.6051
12388TIP3    H158579   1.255   6.721  12.851  2.1347  2.6257  0.0356
12388TIP3    H258580   1.237   6.664  12.712  2.3555 -1.0943  1.4353
12389TIP3   OH258581   2.140   2.574  13.296 -0.6227 -0.3400 -0.3154
12389TIP3    H158582   2.079   2.648  13.290 -1.3366 -0.6525  2.0519
12389TIP3    H258583   2.084   2.497  13.285 -0.4630 -0.5963  0.6177
12390TIP3   OH258584   2.422   5.902   1.197  0.2377  0.4471 -0.9611
12390TIP3    H158585   2.482   5.956   1.146 -0.6577  2.2195 -0.2134
12390TIP3    H258586   2.449   5.812   1.179  2.4506  1.1569 -1.4390
12391TIP3   OH258587   3.842   5.478  12.684 -0.4261 -0.1099  0.5369
12391TIP3    H158588   3.778   5.510  12.620 -0.5268 -0.1056  0.6394
12391TIP3    H258589   3.896   5.416  12.634  0.6681  1.2416 -0.0396
12392TIP3   OH258590   6.624   1.850   3.924 -0.1286  0.1490 -0.1390
12392TIP3    H158591   6.622   1.942   3.952 -0.7025  0.1982 -0.3185
12392TIP3    H258592   6.580   1.850   3.839 -1.2506 -0.4578  0.4116
12393TIP3   OH258593   5.186   1.442   0.187 -0.1419  0.6224 -0.1696
12393TIP3    H158594   5.106   1.442   0.240 -0.7456  0.2978 -1.0485
12393TIP3    H258595   5.155   1.464   0.099  0.6870  0.0919 -0.6030
12394TIP3   OH258596   5.777   0.783  14.980 -0.3042  0.3840 -0.7945
12394TIP3    H158597   5.740   0.774  15.068 -0.4014 -2.1091 -1.0231
12394TIP3    H258598   5.745   0.869  14.950 -0.2244  1.3205  1.5723
12395TIP3   OH258599   6.369   3.594  13.849  0.0758  0.2205 -0.5997
12395TIP3    H158600   6.334   3.570  13.934  0.9953  0.1763 -0.2295
12395TIP3    H258601   6.428   3.667  13.866  0.1791  0.2932 -1.2185
12396TIP3   OH258602   6.446   2.632  13.399 -0.2964  0.5162  0.5835
12396TIP3    H158603   6.399   2.648  13.317  0.1180  0.3684  0.3106
12396TIP3    H258604   6.486   2.716  13.420 -1.7525  1.0043  1.5248
12397TIP3   OH258605   0.314   4.200   0.815 -0.4379 -1.1329 -0.2849
12397TIP3    H158606   0.360   4.183   0.733 -0.4688 -0.2770 -0.4863
12397TIP3    H258607   0.362   4.148   0.880  0.7040 -0.4229 -0.5296
12398TIP3   OH258608   4.079   2.657   3.084  0.0259  0.5570  0.0872
12398TIP3    H158609   4.012   2.619   3.140  0.7402 -0.0293  0.5611
12398TIP3    H258610   4.045   2.647   2.995 -0.2807 -0.2186  0.2881
12399TIP3   OH258611   3.966   2.483   0.531  0.1278  0.0453  0.8349
12399TIP3    H158612   3.903   2.447   0.468 -0.0930 -1.6125  1.9305
12399TIP3    H258613   4.051   2.453   0.499 -0.0074 -1.0276  1.4307
12400TIP3   OH258614   0.169   3.356  13.018 -0.5914 -0.0655 -0.4958
12400TIP3    H158615   0.159   3.445  13.053 -2.2145 -0.8751  1.2341
12400TIP3    H258616   0.262   3.337  13.030 -0.4626  0.9521  0.2806
12401TIP3   OH258617   6.033   0.633   1.429 -0.5615 -0.1510 -0.0771
12401TIP3    H158618   5.960   0.621   1.489  0.7065 -1.4674  1.3302
12401TIP3    H258619   6.028   0.558   1.369  0.9833 -1.7644  1.6417
12402TIP3   OH258620   0.205   2.481  15.079 -0.2676  0.6516  0.1308
12402TIP3    H158621   0.294   2.483  15.044 -0.3222 -0.1334 -0.0715
12402TIP3    H258622   0.216   2.452  15.170 -0.3798 -0.1608 -0.1138
12403TIP3   OH258623   5.984   4.351   4.932  0.6994 -0.3363 -0.4162
12403TIP3    H158624   5.989   4.444   4.910 -0.3010  0.0204  0.7791
12403TIP3    H258625   6.065   4.333   4.979  0.7981 -0.0135 -0.4604
12404TIP3   OH258626   1.447   6.739   6.476  0.1461  0.1699  0.3734
12404TIP3    H158627   1.420   6.678   6.407 -0.6330  0.6550  0.2367
12404TIP3    H258628   1.438   6.826   6.437  1.8352  0.3711  0.3665
12405TIP3   OH258629   3.101   0.034   4.962  0.4033 -0.1896  0.1197
12405TIP3    H158630   3.007   0.015   4.968  0.0598  0.8086 -1.4766
12405TIP3    H258631   3.112   0.116   5.009 -0.1779  1.4404 -2.3964
12406TIP3   OH258632   6.508   1.301   3.933  0.2099  0.0239  0.0882
12406TIP3    H158633   6.595   1.339   3.936 -0.6844  2.1746  0.3661
12406TIP3    H258634   6.518   1.214   3.973  1.6713  1.4068  2.9836
12407TIP3   OH258635   4.702   2.727  11.304  0.0950 -0.3705 -0.7342
12407TIP3    H158636   4.704   2.673  11.383 -1.2395  0.1916 -0.2911
12407TIP3    H258637   4.670   2.668  11.235  1.9319 -1.0584 -1.0639
12408TIP3   OH258638   6.178   1.134  15.169 -0.0884 -0.1895 -0.3771
12408TIP3    H158639   6.095   1.179  15.186 -1.3094 -1.1471 -3.1758
12408TIP3    H258640   6.163   1.044  15.198  0.6336  0.0457  0.7581
12409TIP3   OH258641   4.525   5.775  13.208 -0.2884  0.0357 -0.0669
12409TIP3    H158642   4.597   5.724  13.244  0.7681  1.1354 -0.5351
12409TIP3    H258643   4.513   5.847  13.271 -0.5186  0.2317 -0.3324
12410TIP3   OH258644   0.346   6.355   6.142  0.2785 -0.0507 -0.4842
12410TIP3    H158645   0.380   6.441   6.166  0.9771 -0.2130 -0.8681
12410TIP3    H258646   0.277   6.337   6.206 -1.7311  1.9421 -1.8858
12411TIP3   OH258647   0.973   5.995  14.601 -0.0946 -0.4905 -0.4028
12411TIP3    H158648   1.041   5.929  14.616 -1.1102 -1.4753  0.0421
12411TIP3    H258649   0.920   5.993  14.681 -1.4930 -0.7913 -1.3101
12412TIP3   OH258650   2.234   2.905  11.283  0.3673 -0.3940 -0.1896
12412TIP3    H158651   2.295   2.914  11.356 -1.0130  0.2521  0.9381
12412TIP3    H258652   2.268   2.832  11.231  1.8790 -0.2776  0.5866
12413TIP3   OH258653   2.735   5.737  16.800  0.8861  0.6348 -0.4468
12413TIP3    H158654   2.756   5.662  16.856 -1.4400 -0.6189 -1.1662
12413TIP3    H258655   2.642   5.754  16.816  0.5300  1.1760 -2.8236
12414TIP3   OH258656   2.663   6.643   5.832 -0.1393 -0.3089  0.2111
12414TIP3    H158657   2.610   6.687   5.898  0.0192 -0.6776  0.5827
12414TIP3    H258658   2.621   6.667   5.749 -0.2564  0.2623  0.4291
12415TIP3   OH258659   0.214   6.353  15.421  0.4763  0.2302  0.3361
12415TIP3    H158660   0.218   6.444  15.448  0.6950 -0.0139  1.1580
12415TIP3    H258661   0.284   6.310  15.470 -2.0153 -1.1317  3.0547
12416TIP3   OH258662   6.309   1.101  11.554  0.3758  0.2518  0.0283
12416TIP3    H158663   6.251   1.076  11.482 -0.0665 -0.1970  0.5239
12416TIP3    H258664   6.379   1.151  11.513  0.1040  0.0449 -0.7023
12417TIP3   OH258665   6.156   2.837   4.975 -0.5054 -0.7499 -0.6706
12417TIP3    H158666   6.148   2.918   5.025  0.2715  0.1894 -1.9844
12417TIP3    H258667   6.239   2.798   5.005 -2.5145 -3.0150  2.5532
12418TIP3   OH258668   2.837   1.960  13.629 -0.3435  0.0911 -0.4657
12418TIP3    H158669   2.872   2.021  13.694 -0.4996  1.3053 -1.4736
12418TIP3    H258670   2.884   1.981  13.548 -0.3934 -1.1499 -0.8498
12419TIP3   OH258671   2.441   2.658  14.566 -0.1332 -0.0038  0.5530
12419TIP3    H158672   2.425   2.709  14.486  0.3352  1.2163  1.2154
12419TIP3    H258673   2.535   2.663  14.580 -0.2022 -0.2808  1.1485
12420TIP3   OH258674   4.285   6.605  12.389  0.2486 -0.2634  0.2703
12420TIP3    H158675   4.335   6.531  12.422 -0.2306 -0.0286  1.5633
12420TIP3    H258676   4.348   6.654  12.336  0.7817 -1.1473  0.0558
12421TIP3   OH258677   5.247   1.911  16.312  0.2424 -0.0194  0.4671
12421TIP3    H158678   5.222   1.822  16.337 -0.9456 -0.3970 -1.7704
12421TIP3    H258679   5.180   1.966  16.351 -0.0808 -0.3202  0.3521
12422TIP3   OH258680   1.286   6.621  12.292 -0.0127  0.3312 -0.3361
12422TIP3    H158681   1.237   6.626  12.210 -1.7154 -0.6606  0.5627
12422TIP3    H258682   1.349   6.693  12.286 -1.3442  1.4659 -1.7042
12423TIP3   OH258683   3.304   1.216   2.953  0.2956 -0.2171  0.0508
12423TIP3    H158684   3.271   1.291   3.001  0.2184 -0.7157  0.7985
12423TIP3    H258685   3.248   1.210   2.875 -1.1959 -0.8482  1.1250
12424TIP3   OH258686   2.766   5.857   2.782 -0.0819 -0.8877  0.1586
12424TIP3    H158687   2.703   5.910   2.830 -1.6431 -1.9758 -0.6338
12424TIP3    H258688   2.723   5.773   2.770  1.4346 -1.5965 -0.6254
12425TIP3   OH258689   1.354   3.767  14.850 -0.0817 -0.0581  0.3589
12425TIP3    H158690   1.430   3.740  14.798 -2.1378 -0.6562 -2.5663
12425TIP3    H258691   1.296   3.691  14.847 -1.2406  0.7407  1.6975
12426TIP3   OH258692   3.621   3.014  13.940 -0.4226  0.3141 -0.2334
12426TIP3    H158693   3.615   3.076  14.013 -0.9799  0.8732 -0.7434
12426TIP3    H258694   3.576   3.057  13.868 -0.3203 -0.4491 -0.7675
12427TIP3   OH258695   0.655   6.336  14.355 -0.2224 -0.0410  0.3118
12427TIP3    H158696   0.709   6.357  14.432 -0.2452 -1.7893  0.8518
12427TIP3    H258697   0.631   6.244  14.367 -0.8686 -0.1357 -1.4237
12428TIP3   OH258698   5.334   3.019  14.947 -0.1443 -0.1350 -0.2984
12428TIP3    H158699   5.334   2.931  14.910 -0.6368 -0.2058 -0.1422
12428TIP3    H258700   5.283   3.071  14.886 -1.0796 -0.2824  0.3295
12429TIP3   OH258701   5.198   4.883  13.560  0.3429  0.0039  0.0732
12429TIP3    H158702   5.130   4.946  13.535 -0.1070 -1.0154 -1.4270
12429TIP3    H258703   5.280   4.927  13.538  0.0208 -0.0728 -1.3654
12430TIP3   OH258704   5.786   5.829   6.782 -0.2997  0.5703  0.0052
12430TIP3    H158705   5.768   5.924   6.781  0.1482  0.6865  1.4390
12430TIP3    H258706   5.700   5.789   6.787 -0.4876  0.8979 -0.4768
12431TIP3   OH258707   0.401   2.950   5.277 -0.5279  0.1298  0.5181
12431TIP3    H158708   0.337   2.985   5.215 -0.1902 -2.5867 -1.5701
12431TIP3    H258709   0.360   2.871   5.311  0.8895 -0.5406  0.7248
12432TIP3   OH258710   5.301   3.251   4.520  1.1762 -0.5215 -0.2682
12432TIP3    H158711   5.216   3.246   4.563  1.1208 -1.6435 -0.4706
12432TIP3    H258712   5.287   3.305   4.443  0.7547 -0.3134 -0.0450
12433TIP3   OH258713   0.369   4.483   5.590  0.6936 -0.5011  0.0446
12433TIP3    H158714   0.408   4.531   5.516  0.3395 -0.6199 -0.2211
12433TIP3    H258715   0.319   4.549   5.637  0.9557 -0.4156  0.2042
12434TIP3   OH258716   3.474   6.372   3.061 -0.0916  0.1788 -0.1302
12434TIP3    H158717   3.390   6.331   3.042  0.7504 -0.9831 -1.5837
12434TIP3    H258718   3.474   6.453   3.009  0.1845 -0.4734 -1.1736
12435TIP3   OH258719   3.830   5.732   1.582 -0.2148  0.0276 -0.5861
12435TIP3    H158720   3.796   5.694   1.502  0.3016  0.0262 -0.8131
12435TIP3    H258721   3.836   5.658   1.644 -0.4076 -0.0141 -0.6190
12436TIP3   OH258722   4.286   4.987  12.928  0.2070 -0.0511 -0.3086
12436TIP3    H158723   4.311   4.904  12.969 -0.5122 -1.7966 -3.1620
12436TIP3    H258724   4.364   5.013  12.879  0.0090  0.3265 -0.4235
12437TIP3   OH258725   6.688   4.331   3.729  0.6724  0.1152 -0.1359
12437TIP3    H158726   6.619   4.388   3.764  1.9098  1.1377  0.6957
12437TIP3    H258727   6.646   4.244   3.725 -0.9593  0.8749 -0.5798
12438TIP3   OH258728   4.704   6.283   6.168 -0.1766 -0.1366  0.2818
12438TIP3    H158729   4.727   6.202   6.212 -0.7780 -1.3836 -1.5808
12438TIP3    H258730   4.619   6.307   6.205 -0.0900 -0.4679  0.7004
12439TIP3   OH258731   0.107   4.114  17.332 -0.0653 -0.8866 -0.0951
12439TIP3    H158732   0.144   4.191  17.375 -0.9707 -0.8435  0.6283
12439TIP3    H258733   0.116   4.132  17.239 -1.3404  0.6594  0.0336
12440TIP3   OH258734   3.415   2.321   5.423  0.3356  0.3394 -0.5054
12440TIP3    H158735   3.499   2.361   5.443 -0.0058  0.7497  0.1392
12440TIP3    H258736   3.432   2.227   5.426  0.4625  0.3938  1.0377
12441TIP3   OH258737   0.620   4.238   1.290 -0.4904  0.5077  0.3562
12441TIP3    H158738   0.623   4.320   1.339 -0.0496  0.6935  0.0260
12441TIP3    H258739   0.709   4.229   1.255 -0.7320  0.2417 -0.1856
12442TIP3   OH258740   6.443   3.998   4.720  0.8004  0.1636  0.2142
12442TIP3    H158741   6.520   4.036   4.678  0.5138  0.9650  0.4028
12442TIP3    H258742   6.451   3.904   4.704  0.4254  0.4804 -2.0836
12443TIP3   OH258743   5.134   6.585  17.196  0.2448  0.4746 -0.3539
12443TIP3    H158744   5.160   6.619  17.282 -2.0405 -4.5399  2.7496
12443TIP3    H258745   5.040   6.602  17.191 -0.2990 -2.1102 -0.1604
12444TIP3   OH258746   0.056   2.913   2.617  0.0298  0.1941  0.2498
12444TIP3    H158747   0.064   2.969   2.540  0.0867 -2.2296 -1.6134
12444TIP3    H258748  -0.038   2.911   2.636 -0.1800 -0.3877 -0.7563
12445TIP3   OH258749   0.695   5.465   6.427  0.2304 -0.0059 -0.6287
12445TIP3    H158750   0.666   5.510   6.348  1.5202  1.8866 -0.0851
12445TIP3    H258751   0.632   5.489   6.494 -0.4084 -0.9626 -0.8658
12446TIP3   OH258752   5.779   4.661  16.526 -0.1141  0.3810  0.0557
12446TIP3    H158753   5.801   4.568  16.532 -4.4107 -0.9160 -1.0448
12446TIP3    H258754   5.790   4.682  16.433  0.0222  0.7550  0.1543
12447TIP3   OH258755   5.427   4.155  14.549  0.1977 -0.5757  0.3772
12447TIP3    H158756   5.341   4.139  14.510  0.7953 -0.8662 -0.8648
12447TIP3    H258757   5.445   4.077  14.601  0.0214 -0.8364  0.0486
12448TIP3   OH258758   3.720   2.575  15.041 -0.3117 -0.0807 -1.2237
12448TIP3    H158759   3.772   2.546  14.967  2.7357 -0.2014  0.8105
12448TIP3    H258760   3.770   2.647  15.079 -1.4030 -0.4686  1.1194
12449TIP3   OH258761   3.126   6.413   0.221 -0.3957 -0.3953  0.3931
12449TIP3    H158762   3.053   6.373   0.269  0.2083  1.0783  2.6958
12449TIP3    H258763   3.085   6.483   0.170 -0.8849 -1.1884 -0.3381
12450TIP3   OH258764   3.834   2.356  12.276  0.2056  0.4275 -0.3214
12450TIP3    H158765   3.900   2.288  12.292 -0.4277 -0.0105  0.4836
12450TIP3    H258766   3.765   2.338  12.340 -0.0001  1.7895 -0.1403
12451TIP3   OH258767   1.219   2.966  11.273  0.1179  0.0496 -0.1391
12451TIP3    H158768   1.143   2.908  11.269  0.1586  0.0626 -2.2276
12451TIP3    H258769   1.280   2.930  11.208  1.1002  1.1160  0.1702
12452TIP3   OH258770   6.112   0.288   3.407  0.3388 -0.1986 -0.4179
12452TIP3    H158771   6.142   0.267   3.319  0.9134  0.0184 -0.2815
12452TIP3    H258772   6.118   0.206   3.455  0.3856 -0.2333 -0.4829
12453TIP3   OH258773   3.919   4.582   3.359  0.0305  0.2014 -0.3507
12453TIP3    H158774   3.967   4.634   3.295  1.6419 -0.2251  0.4616
12453TIP3    H258775   3.973   4.584   3.438 -0.4278 -1.7257  0.0686
12454TIP3   OH258776   2.487   2.982  15.045 -0.1971  0.2529 -0.6705
12454TIP3    H158777   2.510   3.070  15.077  0.3618  0.2769 -1.1278
12454TIP3    H258778   2.398   2.991  15.012 -0.2060  0.6100 -0.5531
12455TIP3   OH258779   5.834   0.894  12.668 -0.0890  0.6026 -0.1060
12455TIP3    H158780   5.777   0.821  12.690 -0.0683  0.3995 -0.7160
12455TIP3    H258781   5.880   0.915  12.750  0.7671 -0.8144 -0.1933
12456TIP3   OH258782   3.863   5.036   6.492  0.7825 -0.1661  0.0828
12456TIP3    H158783   3.944   5.066   6.533  1.0062  0.2931 -0.6754
12456TIP3    H258784   3.807   5.114   6.491  0.0406 -0.6738  1.2985
12457TIP3   OH258785   4.738   1.488  11.781 -0.8639  0.1227 -0.4964
12457TIP3    H158786   4.829   1.462  11.771 -0.7302  0.1776  0.4754
12457TIP3    H258787   4.734   1.576  11.742 -0.2993  0.4717  0.2059
12458TIP3   OH258788   1.487   3.802   5.044  0.7038  0.3123 -0.4982
12458TIP3    H158789   1.553   3.734   5.060 -1.0108 -1.2834  0.1263
12458TIP3    H258790   1.444   3.774   4.963  0.0066  0.6740 -0.2567
12459TIP3   OH258791   1.055   4.759   0.998 -0.1273  0.0015 -0.0416
12459TIP3    H158792   0.972   4.734   1.038  0.6429 -0.2063  1.5359
12459TIP3    H258793   1.034   4.835   0.944 -1.2248  0.4552  0.9642
12460TIP3   OH258794   2.106   4.322  12.556 -0.0401 -0.4687 -0.1583
12460TIP3    H158795   2.036   4.387  12.551  1.3539  1.1226  0.2894
12460TIP3    H258796   2.119   4.294  12.465  1.0984  1.8774 -0.7899
12461TIP3   OH258797   2.484   1.437  13.996  0.0871  0.2186 -0.0461
12461TIP3    H158798   2.464   1.380  14.070 -3.0355 -1.0813 -1.6947
12461TIP3    H258799   2.473   1.526  14.030 -0.3323 -0.3203  1.2855
12462TIP3   OH258800   2.428   2.214  12.677 -0.1348 -0.1333 -0.4633
12462TIP3    H158801   2.442   2.305  12.703  3.7431 -0.7965  0.4145
12462TIP3    H258802   2.368   2.179  12.744 -0.3403  1.3466  0.1621
12463TIP3   OH258803   5.057   4.666  16.799  0.3286  0.1622 -0.4398
12463TIP3    H158804   5.006   4.593  16.834  1.2772 -0.3087 -0.0203
12463TIP3    H258805   5.138   4.666  16.849  2.0507 -0.9667 -3.0412
12464TIP3   OH258806   1.862   5.415   4.428 -0.4844 -0.4650  0.0680
12464TIP3    H158807   1.866   5.353   4.501 -0.8148 -0.6773 -0.0930
12464TIP3    H258808   1.791   5.383   4.373 -0.5510 -0.0362 -0.1025
12465TIP3   OH258809   5.808   1.657  15.140  0.3131  0.2994  0.8538
12465TIP3    H158810   5.848   1.734  15.100  2.2095 -0.8537  0.4455
12465TIP3    H258811   5.775   1.689  15.224 -1.4578  2.1620 -0.4506
12466TIP3   OH258812   1.280   0.797   6.509  0.2306 -0.1718  0.3113
12466TIP3    H158813   1.213   0.730   6.520 -0.8093  0.7588 -0.0969
12466TIP3    H258814   1.347   0.757   6.453 -1.5941 -0.0775 -2.0905
12467TIP3   OH258815   0.246   4.210  14.259  0.3250 -0.5200 -0.0249
12467TIP3    H158816   0.322   4.267  14.271 -0.6333  1.2475 -1.7338
12467TIP3    H258817   0.284   4.123  14.245  2.0588  0.3256 -0.9394
12468TIP3   OH258818   5.673   3.284  15.915  0.2227 -0.0925  0.5321
12468TIP3    H158819   5.720   3.201  15.906  2.0491  0.8695  0.7079
12468TIP3    H258820   5.633   3.299  15.829 -1.6050 -1.9342  0.9773
12469TIP3   OH258821   2.513   0.749   2.141 -0.1853 -0.1119  0.2510
12469TIP3    H158822   2.474   0.808   2.077  0.0646  0.5598  0.7130
12469TIP3    H258823   2.439   0.703   2.180 -0.3398 -0.5052 -0.4950
12470TIP3   OH258824   1.304   4.355  13.781  0.7237  0.0459  0.4481
12470TIP3    H158825   1.299   4.386  13.690  0.7006  1.5240  0.9210
12470TIP3    H258826   1.226   4.300  13.791  1.1421 -0.7933 -0.6387
12471TIP3   OH258827   2.042   3.373   5.886  0.1343 -0.0492 -0.6021
12471TIP3    H158828   2.003   3.319   5.955  1.3791  0.9679  0.9984
12471TIP3    H258829   2.085   3.311   5.828 -0.3468 -0.9069 -0.0638
12472TIP3   OH258830   0.525   4.336  13.784  0.8475 -0.5538 -0.2583
12472TIP3    H158831   0.605   4.387  13.798  2.5652 -2.8843 -1.0340
12472TIP3    H258832   0.550   4.246  13.803 -1.6919 -1.3538 -0.3129
12473TIP3   OH258833   4.414   3.355  12.170 -0.6008  0.3133 -0.1086
12473TIP3    H158834   4.405   3.366  12.264  0.6343 -2.9751  0.5174
12473TIP3    H258835   4.490   3.298  12.159 -0.0252  1.4390 -3.1934
12474TIP3   OH258836   0.841   0.613  13.568  0.3632 -0.0886  0.1993
12474TIP3    H158837   0.935   0.605  13.586  0.4360 -0.7543 -0.4705
12474TIP3    H258838   0.836   0.640  13.476 -0.0903  0.7046  0.4424
12475TIP3   OH258839   5.552   3.077   2.326  0.0520  0.0255 -0.0668
12475TIP3    H158840   5.489   3.100   2.257  1.1239 -1.5942 -1.6959
12475TIP3    H258841   5.624   3.138   2.313 -0.3972  0.7337  0.6658
12476TIP3   OH258842   1.848   6.474   4.385 -0.4117  0.3765 -0.1005
12476TIP3    H158843   1.909   6.449   4.316 -0.7682 -0.7963 -0.0170
12476TIP3    H258844   1.786   6.401   4.389 -0.3123  0.3556  1.5529
12477TIP3   OH258845   4.740   6.224  11.016 -0.1140 -0.0972 -0.0316
12477TIP3    H158846   4.706   6.287  11.080 -2.3191  0.6412 -1.7944
12477TIP3    H258847   4.817   6.267  10.979 -0.4177  0.6889  0.2221
12478TIP3   OH258848   3.508   1.682  15.134 -0.7163  0.6026  0.3895
12478TIP3    H158849   3.564   1.609  15.160  0.3254  1.4154  0.5018
12478TIP3    H258850   3.540   1.706  15.047 -2.3819 -0.3475 -0.5304
12479TIP3   OH258851   2.172   0.494   4.479 -0.3978 -0.4468  0.0763
12479TIP3    H158852   2.154   0.401   4.466 -1.7209 -0.1175 -0.6554
12479TIP3    H258853   2.166   0.532   4.391  0.3154  0.3055  0.3386
12480TIP3   OH258854   2.541   5.976   3.544  0.0822  0.8526 -0.1243
12480TIP3    H158855   2.518   6.053   3.491 -0.3080  1.2105  0.5482
12480TIP3    H258856   2.470   5.968   3.606 -1.4490 -1.8322 -2.0017
12481TIP3   OH258857   2.964   4.407   2.041  0.2906  0.1781  0.6328
12481TIP3    H158858   2.916   4.345   2.095 -0.0222 -0.4212 -0.3068
12481TIP3    H258859   2.999   4.354   1.969 -0.0562  1.0915 -0.2326
12482TIP3   OH258860   5.680   5.320   5.919 -0.0612  0.6444 -0.0668
12482TIP3    H158861   5.747   5.259   5.889  0.1809  0.6694  0.4123
12482TIP3    H258862   5.612   5.263   5.957  0.7278  0.6963  1.5255
12483TIP3   OH258863   2.842   4.418  15.568  0.1044 -0.3380 -0.2904
12483TIP3    H158864   2.803   4.357  15.506 -0.0583  1.4326 -2.0298
12483TIP3    H258865   2.918   4.454  15.522  0.1682  0.8159  0.6521
12484TIP3   OH258866   4.080   0.079   5.453 -0.5604  0.4093 -0.4712
12484TIP3    H158867   4.022   0.145   5.492 -3.5658 -2.4783  0.4537
12484TIP3    H258868   4.025   0.035   5.388  2.2137  0.5766 -3.1609
12485TIP3   OH258869   0.340   1.767   6.265  0.0497 -0.2147 -0.0994
12485TIP3    H158870   0.314   1.675   6.271  1.8565 -0.7605  0.0265
12485TIP3    H258871   0.294   1.800   6.188  0.7986 -1.7584 -1.2713
12486TIP3   OH258872   5.876   5.010   5.491 -0.0526 -0.1308  0.0024
12486TIP3    H158873   5.959   5.055   5.510 -0.4080  0.4374  0.2549
12486TIP3    H258874   5.816   5.042   5.559  0.0173 -1.9861  0.9757
12487TIP3   OH258875   0.017   5.502  15.881 -0.1097 -0.3066  0.2321
12487TIP3    H158876   0.019   5.580  15.937 -3.9615 -1.4662  2.3024
12487TIP3    H258877  -0.001   5.430  15.940  0.8756 -2.4810 -1.9462
12488TIP3   OH258878   4.843   6.366  14.490  0.2666 -0.3351  0.5584
12488TIP3    H158879   4.762   6.390  14.444  0.7473 -0.2805 -0.2898
12488TIP3    H258880   4.869   6.283  14.450  2.7958  1.5509 -2.2034
12489TIP3   OH258881   5.773   6.710  13.231 -0.3468 -0.0117  0.2880
12489TIP3    H158882   5.756   6.630  13.281 -0.1596 -0.6685 -0.6678
12489TIP3    H258883   5.868   6.721  13.236 -0.3821  0.2045  0.4947
12490TIP3   OH258884   6.660   1.535  16.055 -0.3648 -0.8707  0.3020
12490TIP3    H158885   6.628   1.520  16.144 -0.1693 -0.8719  0.3741
12490TIP3    H258886   6.633   1.458  16.006 -2.0006 -0.0941 -0.0688
12491TIP3   OH258887   2.206   3.873   4.820  0.4817  0.0460  0.1855
12491TIP3    H158888   2.216   3.781   4.846  2.6150  0.9498  3.1279
12491TIP3    H258889   2.147   3.910   4.885 -1.5104  0.5518 -1.8064
12492TIP3   OH258890   1.004   3.168   0.648 -0.1750  0.0650 -0.0128
12492TIP3    H158891   1.034   3.202   0.733  0.7491  0.2846 -0.4226
12492TIP3    H258892   1.084   3.155   0.597 -0.7631  0.5349 -1.0839
12493TIP3   OH258893   5.236   0.792   5.437 -0.2538  0.5644 -0.0994
12493TIP3    H158894   5.249   0.710   5.389 -0.3567  0.1906  0.5067
12493TIP3    H258895   5.217   0.857   5.369 -0.8216 -0.0478 -0.5337
12494TIP3   OH258896   5.801   4.172   4.341  0.3677  0.3301  0.3719
12494TIP3    H158897   5.730   4.192   4.403 -0.3096  0.3080 -0.3725
12494TIP3    H258898   5.864   4.242   4.353 -0.9182  1.7424 -0.6113
12495TIP3   OH258899   3.386   6.549   0.544 -0.4922 -0.6724 -0.4362
12495TIP3    H158900   3.351   6.617   0.487  0.1977 -0.2305 -0.3444
12495TIP3    H258901   3.385   6.588   0.632  1.4399 -0.1351 -0.6065
12496TIP3   OH258902   5.097   2.165   1.071 -0.2184  0.0571 -0.3567
12496TIP3    H158903   5.132   2.229   1.009  1.2941  1.1632  1.4904
12496TIP3    H258904   5.004   2.187   1.078 -0.3293  0.1619 -1.8896
12497TIP3   OH258905   3.116   4.111  16.962 -0.0685 -0.7591 -0.7198
12497TIP3    H158906   3.069   4.126  16.880  1.0289  2.7653 -0.8370
12497TIP3    H258907   3.203   4.148  16.948 -0.1805  0.9753  2.3219
12498TIP3   OH258908   1.656   2.506   0.344  0.4472 -0.5200 -0.1405
12498TIP3    H158909   1.599   2.514   0.420 -0.5891  1.3967 -1.0395
12498TIP3    H258910   1.735   2.555   0.367  0.7806 -1.2445  0.2630
12499TIP3   OH258911   2.723   0.219   3.956  0.4281 -1.4205  0.8804
12499TIP3    H158912   2.793   0.221   4.021 -0.4535 -0.7735  1.8233
12499TIP3    H258913   2.695   0.310   3.947  1.5843 -1.2251 -1.5947
12500TIP3   OH258914   2.516   5.340  16.004 -0.0655  0.1400  0.1799
12500TIP3    H158915   2.445   5.342  16.068  1.7656  0.4667  2.3177
12500TIP3    H258916   2.555   5.427  16.008  2.1721 -0.8115  1.1930
12501TIP3   OH258917   5.042   6.501  12.970 -0.1521 -0.0443  0.2768
12501TIP3    H158918   5.050   6.596  12.979 -1.7103  0.0645  0.8418
12501TIP3    H258919   5.072   6.483  12.881 -0.2214  1.0283  0.0176
12502TIP3   OH258920   4.597   2.639   5.964 -0.2514 -0.4026 -0.0816
12502TIP3    H158921   4.594   2.593   5.879  0.1924  0.9667 -0.8676
12502TIP3    H258922   4.506   2.640   5.993 -0.4297 -0.7876 -0.5917
12503TIP3   OH258923   6.698   3.446   1.271  0.2847 -0.5183  0.0785
12503TIP3    H158924   6.728   3.435   1.362  0.5324 -0.9808 -0.0568
12503TIP3    H258925   6.648   3.367   1.253 -0.4077 -0.0795  0.0570
12504TIP3   OH258926   2.182   1.216  11.952  0.0008 -0.1151 -0.3708
12504TIP3    H158927   2.142   1.298  11.921 -1.3335 -0.0033  1.4660
12504TIP3    H258928   2.271   1.219  11.919 -0.5000  1.2897 -1.7349
12505TIP3   OH258929   2.684   1.603   1.198 -0.3421  0.3939  0.1752
12505TIP3    H158930   2.592   1.577   1.206 -0.1344 -0.2691  0.5483
12505TIP3    H258931   2.683   1.678   1.139 -1.1971  0.8520  0.7449
12506TIP3   OH258932   0.408   4.071   3.554 -0.2206  0.7730  0.2066
12506TIP3    H158933   0.418   4.085   3.459  2.8126  0.6348  0.3976
12506TIP3    H258934   0.438   3.982   3.568 -1.9112  0.3288  1.1941
12507TIP3   OH258935   0.752   2.709   0.635 -0.3326  0.0195  0.2766
12507TIP3    H158936   0.814   2.642   0.607 -1.1888 -0.1763 -1.2469
12507TIP3    H258937   0.681   2.661   0.677 -1.1039 -0.0968 -1.1066
12508TIP3   OH258938   1.087   4.189  15.554  0.6703  0.2452 -0.6861
12508TIP3    H158939   1.108   4.162  15.644  1.2170  0.2290 -0.8141
12508TIP3    H258940   1.154   4.146  15.500  0.7803  0.8309 -1.0271
12509TIP3   OH258941   4.659   1.128   5.578 -0.2620 -0.1892 -0.2799
12509TIP3    H158942   4.754   1.113   5.580 -0.3871 -1.1567 -0.8016
12509TIP3    H258943   4.645   1.189   5.506 -0.0769 -0.4022 -0.4963
12510TIP3   OH258944   4.406   0.915   5.207 -0.0750 -0.7540 -0.4148
12510TIP3    H158945   4.443   0.960   5.131  0.6915 -0.8578 -0.1056
12510TIP3    H258946   4.374   0.832   5.173  0.8442 -1.0717 -0.5052
12511TIP3   OH258947   0.954   4.842  15.949 -0.5058 -0.2167 -0.1843
12511TIP3    H158948   0.860   4.836  15.931 -0.2874  0.4198 -1.6701
12511TIP3    H258949   0.981   4.924  15.909  0.6204 -0.1770  0.6034
12512TIP3   OH258950   4.038   0.528   2.417 -0.4228 -0.2354 -0.2026
12512TIP3    H158951   4.028   0.491   2.329  0.3068 -0.3988 -0.2276
12512TIP3    H258952   3.949   0.547   2.446 -0.6562  0.0005 -1.0523
12513TIP3   OH258953   6.270   0.808   4.922 -0.1884  0.1359  0.0187
12513TIP3    H158954   6.240   0.887   4.966  0.8673  0.4653  0.1674
12513TIP3    H258955   6.356   0.789   4.961  0.7212  0.3554 -1.7716
12514TIP3   OH258956   3.410   6.204   5.913 -0.1147  0.0290 -0.4977
12514TIP3    H158957   3.468   6.260   5.964 -0.2707 -0.4748  0.2452
12514TIP3    H258958   3.353   6.162   5.978 -0.8673  0.0058 -1.1542
12515TIP3   OH258959   0.148   2.400   4.450  0.2313 -0.0773 -0.2580
12515TIP3    H158960   0.071   2.365   4.497  0.1336  0.7725  0.2303
12515TIP3    H258961   0.120   2.486   4.420  0.7956 -0.0207 -0.6256
12516TIP3   OH258962   2.204   4.518  16.402  0.2548  0.5234  0.2749
12516TIP3    H158963   2.168   4.562  16.325 -0.8122  0.3075  0.6384
12516TIP3    H258964   2.299   4.524  16.390  0.1369 -0.5416 -1.6689
12517TIP3   OH258965   4.582   3.157  14.029  0.1507 -0.1898  0.3015
12517TIP3    H158966   4.593   3.244  14.067  2.3753 -0.5932  0.7191
12517TIP3    H258967   4.508   3.120  14.076  0.0382  0.9828  1.0914
12518TIP3   OH258968   0.067   6.277   0.204  0.3616 -0.2648 -0.3920
12518TIP3    H158969   0.128   6.203   0.193  1.0435  0.3568 -0.8847
12518TIP3    H258970   0.033   6.267   0.293 -0.3193 -1.7374 -0.7814
12519TIP3   OH258971   2.830   0.304   1.173 -0.2063  0.2795  0.7110
12519TIP3    H158972   2.906   0.315   1.117  0.2944 -0.9649  1.1212
12519TIP3    H258973   2.755   0.313   1.114  0.3130 -1.2550 -0.2311
12520TIP3   OH258974   4.412   0.514   2.768 -0.5389  0.4447  0.1665
12520TIP3    H158975   4.469   0.499   2.693 -0.1408 -0.3321  0.6159
12520TIP3    H258976   4.327   0.535   2.729 -1.1085 -2.7093 -0.5668
12521TIP3   OH258977   2.992   6.541   1.656 -0.1325 -0.1448 -0.4103
12521TIP3    H158978   3.003   6.478   1.727  3.1860  1.1766  0.4577
12521TIP3    H258979   2.898   6.544   1.641 -0.6807 -2.9589  1.5982
12522TIP3   OH258980   2.837   0.958   2.022  0.0829 -0.1562 -0.2390
12522TIP3    H158981   2.841   0.877   1.971  0.7472  1.3082 -2.6521
12522TIP3    H258982   2.757   1.002   1.993 -0.0752  0.2510  0.7611
12523TIP3   OH258983   2.224   0.592  11.787 -0.3960 -0.4694 -0.0772
12523TIP3    H158984   2.184   0.508  11.765  0.0986 -0.6687 -0.2422
12523TIP3    H258985   2.306   0.592  11.737 -0.1054 -0.1567  0.4011
12524TIP3   OH258986   1.981   3.378  12.791  0.0562 -0.0580 -0.2969
12524TIP3    H158987   2.035   3.375  12.711 -0.4018  0.1826 -0.6214
12524TIP3    H258988   1.917   3.447  12.773 -1.3134 -1.3508 -0.5195
12525TIP3   OH258989   2.973   1.320  16.519 -0.4205  0.0848 -0.2392
12525TIP3    H158990   3.066   1.301  16.515 -0.4628 -0.8241  1.7607
12525TIP3    H258991   2.930   1.237  16.497 -0.7021 -0.0264  0.6668
12526TIP3   OH258992   2.819   3.896  15.616  0.5468 -0.1693 -0.4899
12526TIP3    H158993   2.809   3.886  15.710 -1.6730  3.0215 -0.2162
12526TIP3    H258994   2.907   3.932  15.605  0.1967  1.1226  0.6147
12527TIP3   OH258995   1.898   1.683   4.302 -0.0651  0.3392 -0.0835
12527TIP3    H158996   1.830   1.738   4.340 -0.3086  0.9945 -1.4108
12527TIP3    H258997   1.862   1.654   4.218  0.8547 -0.1965 -0.3083
12528TIP3   OH258998   5.893   2.329   2.446 -0.2952  0.5804 -0.1184
12528TIP3    H158999   5.913   2.261   2.510  1.2997  1.2598  0.1353
12528TIP3    H259000   5.925   2.294   2.363 -2.5812 -0.4053 -0.6619
12529TIP3   OH259001   0.099   1.171  11.795  0.4727 -0.0897 -0.1400
12529TIP3    H159002   0.157   1.097  11.811 -0.3072 -1.1770 -2.0748
12529TIP3    H259003   0.011   1.137  11.810  0.1394  0.6525 -0.3429
12530TIP3   OH259004   1.855   1.628   5.526 -0.1485  0.6324 -0.5537
12530TIP3    H159005   1.887   1.545   5.489 -1.7365 -0.6643  0.8533
12530TIP3    H259006   1.765   1.635   5.495 -0.3375  1.3533  0.1237
12531TIP3   OH259007   5.879   5.838  11.881  0.4268 -0.4109 -0.1795
12531TIP3    H159008   5.904   5.840  11.789  1.5938  1.5912  0.1315
12531TIP3    H259009   5.869   5.745  11.901  3.1525 -1.1017 -1.5636
12532TIP3   OH259010   1.979   1.303  13.715  0.0511  0.7452 -0.2253
12532TIP3    H159011   1.944   1.226  13.670 -1.4102 -1.1664  3.7244
12532TIP3    H259012   2.064   1.273  13.750  0.0569  1.3454  0.2808
12533TIP3   OH259013   6.050   5.459  13.688 -0.1291  0.0949  0.1751
12533TIP3    H159014   6.039   5.509  13.769  0.5142 -0.4102  0.5788
12533TIP3    H259015   6.055   5.368  13.716  0.1915 -0.0753 -0.4247
12534TIP3   OH259016   1.513   4.646   1.232 -0.1937  0.1449  0.3413
12534TIP3    H159017   1.554   4.571   1.188 -0.4674  1.1583 -1.7559
12534TIP3    H259018   1.578   4.716   1.228 -0.2051  0.2638  1.6565
12535TIP3   OH259019   1.039   4.940   6.681  0.0653 -0.1988  0.5609
12535TIP3    H159020   1.126   4.904   6.663  1.2351  1.9663  1.4807
12535TIP3    H259021   1.001   4.881   6.745  1.0336 -0.9331  0.4803
12536TIP3   OH259022   4.024   6.646   0.608  0.3076  0.3203 -0.4989
12536TIP3    H159023   4.050   6.571   0.662  2.0781  0.4896 -1.0570
12536TIP3    H259024   4.065   6.721   0.652 -0.3900  0.7929 -0.6513
12537TIP3   OH259025   0.980   0.085   5.683  0.4564  0.4381 -0.3204
12537TIP3    H159026   0.906   0.065   5.741  0.7696  2.1348  0.7533
12537TIP3    H259027   1.006   0.174   5.708  3.7619 -0.5633  0.3338
12538TIP3   OH259028   2.495   0.793   4.318  0.0110 -0.5722  0.3767
12538TIP3    H159029   2.542   0.871   4.349 -1.2035  0.5574 -0.4803
12538TIP3    H259030   2.430   0.776   4.386 -0.5294 -0.0646 -0.0002
12539TIP3   OH259031   2.149   0.760  17.385  0.2368 -0.6236  0.3042
12539TIP3    H159032   2.084   0.822  17.418  1.5604  0.7289  0.4931
12539TIP3    H259033   2.099   0.696  17.335 -1.1543  0.7987 -0.1933
12540TIP3   OH259034   5.835   3.552   2.337  0.3326  0.0005  0.1700
12540TIP3    H159035   5.752   3.519   2.371  0.8464 -0.7092  0.7812
12540TIP3    H259036   5.832   3.646   2.353  0.5245 -0.2961  2.2107
12541TIP3   OH259037   0.958   2.412   5.301  0.0333 -0.7017 -0.5389
12541TIP3    H159038   0.949   2.318   5.320  1.4474 -0.7088  0.2139
12541TIP3    H259039   0.870   2.439   5.274 -0.4257 -2.2159 -0.6543
12542TIP3   OH259040   4.362   2.644  17.112  0.8718 -0.0830 -0.1617
12542TIP3    H159041   4.432   2.656  17.048  2.6019  2.0297  1.9505
12542TIP3    H259042   4.406   2.609  17.189 -0.9846 -1.5710  0.3038
12543TIP3   OH259043   4.892   3.660  13.002 -0.4574 -0.1405 -0.8296
12543TIP3    H159044   4.890   3.616  13.087  3.0782  1.7699  0.4621
12543TIP3    H259045   4.930   3.595  12.943  0.0286 -0.4785 -0.1572
12544TIP3   OH259046   4.000   2.152   0.755  0.3989 -0.7231  0.0161
12544TIP3    H159047   4.007   2.066   0.795  1.4345 -0.4273  0.5170
12544TIP3    H259048   3.909   2.159   0.729  0.1591 -1.7258  0.5298
12545TIP3   OH259049   5.641   2.067  12.656  0.0063 -0.4197 -0.2893
12545TIP3    H159050   5.641   2.010  12.580 -0.8456 -0.7916 -0.0281
12545TIP3    H259051   5.592   2.144  12.628 -2.1658 -1.4357  0.4676
12546TIP3   OH259052   4.037   0.491  15.740 -0.2154  0.6057  0.8081
12546TIP3    H159053   4.132   0.481  15.735  0.0326  2.8665 -3.5012
12546TIP3    H259054   4.021   0.526  15.828  2.7229 -0.8579  2.0537
12547TIP3   OH259055   1.911   0.507  14.607 -0.2519  0.1638  0.3024
12547TIP3    H159056   1.949   0.419  14.600  1.0559  0.7838 -1.2769
12547TIP3    H259057   1.955   0.546  14.683 -0.4057 -0.3424  0.6581
12548TIP3   OH259058   0.493   5.925  16.613 -0.5005 -0.2621 -0.5282
12548TIP3    H159059   0.557   5.853  16.614  0.5277  0.6187  0.0275
12548TIP3    H259060   0.536   5.995  16.663 -1.8944  0.3832 -0.1938
12549TIP3   OH259061   4.354   3.122  11.481  0.3576  0.3239  0.3984
12549TIP3    H159062   4.266   3.089  11.463 -0.6749  1.6549  2.4645
12549TIP3    H259063   4.408   3.044  11.490 -0.2536 -0.4916 -2.2584
12550TIP3   OH259064   1.607   5.741   3.919 -0.1104  0.5962 -0.2523
12550TIP3    H159065   1.549   5.817   3.921 -1.7376 -0.6032  0.5586
12550TIP3    H259066   1.551   5.669   3.889  0.6622 -0.8137  1.4991
12551TIP3   OH259067   1.078   4.017   1.125 -0.1272 -0.5342 -0.2735
12551TIP3    H159068   1.059   3.983   1.038 -1.4575  3.5717 -1.8601
12551TIP3    H259069   1.160   3.974   1.151  0.0421 -2.2796 -3.3054
12552TIP3   OH259070   5.044   5.127  16.406 -0.2269 -0.5168  0.2624
12552TIP3    H159071   5.073   5.065  16.473 -2.1486  0.4376  2.0761
12552TIP3    H259072   5.037   5.211  16.451  2.3995  1.1960 -2.1495
12553TIP3   OH259073   6.367   0.735   3.972  0.4440 -0.5754  0.1346
12553TIP3    H159074   6.320   0.704   3.895  0.1563  0.3271 -0.0719
12553TIP3    H259075   6.379   0.658   4.027  0.3605 -1.1622 -0.6635
12554TIP3   OH259076   1.766   4.219   3.828 -0.4491 -0.0086 -0.4221
12554TIP3    H159077   1.817   4.241   3.906 -0.8179 -0.1060 -0.1487
12554TIP3    H259078   1.797   4.132   3.803  0.2356  0.3572 -0.8586
12555TIP3   OH259079   0.760   0.164   3.718  0.3242  1.0248  0.1263
12555TIP3    H159080   0.821   0.151   3.646 -0.1879  3.2888 -0.8157
12555TIP3    H259081   0.746   0.076   3.755  1.7765  0.0368 -1.5416
12556TIP3   OH259082   2.592   2.628   1.748  0.2058  0.0735 -0.2581
12556TIP3    H159083   2.543   2.710   1.741 -1.8714 -0.8806  1.6891
12556TIP3    H259084   2.615   2.606   1.658 -2.0866  1.1489 -1.2008
12557TIP3   OH259085   2.280   0.076  12.109  0.3856 -0.5754 -0.2379
12557TIP3    H159086   2.362   0.121  12.132 -0.1021 -0.0215  0.4588
12557TIP3    H259087   2.294  -0.015  12.138  0.8985 -0.5821 -0.4879
12558TIP3   OH259088   4.449   1.839   4.115  0.1111  0.1283  0.2129
12558TIP3    H159089   4.466   1.790   4.035  3.4231 -0.8408  1.3586
12558TIP3    H259090   4.425   1.773   4.179  0.9868  0.4219  0.8650
12559TIP3   OH259091   5.739   6.623  11.052 -0.6238 -0.1197 -0.3067
12559TIP3    H159092   5.687   6.703  11.053 -2.1895 -1.0408  2.1754
12559TIP3    H259093   5.682   6.558  11.012  0.5245 -0.1198 -2.0246
12560TIP3   OH259094   1.672   5.314  13.021  0.0560  0.0276 -0.0914
12560TIP3    H159095   1.644   5.341  13.109 -2.4798 -0.5653 -0.6129
12560TIP3    H259096   1.699   5.223  13.032 -1.9280 -0.6195 -0.1460
12561TIP3   OH259097   5.037   1.983   6.616 -0.1167 -0.3650 -0.4817
12561TIP3    H159098   5.041   1.912   6.679  0.4048  0.8893  0.9400
12561TIP3    H259099   4.943   1.999   6.604 -0.2297  0.2656  1.0351
12562TIP3   OH259100   4.074   3.817   3.436  0.0390  0.1251  0.0474
12562TIP3    H159101   3.984   3.782   3.440 -0.2285  0.8483  0.5821
12562TIP3    H259102   4.064   3.910   3.454  1.0676 -0.0468  1.7314
12563TIP3   OH259103   0.846   0.305   4.199  0.9435 -0.2729  0.2193
12563TIP3    H159104   0.820   0.329   4.110  0.4744 -0.8922  0.1801
12563TIP3    H259105   0.931   0.262   4.188 -0.2976 -2.7881 -0.2993
12564TIP3   OH259106   1.202   3.366   1.295  0.0713 -0.3021  0.2119
12564TIP3    H159107   1.255   3.380   1.217 -2.1318 -0.6096 -1.4385
12564TIP3    H259108   1.157   3.450   1.309 -1.1414 -0.8620 -0.1682
12565TIP3   OH259109   1.716   2.992  14.064 -0.6162  0.0974 -0.0723
12565TIP3    H159110   1.702   3.031  14.150 -0.1920 -0.2457  0.1587
12565TIP3    H259111   1.677   3.054  14.002  0.7360  1.2753  0.2174
12566TIP3   OH259112   5.677   4.477   5.247  0.3619 -0.6028  0.6111
12566TIP3    H159113   5.608   4.543   5.260 -0.3927 -1.2538 -0.0147
12566TIP3    H259114   5.702   4.487   5.156  0.0823 -1.3270  0.4521
12567TIP3   OH259115   5.098   4.498  16.464 -0.3379  0.1316 -0.2321
12567TIP3    H159116   5.073   4.590  16.471  0.1272  0.4650 -2.3719
12567TIP3    H259117   5.024   4.456  16.419 -0.6116 -0.5908  0.8590
12568TIP3   OH259118   3.968   0.112   3.939  0.8962 -0.2328 -0.3122
12568TIP3    H159119   3.985   0.021   3.915  0.0001 -0.6347  0.5181
12568TIP3    H259120   3.908   0.144   3.871  0.5799 -0.5079 -0.1646
12569TIP3   OH259121   2.235   0.259  15.635  0.2417  0.3812  0.5513
12569TIP3    H159122   2.203   0.206  15.562  1.1145 -1.9797  1.7712
12569TIP3    H259123   2.264   0.340  15.594 -1.7807  0.2470 -1.3407
12570TIP3   OH259124   6.601   3.047   2.404  0.4758  0.0021  0.5796
12570TIP3    H159125   6.516   3.006   2.422  0.2661  0.6213  1.0383
12570TIP3    H259126   6.613   3.037   2.309  0.8217 -1.8371  0.7926
12571TIP3   OH259127   4.450   3.106  13.492  0.0152  0.1403 -0.3305
12571TIP3    H159128   4.428   3.147  13.576 -1.2927 -1.0319 -0.0506
12571TIP3    H259129   4.535   3.142  13.468  0.8966 -0.2284  1.9997
12572TIP3   OH259130   2.657   6.022   4.724 -0.1263  0.1042 -0.8904
12572TIP3    H159131   2.713   5.966   4.670 -2.8188 -3.0173 -0.7903
12572TIP3    H259132   2.616   6.082   4.661  1.5626  0.9650 -1.2485
12573TIP3   OH259133   0.790   0.321   2.876  0.0024  0.3348 -0.2073
12573TIP3    H159134   0.861   0.369   2.919  0.0957  0.8114 -0.8823
12573TIP3    H259135   0.780   0.363   2.791  0.1589 -0.8951 -0.8637
12574TIP3   OH259136   5.446   3.567  12.970 -0.0666  0.0649 -0.1699
12574TIP3    H159137   5.481   3.570  13.059 -1.9431  2.0764  0.5944
12574TIP3    H259138   5.418   3.476  12.959 -1.7012  0.1885  2.1719
12575TIP3   OH259139   5.620   6.176  14.123  0.0610  0.2929 -0.1268
12575TIP3    H159140   5.644   6.177  14.030 -1.7631  0.5169 -0.6545
12575TIP3    H259141   5.552   6.243  14.130  1.2796  1.4181  1.7413
12576TIP3   OH259142   1.682   6.666   6.638  0.0804  0.5457 -0.0649
12576TIP3    H159143   1.670   6.577   6.606  0.3953  0.8250 -0.9769
12576TIP3    H259144   1.612   6.716   6.598  0.3683  0.8636 -0.1757
12577TIP3   OH259145   3.102   6.490  13.222 -0.4187  0.5615  0.0798
12577TIP3    H159146   3.140   6.475  13.135 -0.3676 -0.4559  0.2713
12577TIP3    H259147   3.177   6.503  13.280 -0.4621  3.9593 -0.4482
12578TIP3   OH259148   0.498   3.720  14.416  0.2209 -0.3063  0.1242
12578TIP3    H159149   0.560   3.778  14.371 -1.8949  1.7536 -0.3224
12578TIP3    H259150   0.546   3.688  14.492  3.0201 -1.7364 -2.0700
12579TIP3   OH259151   1.253   2.079   1.328 -0.2238 -0.1774  0.4163
12579TIP3    H159152   1.202   2.030   1.393 -0.0176 -0.2572  0.5187
12579TIP3    H259153   1.338   2.037   1.328 -0.2889 -0.3140 -0.0631
12580TIP3   OH259154   5.025   1.790   4.653  0.3963  0.1672 -1.1366
12580TIP3    H159155   5.048   1.700   4.630 -0.5936 -0.4242  0.0330
12580TIP3    H259156   5.099   1.843   4.623  1.8663 -1.2664 -0.2101
12581TIP3   OH259157   5.907   3.973  13.003 -0.4860  0.1472  0.2680
12581TIP3    H159158   5.971   3.910  12.970 -0.9432 -0.3635  0.3228
12581TIP3    H259159   5.951   4.015  13.077 -0.4984 -0.7927  0.8344
12582TIP3   OH259160   5.738   0.683  15.599  0.3563 -0.5180 -0.1277
12582TIP3    H159161   5.727   0.613  15.536  1.1674 -0.1873 -0.6439
12582TIP3    H259162   5.781   0.642  15.674  0.5192 -0.6433 -0.2908
12583TIP3   OH259163   4.199   3.479  17.164 -0.4904 -0.2046  0.1475
12583TIP3    H159164   4.126   3.436  17.121 -0.2013  0.3302 -0.9033
12583TIP3    H259165   4.242   3.410  17.214 -0.6493 -0.9016 -0.6736
12584TIP3   OH259166   3.745   0.834  10.842  0.4477  0.1394 -0.9963
12584TIP3    H159167   3.655   0.816  10.814  0.7149 -0.6402 -1.3582
12584TIP3    H259168   3.751   0.930  10.840 -1.1929  0.4172  1.6148
12585TIP3   OH259169   5.501   0.438  14.300 -0.1914  0.2717  0.2030
12585TIP3    H159170   5.440   0.368  14.276 -0.0771 -0.4070  1.7848
12585TIP3    H259171   5.462   0.479  14.377  0.4782  0.9824  0.1750
12586TIP3   OH259172   5.412   2.101  14.601 -0.5753  0.0678 -0.0176
12586TIP3    H159173   5.390   2.021  14.649 -2.3946  0.2666 -0.4388
12586TIP3    H259174   5.351   2.101  14.527  0.2120  1.2489 -0.6902
12587TIP3   OH259175   5.375   2.029  12.014  0.0538 -0.1482 -0.4060
12587TIP3    H159176   5.368   2.009  11.921 -2.5121 -1.8569  0.0648
12587TIP3    H259177   5.468   2.019  12.034  0.8746  1.4788 -2.9633
12588TIP3   OH259178   2.407   0.122  14.309  0.5375  0.0595  0.7423
12588TIP3    H159179   2.314   0.142  14.301  1.1197  2.7134 -0.5140
12588TIP3    H259180   2.429   0.142  14.400  0.0735  0.3287  0.7955
12589TIP3   OH259181   2.972   3.030  11.757 -0.2986  0.2797  0.4203
12589TIP3    H159182   2.976   3.110  11.706 -0.4216 -0.3639 -0.6369
12589TIP3    H259183   2.890   2.988  11.730 -0.5844  0.1185  1.4710
12590TIP3   OH259184   3.243   5.537   3.946 -0.5399  0.2354 -0.5388
12590TIP3    H159185   3.240   5.615   3.890 -0.4410  0.3397 -0.4006
12590TIP3    H259186   3.335   5.530   3.972 -0.6465  0.3739 -0.1271
12591TIP3   OH259187   3.753   1.930   4.566  0.2564 -0.5181  0.4640
12591TIP3    H159188   3.767   1.836   4.569 -1.5997 -0.9867 -1.9361
12591TIP3    H259189   3.677   1.945   4.623 -0.0335 -0.6558  0.1227
12592TIP3   OH259190   1.134   0.067   4.573  0.2109  0.0093 -0.7449
12592TIP3    H159191   1.084   0.092   4.651  0.1048  2.2616 -1.4523
12592TIP3    H259192   1.068   0.043   4.509  0.1416  0.7405 -0.9552
12593TIP3   OH259193   5.077   6.140   3.847 -0.4137 -0.1957  0.5228
12593TIP3    H159194   5.123   6.137   3.763  0.4430 -2.7373  1.0099
12593TIP3    H259195   5.070   6.234   3.867  1.0649  0.4024 -1.4449
12594TIP3   OH259196   1.849   2.362  16.628  0.0042  0.4286  0.3656
12594TIP3    H159197   1.823   2.364  16.536  1.1494 -0.3627  0.0109
12594TIP3    H259198   1.858   2.269  16.648  2.7129  0.6258  0.3895
12595TIP3   OH259199   6.603   5.403  12.053  0.2352  0.6366 -0.1454
12595TIP3    H159200   6.587   5.492  12.083  1.6858  0.0247  2.8191
12595TIP3    H259201   6.677   5.411  11.993 -1.2912  1.6457 -2.0101
12596TIP3   OH259202   5.883   0.524  12.986  0.6709 -0.7415  0.5937
12596TIP3    H159203   5.892   0.492  12.897 -1.5983 -0.0529  0.0485
12596TIP3    H259204   5.966   0.568  13.004  1.8148 -2.3195 -0.5271
12597TIP3   OH259205   6.384   5.696   4.692  0.6449 -0.2379 -0.1284
12597TIP3    H159206   6.364   5.732   4.778 -0.3736  1.3652 -0.9945
12597TIP3    H259207   6.353   5.762   4.630 -2.0916 -2.8690 -1.8600
12598TIP3   OH259208   5.120   2.721  12.831 -0.4629 -0.0756  0.4535
12598TIP3    H159209   5.061   2.682  12.895 -0.9994 -3.3655 -1.8358
12598TIP3    H259210   5.074   2.800  12.802 -1.2779  0.1988  2.2965
12599TIP3   OH259211   4.095   1.881  11.597  0.2538 -0.3769 -0.2626
12599TIP3    H159212   4.112   1.788  11.613 -2.1381 -0.7776  0.3172
12599TIP3    H259213   4.094   1.889  11.502  0.5503 -0.9338 -0.3186
12600TIP3   OH259214   5.860   2.056   2.561  0.0701 -0.7590  0.1492
12600TIP3    H159215   5.817   2.008   2.632 -0.5616  0.4214  0.5845
12600TIP3    H259216   5.953   2.043   2.577 -0.0542 -3.1925 -0.6927
12601TIP3   OH259217   1.361   1.319   5.140 -0.0082  0.2924  0.1005
12601TIP3    H159218   1.299   1.310   5.068 -1.8287  1.5088  1.4278
12601TIP3    H259219   1.433   1.370   5.104 -0.7140  0.5617 -0.9602
12602TIP3   OH259220   2.624   1.541  12.398 -0.0824  0.1900 -0.3009
12602TIP3    H159221   2.638   1.586  12.315  0.4767  0.0176 -0.3021
12602TIP3    H259222   2.591   1.609  12.457 -0.2258  0.3705 -0.5891
12603TIP3   OH259223   3.838   5.424   2.596 -0.6514  0.5414  0.5637
12603TIP3    H159224   3.798   5.508   2.619 -0.6363  0.2066  1.8438
12603TIP3    H259225   3.822   5.367   2.671 -0.1997 -0.4505 -0.0668
12604TIP3   OH259226   1.225   3.481  12.215 -0.2843 -0.2021 -0.8725
12604TIP3    H159227   1.173   3.403  12.233  0.3795 -0.0725  2.0998
12604TIP3    H259228   1.164   3.554  12.224 -0.2208 -0.2141 -0.3061
12605TIP3   OH259229   2.847   1.149  11.869  0.0174 -0.0770  0.5691
12605TIP3    H159230   2.891   1.090  11.930  0.0590 -0.4577  0.1689
12605TIP3    H259231   2.757   1.155  11.903  0.2738  0.4164  1.1776
12606TIP3   OH259232   2.465   5.118  13.677 -0.0289 -0.1666  0.4409
12606TIP3    H159233   2.488   5.122  13.585 -1.3059 -0.7455  0.0778
12606TIP3    H259234   2.466   5.025  13.699  2.2047  0.0460  1.5624
12607TIP3   OH259235   5.991   3.187   4.159 -0.2540  0.1378 -0.6666
12607TIP3    H159236   6.038   3.202   4.077 -0.9335  0.2777 -1.0387
12607TIP3    H259237   5.979   3.274   4.197  0.8708 -0.0005  0.0566
12608TIP3   OH259238   3.922   3.035  16.249  0.6329  0.0982 -0.0174
12608TIP3    H159239   3.860   3.094  16.207 -0.2607 -1.2356 -0.6591
12608TIP3    H259240   3.948   3.080  16.329 -1.9633  0.3177  0.8024
12609TIP3   OH259241   6.739   5.548   0.297 -0.9282  0.4526  0.2076
12609TIP3    H159242   6.757   5.621   0.238 -1.5863 -0.2751 -0.9320
12609TIP3    H259243   6.745   5.586   0.385 -2.1055  2.0763 -0.3734
12610TIP3   OH259244   0.234   0.000   4.140  0.2787 -0.2718  0.3859
12610TIP3    H159245   0.261   0.055   4.067 -0.2475  0.0584  0.4264
12610TIP3    H259246   0.161   0.048   4.179 -0.6567 -1.3354  0.0025
12611TIP3   OH259247   1.045   4.561   3.168 -0.0392  0.3598 -0.5868
12611TIP3    H159248   1.057   4.522   3.081 -1.8716  1.9675 -1.6408
12611TIP3    H259249   1.073   4.492   3.229  1.7422 -0.6486 -2.4224
12612TIP3   OH259250   4.811   3.458   4.647  0.2931 -0.0558 -0.2902
12612TIP3    H159251   4.798   3.373   4.690 -2.3693 -0.4813 -1.7544
12612TIP3    H259252   4.906   3.464   4.636  0.6588 -2.2453  1.0144
12613TIP3   OH259253   3.222   1.787   3.203 -0.5991  0.0541 -0.2273
12613TIP3    H159254   3.295   1.784   3.265 -0.3130  1.2187 -0.4940
12613TIP3    H259255   3.239   1.714   3.143 -1.1471 -1.3974  1.3288
12614TIP3   OH259256   0.290   2.024  12.336  0.3554 -0.8658  0.2423
12614TIP3    H159257   0.232   1.959  12.375  0.7986  0.2557  2.9855
12614TIP3    H259258   0.370   1.976  12.315 -0.2529 -1.6887 -0.2501
12615TIP3   OH259259   3.407   1.127   5.013  0.0745 -0.2984  0.5556
12615TIP3    H159260   3.443   1.215   5.001 -0.8407  0.3112  1.9909
12615TIP3    H259261   3.408   1.114   5.108 -3.7455 -0.0710  0.7655
12616TIP3   OH259262   0.207   4.012  14.857 -0.1464  0.4451  0.4293
12616TIP3    H159263   0.196   4.060  14.775  0.3859  0.3600  0.3021
12616TIP3    H259264   0.208   4.079  14.924 -0.2387  0.5443  0.3315
12617TIP3   OH259265   1.911   5.324  15.518  0.3335 -0.0979  0.4329
12617TIP3    H159266   1.931   5.291  15.430 -0.9293 -0.1704  0.1546
12617TIP3    H259267   1.992   5.311  15.567  1.2831  0.5436 -0.8788
12618TIP3   OH259268   3.344   1.209   5.937 -0.4411  0.2824  0.3584
12618TIP3    H159269   3.400   1.135   5.916  1.3259  0.9680  2.2961
12618TIP3    H259270   3.258   1.170   5.953  0.1893 -1.2120  0.2681
12619TIP3   OH259271   5.619   2.483  10.725  0.2717 -0.0512 -0.0776
12619TIP3    H159272   5.693   2.439  10.767  0.4097  0.1592 -0.0986
12619TIP3    H259273   5.594   2.424  10.654 -0.0321 -0.4618  0.3616
12620TIP3   OH259274   4.385   6.478  15.961  0.2664  0.1273 -0.2104
12620TIP3    H159275   4.388   6.552  16.022  1.6734  0.3035 -0.4624
12620TIP3    H259276   4.307   6.494  15.908  0.7195  1.6134 -0.4762
12621TIP3   OH259277   2.691   4.303   3.298  0.1599 -0.5038 -0.0395
12621TIP3    H159278   2.761   4.276   3.356  1.1052 -0.5993 -1.1872
12621TIP3    H259279   2.735   4.342   3.223 -1.0621  0.9876 -0.0401
12622TIP3   OH259280   2.816   0.647   5.748 -0.3541 -0.2642  0.0448
12622TIP3    H159281   2.791   0.597   5.825  2.8820 -1.2948  0.5460
12622TIP3    H259282   2.880   0.710   5.779 -1.1707  1.3574 -1.3516
12623TIP3   OH259283   6.540   2.655   1.512 -0.2501 -0.6638  0.6194
12623TIP3    H159284   6.562   2.659   1.605 -0.3589  0.5904  0.6141
12623TIP3    H259285   6.572   2.738   1.477 -1.4926 -0.4903 -0.1736
12624TIP3   OH259286   6.197   1.459   3.283 -0.5139  0.3845  0.8889
12624TIP3    H159287   6.158   1.465   3.371  0.1297 -0.1810  1.2237
12624TIP3    H259288   6.141   1.397   3.237  0.4373 -1.1150  1.6484
12625TIP3   OH259289   2.374   0.858   0.950  0.2612 -0.2816 -0.2366
12625TIP3    H159290   2.431   0.782   0.935 -2.4033 -2.4305 -0.2095
12625TIP3    H259291   2.309   0.827   1.013 -1.9591  1.4353 -1.5469
12626TIP3   OH259292   5.550   3.748   5.769  0.7222 -0.1445 -0.3238
12626TIP3    H159293   5.529   3.798   5.690 -1.5465  0.4180  0.5606
12626TIP3    H259294   5.589   3.812   5.828  0.1011  0.0194 -0.0880
12627TIP3   OH259295   0.914   0.159   5.360  0.3234  0.0901  0.4809
12627TIP3    H159296   0.883   0.071   5.382 -2.5307  0.5872 -0.9402
12627TIP3    H259297   0.878   0.175   5.272  2.3253  2.0136 -0.0868
12628TIP3   OH259298   6.381   2.578  12.706  0.4105 -1.0025 -0.1570
12628TIP3    H159299   6.416   2.506  12.758 -0.1883 -0.4189  1.0937
12628TIP3    H259300   6.291   2.589  12.737  0.4432  0.2003 -0.4203
12629TIP3   OH259301   5.025   0.108  16.521  0.3240  0.3465 -0.2623
12629TIP3    H159302   4.993   0.169  16.454  1.4197 -0.9089 -2.0237
12629TIP3    H259303   5.119   0.125  16.525  0.4409 -0.3635  0.1561
12630TIP3   OH259304   1.951   4.165   0.576 -0.2462 -0.1054 -0.2224
12630TIP3    H159305   1.963   4.124   0.490 -0.7714 -1.2826  0.2426
12630TIP3    H259306   2.031   4.144   0.625 -0.7055 -0.9828  0.1667
12631TIP3   OH259307   6.615   1.464   4.736 -0.5619  0.4509  0.5770
12631TIP3    H159308   6.699   1.469   4.691 -0.9143  0.6429 -0.0651
12631TIP3    H259309   6.630   1.403   4.808  0.0700  0.3274  0.3471
12632TIP3   OH259310   1.387   6.137   5.880  0.2174 -0.2482 -0.2659
12632TIP3    H159311   1.445   6.207   5.911  1.3436 -1.4883  0.5064
12632TIP3    H259312   1.299   6.167   5.903  0.4558  1.8910 -1.8743
12633TIP3   OH259313   4.041   6.454  14.104  1.1365 -0.1009 -0.5597
12633TIP3    H159314   4.136   6.457  14.115  1.1615 -0.5109 -0.6204
12633TIP3    H259315   4.020   6.361  14.112  0.6910  0.0384 -0.1508
12634TIP3   OH259316   5.260   2.052   3.664  0.3986 -0.7834  0.2622
12634TIP3    H159317   5.288   2.134   3.704  3.0105 -0.8486 -1.2338
12634TIP3    H259318   5.212   2.078   3.585  1.8428 -0.6487 -0.5980
12635TIP3   OH259319   4.502   6.584   4.453  0.0581 -0.0787  0.1876
12635TIP3    H159320   4.482   6.677   4.460  0.2668  0.1922 -2.0991
12635TIP3    H259321   4.520   6.556   4.543 -2.2674  1.5435  1.2662
12636TIP3   OH259322   4.448   0.882  16.607 -0.0500 -0.4266  0.2503
12636TIP3    H159323   4.460   0.850  16.518 -2.8371 -0.4570 -0.2298
12636TIP3    H259324   4.440   0.803  16.661  1.9274 -0.4091  0.6346
12637TIP3   OH259325   6.163   3.966   2.243 -0.5232 -0.4401  0.6668
12637TIP3    H159326   6.125   4.040   2.290 -0.3381  1.4690 -1.9476
12637TIP3    H259327   6.248   3.952   2.285 -0.0681  1.6203  0.5169
12638TIP3   OH259328   4.060   6.032  11.818  0.0917  0.6486  0.5640
12638TIP3    H159329   4.128   6.088  11.857  0.4236 -0.1946  1.2156
12638TIP3    H259330   3.980   6.084  11.826  0.5305  1.3636  0.4233
12639TIP3   OH259331   6.150   1.688   1.343  0.1860  0.4038 -0.6670
12639TIP3    H159332   6.245   1.691   1.354  0.0849  0.7099  0.2020
12639TIP3    H259333   6.115   1.700   1.432 -0.6450 -1.5025 -0.6738
12640TIP3   OH259334   5.733   1.287  13.570  0.4342 -0.2426 -0.4263
12640TIP3    H159335   5.716   1.227  13.497 -1.8107 -0.6059  0.3242
12640TIP3    H259336   5.811   1.251  13.612 -0.1949 -2.0236 -0.6778
12641TIP3   OH259337   4.165   2.134  13.314 -0.3311 -0.1084 -0.3890
12641TIP3    H159338   4.113   2.075  13.260  0.8554 -0.6133 -1.0192
12641TIP3    H259339   4.255   2.120  13.284  0.4636 -0.8604  2.0975
12642TIP3   OH259340   1.315   2.260  17.233  0.0183  0.4221  0.8811
12642TIP3    H159341   1.332   2.273  17.326  1.5697  4.9185  0.2490
12642TIP3    H259342   1.389   2.207  17.202 -0.4782 -1.0435  2.1120
12643TIP3   OH259343   0.965   6.057   0.063 -0.3770 -0.0598  0.2373
12643TIP3    H159344   0.917   5.988   0.110  0.3626  0.0290  1.1506
12643TIP3    H259345   1.034   6.011   0.017  0.3634  0.0905  1.1667
12644TIP3   OH259346   3.544   5.318   4.531 -0.4180 -0.4703  0.1359
12644TIP3    H159347   3.613   5.360   4.583  0.5073 -0.9160 -0.7032
12644TIP3    H259348   3.484   5.282   4.596  0.0960 -0.0170  0.8828
12645TIP3   OH259349   6.076   3.254  14.809 -0.4690  0.3655  0.0594
12645TIP3    H159350   5.989   3.226  14.780 -1.5007  1.1661  2.1954
12645TIP3    H259351   6.103   3.187  14.872  1.2819 -0.7919 -1.7680
12646TIP3   OH259352   1.169   3.718  13.024 -0.0379 -0.4982 -0.2642
12646TIP3    H159353   1.233   3.686  13.087  0.3432  0.0299 -0.3774
12646TIP3    H259354   1.100   3.652  13.025  0.2698 -0.8223  0.2262
12647TIP3   OH259355   5.355   1.019  12.063 -0.0501  0.0346  0.0358
12647TIP3    H159356   5.264   1.006  12.091  0.0513 -1.8093 -0.3143
12647TIP3    H259357   5.406   1.005  12.143 -0.0351 -0.0366  0.0148
12648TIP3   OH259358   0.855   0.338   2.086 -0.2543  0.2550  1.0850
12648TIP3    H159359   0.892   0.252   2.064  2.9755  1.8698 -0.3968
12648TIP3    H259360   0.790   0.354   2.017  0.3512 -0.3040  0.3595
12649TIP3   OH259361   3.406   5.191   3.197 -0.1465 -0.4161 -0.2062
12649TIP3    H159362   3.465   5.118   3.178  0.0932  0.0297 -1.2178
12649TIP3    H259363   3.375   5.174   3.286  1.1454 -0.9032  0.1675
12650TIP3   OH259364   2.723   3.176   3.632 -0.0599  0.3265 -0.2516
12650TIP3    H159365   2.778   3.119   3.686 -1.1285 -0.8182 -0.3276
12650TIP3    H259366   2.681   3.118   3.569 -1.2618  1.1627 -0.2731
12651TIP3   OH259367   0.124   0.347  11.582 -0.1898  0.2009  0.3753
12651TIP3    H159368   0.120   0.270  11.525 -1.2566  2.0267 -2.2252
12651TIP3    H259369   0.033   0.364  11.606  0.1100  0.2653  1.5223
12652TIP3   OH259370   6.531   5.901  16.975  0.0739 -0.1046  0.6703
12652TIP3    H159371   6.496   5.930  17.060 -0.5395  0.0616  0.3678
12652TIP3    H259372   6.519   5.807  16.975 -1.4658  0.0619  0.1085
12653TIP3   OH259373   6.749   6.275   2.869  0.4568 -0.0618 -0.6874
12653TIP3    H159374   6.662   6.265   2.830 -0.1434  0.9429  0.3218
12653TIP3    H259375   6.753   6.368   2.893  0.7311 -0.6346  1.7128
12654TIP3   OH259376   0.748   1.214   2.082 -0.1410  0.0645  0.2890
12654TIP3    H159377   0.815   1.175   2.026 -2.4843 -0.8637 -2.0555
12654TIP3    H259378   0.755   1.308   2.067  1.0108  0.0593  0.6278
12655TIP3   OH259379   2.073   0.410   0.898 -0.6154  1.3214  0.2656
12655TIP3    H159380   2.097   0.388   0.807  0.6361  1.9081  0.4270
12655TIP3    H259381   2.112   0.339   0.950  1.3487  2.5391  0.5754
12656TIP3   OH259382   0.624   2.220   5.787 -0.0206  0.1561  0.0880
12656TIP3    H159383   0.719   2.234   5.791  0.2481 -1.5818  2.5137
12656TIP3    H259384   0.587   2.295   5.834  0.4471 -0.7161  1.9392
12657TIP3   OH259385   6.521   3.138   6.526  0.0138  0.4310  0.3145
12657TIP3    H159386   6.601   3.133   6.578  0.6332 -0.4755 -0.6965
12657TIP3    H259387   6.489   3.048   6.521 -0.4607  0.6237 -0.2318
12658TIP3   OH259388   1.249   0.670  10.791 -0.1140  0.1021 -0.0410
12658TIP3    H159389   1.284   0.750  10.752 -0.9412  0.2794 -0.4329
12658TIP3    H259390   1.284   0.600  10.737  2.7153 -0.0542  1.7817
12659TIP3   OH259391   5.023   0.685  12.795  0.0437 -0.0939 -0.0599
12659TIP3    H159392   5.090   0.643  12.851  1.0705  3.2906  1.5160
12659TIP3    H259393   5.074   0.733  12.729 -0.7867  1.7408  0.5648
12660TIP3   OH259394   5.964   4.629  13.068  0.2480 -0.2205  0.6700
12660TIP3    H159395   5.908   4.684  13.012  1.5378 -0.2429 -0.7013
12660TIP3    H259396   5.965   4.544  13.023 -1.1859 -1.2404  2.4100
12661TIP3   OH259397   5.673   5.819  13.200  0.1659 -0.5013  0.4009
12661TIP3    H159398   5.598   5.836  13.144 -1.4671  1.6447  3.0293
12661TIP3    H259399   5.725   5.899  13.198  0.2398 -0.4853  1.6439
12662TIP3   OH259400   3.225   0.222   5.165 -1.0322  0.2252 -0.0044
12662TIP3    H159401   3.155   0.286   5.172 -2.0559 -0.8998  0.4756
12662TIP3    H259402   3.297   0.258   5.217 -1.8071  0.7034  0.7543
12663TIP3   OH259403   1.709   6.741  12.966  0.1439  0.1196 -0.4301
12663TIP3    H159404   1.634   6.800  12.964  0.0049 -0.0708 -1.5015
12663TIP3    H259405   1.680   6.667  13.019 -0.2589  0.2535 -0.4586
12664TIP3   OH259406   4.016   1.297   2.204 -0.0497  0.6455  0.1904
12664TIP3    H159407   3.972   1.360   2.146  1.1889 -0.0166 -1.5588
12664TIP3    H259408   4.025   1.218   2.151  1.1398  0.0100  1.2934
12665TIP3   OH259409   0.386   2.142   0.031  0.2020  0.4085  0.4393
12665TIP3    H159410   0.395   2.046   0.029  1.0801  0.4968 -1.2629
12665TIP3    H259411   0.315   2.158   0.094 -1.4862 -1.4898 -0.8516
12666TIP3   OH259412   4.336   0.370   0.911 -0.0865  0.1349 -0.3488
12666TIP3    H159413   4.372   0.283   0.896  1.3153  0.3106  1.6464
12666TIP3    H259414   4.243   0.362   0.890  0.1316 -1.6987 -0.7094
12667TIP3   OH259415   0.482   2.045   5.305  0.2472 -0.3386  0.0002
12667TIP3    H159416   0.463   2.019   5.396 -1.7298  3.1756  0.7903
12667TIP3    H259417   0.396   2.065   5.268  1.3051  3.1992 -0.8906
12668TIP3   OH259418   4.575   5.799   5.743  0.4275  0.2710 -0.9528
12668TIP3    H159419   4.535   5.840   5.666 -2.2669  2.2785  1.3015
12668TIP3    H259420   4.614   5.872   5.792  2.6177 -1.0313 -0.5844
12669TIP3   OH259421   4.807   5.646  16.133 -0.0977 -0.4765  0.0307
12669TIP3    H159422   4.872   5.707  16.098 -1.7757  0.4360 -1.6725
12669TIP3    H259423   4.741   5.702  16.173 -0.2951 -1.3385  0.9444
12670TIP3   OH259424   0.107   6.410  12.864  0.0594  0.0604  0.6069
12670TIP3    H159425   0.097   6.337  12.926 -1.6006 -0.6244 -0.3773
12670TIP3    H259426   0.017   6.440  12.848  0.6135  1.4652 -0.0234
12671TIP3   OH259427   1.644   3.188  13.112  0.1125 -0.7862  0.1373
12671TIP3    H159428   1.726   3.237  13.112  0.8694 -1.9846  0.5123
12671TIP3    H259429   1.607   3.202  13.025 -0.3755  1.4668  0.6457
12672TIP3   OH259430   1.046   4.922   3.870  0.0751  0.5232  0.7120
12672TIP3    H159431   0.951   4.928   3.860 -0.0584 -1.4538  0.3738
12672TIP3    H259432   1.081   4.971   3.796 -0.6000  2.9784  1.9286
12673TIP3   OH259433   2.713   2.754  12.932  0.3845  0.4644  0.4124
12673TIP3    H159434   2.696   2.747  13.026 -0.0598  2.2087  0.5067
12673TIP3    H259435   2.627   2.744  12.891  0.5609 -0.1880  0.1934
12674TIP3   OH259436   3.266   2.024  14.604 -0.4067 -0.7218  0.1563
12674TIP3    H159437   3.250   1.956  14.539 -3.0776 -0.3444  0.3166
12674TIP3    H259438   3.288   2.102  14.552  0.8110 -1.2067 -0.0966
12675TIP3   OH259439   2.350   2.345  16.159 -0.8532  0.4360  0.2636
12675TIP3    H159440   2.366   2.433  16.124 -0.1480  0.2357  0.0564
12675TIP3    H259441   2.370   2.353  16.253 -1.4753  0.6593  0.3827
12676TIP3   OH259442   3.773   1.906  13.242 -0.7032 -0.3968  0.1690
12676TIP3    H159443   3.722   1.982  13.215 -0.3905 -0.1506  0.2528
12676TIP3    H259444   3.732   1.832  13.198 -0.2170 -0.0108 -0.9729
12677TIP3   OH259445   5.790   2.305  10.849 -0.0945 -0.2909 -0.8715
12677TIP3    H159446   5.785   2.245  10.923  0.4706  1.2445  0.4774
12677TIP3    H259447   5.832   2.255  10.779 -0.3816 -1.6909 -0.0689
12678TIP3   OH259448   4.493   3.293   2.805 -0.4582 -0.2169 -0.0418
12678TIP3    H159449   4.493   3.296   2.901 -1.7119  0.9415 -0.0409
12678TIP3    H259450   4.584   3.310   2.780  0.4750 -3.1735  0.9360
12679TIP3   OH259451   3.998   4.953   3.225 -0.1741  0.0927 -0.4364
12679TIP3    H159452   3.976   4.860   3.219  1.3089 -0.1998 -1.9213
12679TIP3    H259453   3.914   4.997   3.239 -0.8950 -1.4458  0.3097
12680TIP3   OH259454   3.918   2.826  16.053  0.4652 -0.0067  0.4185
12680TIP3    H159455   3.944   2.915  16.031 -0.3470 -0.3747 -2.5932
12680TIP3    H259456   3.822   2.827  16.046  0.3549 -0.8513  1.5902
12681TIP3   OH259457   5.551   0.043   1.664 -0.1001 -0.3639 -0.3185
12681TIP3    H159458   5.482  -0.005   1.616 -1.0577  1.0367 -0.4113
12681TIP3    H259459   5.607   0.079   1.595  2.3070 -3.5435 -0.2391
12682TIP3   OH259460   6.382   6.550   3.653 -0.5540 -0.3547 -0.4046
12682TIP3    H159461   6.429   6.559   3.570 -0.2395 -2.6535 -0.5279
12682TIP3    H259462   6.302   6.503   3.631 -0.7913 -0.3938  0.5029
12683TIP3   OH259463   1.889   2.658  15.530  0.7084  0.3551  0.5433
12683TIP3    H159464   1.894   2.564  15.547  1.1021  0.4385  0.9141
12683TIP3    H259465   1.836   2.666  15.451 -1.6317 -0.0220  1.9722
12684TIP3   OH259466   1.654   0.709   0.559  0.0014  0.0725  0.5178
12684TIP3    H159467   1.742   0.698   0.594 -0.1293  0.0944  0.8698
12684TIP3    H259468   1.630   0.623   0.525 -0.2388 -0.2214  1.3903
12685TIP3   OH259469   3.403   1.535  16.913  0.2912 -0.1514 -0.0387
12685TIP3    H159470   3.346   1.570  16.981  0.5669 -0.2064  0.2235
12685TIP3    H259471   3.449   1.612  16.878 -0.6894  0.0352 -0.9614
12686TIP3   OH259472   3.917   3.959   1.198 -0.2028 -0.4518  0.2915
12686TIP3    H159473   3.940   3.867   1.206 -2.1563 -0.8831  2.1643
12686TIP3    H259474   3.823   3.959   1.181 -0.3155  1.1842  0.6968
12687TIP3   OH259475   2.774   1.719   2.920 -0.5995  0.3776 -1.1756
12687TIP3    H159476   2.758   1.659   2.993 -1.2087  1.1238 -0.6765
12687TIP3    H259477   2.687   1.741   2.887 -0.4294  1.5226 -0.8961
12688TIP3   OH259478   3.092   6.108  12.753  0.0151  0.3317 -0.5702
12688TIP3    H159479   3.037   6.030  12.764 -0.7766  0.9539  0.1013
12688TIP3    H259480   3.164   6.095  12.814 -0.3561  0.3256 -0.1267
12689TIP3   OH259481   2.936   3.931   4.349 -0.0324 -0.2604 -0.2967
12689TIP3    H159482   2.979   4.013   4.371 -1.1673  0.7422 -1.6440
12689TIP3    H259483   2.872   3.917   4.418  1.5663 -1.1570  1.0828
12690TIP3   OH259484   4.885   3.488  13.229 -0.2087 -0.3262 -0.0142
12690TIP3    H159485   4.805   3.454  13.268  0.5167 -1.1026  0.8609
12690TIP3    H259486   4.940   3.411  13.217  1.5013  0.4582  2.0632
12691TIP3   OH259487   0.595   4.001  13.530  0.2335 -0.1078 -0.4071
12691TIP3    H159488   0.566   3.921  13.572  1.1254 -0.5383 -0.5864
12691TIP3    H259489   0.679   3.979  13.490  0.8904  1.1243  0.2182
12692TIP3   OH259490   3.106   2.633  16.355 -0.3122 -0.0278  0.5660
12692TIP3    H159491   3.180   2.672  16.309  0.0736 -0.8311  0.4925
12692TIP3    H259492   3.029   2.670  16.312  0.0448  0.7122  0.5539
12693TIP3   OH259493   4.236   3.500  16.614  0.1390 -0.2310  0.0979
12693TIP3    H159494   4.256   3.408  16.634 -0.7618 -0.3926  0.2987
12693TIP3    H259495   4.317   3.547  16.634  0.6245 -0.9862 -0.0497
12694TIP3   OH259496   2.671   3.839  11.940 -0.0143  0.0220 -0.4464
12694TIP3    H159497   2.667   3.850  11.845 -0.4556 -1.1285 -0.5752
12694TIP3    H259498   2.629   3.918  11.975 -0.2229  0.2622 -1.2129
12695TIP3   OH259499   3.876   0.778  17.244 -0.2384  0.9425  0.5293
12695TIP3    H159500   3.805   0.841  17.251 -0.8558  0.4268 -0.7298
12695TIP3    H259501   3.838   0.705  17.195  1.7016  1.5290 -2.0682
12696TIP3   OH259502   5.481   2.613  13.183 -0.2904  0.3631  0.6694
12696TIP3    H159503   5.453   2.662  13.260  0.5194  1.6715  0.1726
12696TIP3    H259504   5.415   2.633  13.117  0.9324  2.3002 -0.0689
12697TIP3   OH259505   0.181   0.496   2.174  0.0815  0.3269  0.1408
12697TIP3    H159506   0.256   0.444   2.144  1.3441  2.3028 -0.2792
12697TIP3    H259507   0.213   0.541   2.253  0.4408  3.5113 -1.6827
12698TIP3   OH259508   5.408   2.229  13.960 -0.4324 -0.4296 -0.1171
12698TIP3    H159509   5.456   2.213  14.041 -0.8507 -0.7270  0.0748
12698TIP3    H259510   5.414   2.147  13.911  0.5954  0.0371 -0.8018
12699TIP3   OH259511   4.559   4.473   4.229 -0.0461 -0.3724 -0.2542
12699TIP3    H159512   4.601   4.424   4.159  1.0710  0.7091 -0.3696
12699TIP3    H259513   4.596   4.561   4.224 -0.0581 -0.2076  1.5725
12700TIP3   OH259514   6.450   0.598   0.869  0.0616 -0.1885  0.0930
12700TIP3    H159515   6.396   0.561   0.799  1.5127 -2.4095  0.0489
12700TIP3    H259516   6.392   0.601   0.945 -0.2379 -2.2932 -0.0108
12701TIP3   OH259517   6.743   4.084  13.519 -0.4659  0.0468 -0.6092
12701TIP3    H159518   6.702   4.158  13.474  0.7713  0.6977 -0.7108
12701TIP3    H259519   6.837   4.102  13.514 -0.1708 -1.2621 -0.1538
12702TIP3   OH259520   6.523   4.113   1.402 -0.3929  0.1056  0.2256
12702TIP3    H159521   6.562   4.193   1.365  0.3439 -1.1446 -1.8742
12702TIP3    H259522   6.594   4.049   1.402 -2.2940 -2.5135 -4.4866
12703TIP3   OH259523   5.952   4.213  11.248 -0.2841 -0.1855  0.5342
12703TIP3    H159524   6.034   4.231  11.294  1.4888 -2.2844 -1.5498
12703TIP3    H259525   5.947   4.282  11.181  0.2365 -0.5005  0.1579
12704TIP3   OH259526   5.218   1.467   2.810  0.1482  0.1401 -0.2433
12704TIP3    H159527   5.197   1.485   2.719  1.4550 -0.0580 -0.6115
12704TIP3    H259528   5.178   1.382   2.828 -1.9058  1.1263  0.0325
12705TIP3   OH259529   5.488   6.325  14.353  0.3129  0.0600  0.4037
12705TIP3    H159530   5.497   6.230  14.357  0.3838  0.0594  0.2284
12705TIP3    H259531   5.447   6.341  14.268 -0.9104  0.0950  0.9917
12706TIP3   OH259532   4.401   3.284   2.354  0.6626 -0.6377 -0.2772
12706TIP3    H159533   4.447   3.358   2.395  0.3472 -0.5081 -0.1553
12706TIP3    H259534   4.420   3.294   2.261 -0.5914  0.4705 -0.4476
12707TIP3   OH259535   1.442   4.837  15.408 -0.1911  0.0083  0.2382
12707TIP3    H159536   1.391   4.918  15.405 -0.0305  0.0828 -0.6850
12707TIP3    H259537   1.410   4.786  15.334 -0.7737 -1.0767  1.2074
12708TIP3   OH259538   0.781   6.454   2.386  0.4024 -0.4398  0.0273
12708TIP3    H159539   0.740   6.541   2.390  1.7176  0.1473  1.4069
12708TIP3    H259540   0.707   6.393   2.391 -0.4333  0.5948  0.7529
12709TIP3   OH259541   0.650   4.096   3.826 -0.5353  0.9429  0.0943
12709TIP3    H159542   0.617   4.128   3.910 -0.3075 -0.6824  0.8375
12709TIP3    H259543   0.651   4.001   3.836  0.6977  0.7914 -1.3067
12710TIP3   OH259544   5.582   6.418  10.924 -0.5239 -0.1685  0.3641
12710TIP3    H159545   5.494   6.453  10.933 -0.9759 -1.3990  0.9086
12710TIP3    H259546   5.601   6.422  10.831 -1.6594 -1.0720  0.0807
12711TIP3   OH259547   4.045   1.902  14.032  0.0661  0.0233 -0.1770
12711TIP3    H159548   3.995   1.821  14.021  1.8640 -1.0504 -0.9226
12711TIP3    H259549   4.095   1.911  13.951 -1.7569  3.1612 -1.0993
12712TIP3   OH259550   5.454   2.145   5.364 -0.3287 -0.4882 -0.1398
12712TIP3    H159551   5.546   2.125   5.380 -0.7009 -1.5689  0.8296
12712TIP3    H259552   5.420   2.171   5.450 -1.2460 -1.5426 -0.1621
12713TIP3   OH259553   0.735   0.845  16.675 -0.2677  0.3922  0.1275
12713TIP3    H159554   0.734   0.756  16.640  1.7149 -0.0400  1.0495
12713TIP3    H259555   0.793   0.840  16.751 -1.9609  1.9808  1.6271
12714TIP3   OH259556   1.143   5.267  14.712 -0.0558 -0.0700 -0.2167
12714TIP3    H159557   1.060   5.263  14.761 -0.2388 -0.3240 -0.5443
12714TIP3    H259558   1.117   5.294  14.624  0.1679 -0.5352 -0.4249
12715TIP3   OH259559   6.618   5.423   4.024 -0.3029  0.7216 -0.0739
12715TIP3    H159560   6.712   5.419   4.040 -0.4463 -1.5896  0.4416
12715TIP3    H259561   6.610   5.439   3.930  0.5679  2.2934  0.0881
12716TIP3   OH259562   1.125   2.310  10.995 -0.1592  0.4053  0.0587
12716TIP3    H159563   1.192   2.299  11.063  0.3571 -0.4473 -0.5575
12716TIP3    H259564   1.105   2.404  10.995 -0.1477  0.4245  1.3496
12717TIP3   OH259565   5.766   1.307  10.582 -0.0556 -0.1758  0.2888
12717TIP3    H159566   5.789   1.336  10.670 -1.1759  1.9769 -0.0680
12717TIP3    H259567   5.686   1.355  10.561  1.0731  0.6472 -2.5489
12718TIP3   OH259568   1.539   6.523  13.019 -0.3562  0.5847 -0.4889
12718TIP3    H159569   1.454   6.480  13.006 -0.7716  1.3145 -0.3124
12718TIP3    H259570   1.594   6.491  12.948  0.2285 -2.3008  1.1091
12719TIP3   OH259571   4.417   2.833  16.590  0.2634  0.0601  0.0148
12719TIP3    H159572   4.395   2.886  16.667  0.4676  2.4733 -1.4763
12719TIP3    H259573   4.512   2.843  16.581  0.0272  1.2617 -1.4846
12720TIP3   OH259574   0.520   3.077  11.869  0.0841 -0.3707 -0.1605
12720TIP3    H159575   0.517   3.104  11.961  0.4923  1.6204 -0.6850
12720TIP3    H259576   0.594   3.124  11.832  0.9275 -2.3652 -1.1871
12721TIP3   OH259577   5.462   4.098   4.139  0.2629 -0.4516 -0.0149
12721TIP3    H159578   5.382   4.137   4.104  0.6080 -0.8123 -1.2270
12721TIP3    H259579   5.438   4.072   4.228 -1.6560 -2.5284 -1.0401
12722TIP3   OH259580   6.105   2.155  13.406  0.2441 -0.2795  0.1855
12722TIP3    H159581   6.104   2.207  13.486 -0.8701 -0.4539  0.3076
12722TIP3    H259582   6.055   2.076  13.427 -0.6870 -0.0020 -0.8736
12723TIP3   OH259583   3.741   4.065   1.630 -0.3413 -0.5456  0.1475
12723TIP3    H159584   3.816   4.020   1.670  0.1329  0.0158 -0.1010
12723TIP3    H259585   3.674   3.997   1.623  0.4872 -1.3264 -0.5471
12724TIP3   OH259586   1.650   2.234  11.742  0.1027  0.1315 -0.6509
12724TIP3    H159587   1.612   2.188  11.667  1.9521 -1.9623 -0.4328
12724TIP3    H259588   1.674   2.320  11.709  1.2489 -0.8904 -2.6377
12725TIP3   OH259589   0.412   4.648  12.704  0.0012  0.0500 -0.1644
12725TIP3    H159590   0.381   4.690  12.625  0.7514  0.5619 -0.1952
12725TIP3    H259591   0.460   4.571  12.673  0.9576  0.6669 -0.2705
12726TIP3   OH259592   3.793   1.112  10.824  0.4588 -0.3870 -0.5759
12726TIP3    H159593   3.871   1.116  10.879 -0.7796  1.9589  1.2266
12726TIP3    H259594   3.801   1.185  10.764 -0.8606  0.7535  0.5353
12727TIP3   OH259595   0.636   6.001  13.607 -0.3146  0.0730 -0.5048
12727TIP3    H159596   0.708   6.037  13.659 -0.7493  1.8065 -1.0504
12727TIP3    H259597   0.657   6.025  13.517 -0.3293 -1.6136 -0.9963
12728TIP3   OH259598   0.237   3.090  13.608  0.4766  0.2031 -0.3213
12728TIP3    H159599   0.317   3.060  13.565  1.0121  1.5964 -0.3697
12728TIP3    H259600   0.206   3.161  13.551 -0.3839  0.1698  0.0978
12729TIP3   OH259601   2.166   5.996   5.012 -0.1221 -0.5379 -0.1432
12729TIP3    H159602   2.204   5.943   4.942 -0.0664 -0.4927 -0.1478
12729TIP3    H259603   2.087   5.949   5.038 -0.0166 -0.6765 -0.0743
12730TIP3   OH259604   1.958   5.767   5.856  0.3852 -0.4813 -0.2588
12730TIP3    H159605   1.880   5.786   5.804  0.2332  0.5177  0.3011
12730TIP3    H259606   2.000   5.852   5.868  1.5961 -1.0117 -0.5895
12731TIP3   OH259607   1.874   6.066  13.759 -0.2109  0.1244  0.2704
12731TIP3    H159608   1.853   6.026  13.843  0.5784  1.9441  1.3909
12731TIP3    H259609   1.850   6.000  13.694 -1.2636 -1.1473  1.8870
12732TIP3   OH259610   0.956   6.008   6.803  0.1077 -0.4540 -0.4436
12732TIP3    H159611   0.985   5.998   6.712 -0.5629 -1.5392 -0.5611
12732TIP3    H259612   0.993   5.932   6.848  0.1447 -0.1100  0.1097
12733TIP3   OH259613   6.415   6.712  11.433  0.0956  0.1039 -0.2952
12733TIP3    H159614   6.339   6.761  11.464 -0.5315 -0.1428 -1.3967
12733TIP3    H259615   6.378   6.641  11.381  1.0803  0.0363 -0.9235
12734TIP3   OH259616   5.996   1.051  17.359  0.2280 -0.0294 -0.1467
12734TIP3    H159617   6.063   0.983  17.346  0.2721  0.0124 -0.1404
12734TIP3    H259618   5.996   1.065  17.453 -1.6774 -1.9443  0.2198
12735TIP3   OH259619   4.756   6.593  14.939 -0.1061 -0.3031  0.7704
12735TIP3    H159620   4.693   6.533  14.900  0.4305 -0.5890  0.3386
12735TIP3    H259621   4.842   6.555  14.920  0.5723  2.5035 -3.0044
12736TIP3   OH259622   2.506   2.061   5.163  0.1350 -0.3822  0.0483
12736TIP3    H159623   2.586   2.113   5.169 -0.2209  0.2608 -0.6025
12736TIP3    H259624   2.517   1.992   5.229 -0.0519  1.4133  2.0941
12737TIP3   OH259625   4.380   2.330   3.658 -0.9415  0.0846  0.1416
12737TIP3    H159626   4.319   2.264   3.625  0.7217 -1.0133 -0.8395
12737TIP3    H259627   4.414   2.374   3.580 -0.0619  0.3011  0.6320
12738TIP3   OH259628   3.502   0.272  11.491 -0.0848 -0.5417  0.3593
12738TIP3    H159629   3.567   0.217  11.448 -0.2080 -2.1112  2.0281
12738TIP3    H259630   3.505   0.245  11.583 -3.5461 -1.2123  0.4312
12739TIP3   OH259631   3.324   3.011  13.077 -0.1855 -0.1268 -0.4622
12739TIP3    H159632   3.235   2.982  13.099 -0.1378  0.1569  0.1107
12739TIP3    H259633   3.335   2.986  12.985 -1.3511  1.0446 -0.9506
12740TIP3   OH259634   2.940   4.451  15.265 -0.1892  0.1980  0.2180
12740TIP3    H159635   2.975   4.362  15.267  0.9569  0.5928 -0.6146
12740TIP3    H259636   2.944   4.475  15.172  1.2944  1.7616  0.6461
12741TIP3   OH259637   4.297   5.501  17.205  0.1495 -0.4707  0.9193
12741TIP3    H159638   4.314   5.453  17.286 -0.0835  0.4817  1.5464
12741TIP3    H259639   4.384   5.527  17.173  0.3095 -1.6752  0.3320
12742TIP3   OH259640   1.223   3.921   2.463  0.3472 -0.3454 -0.6381
12742TIP3    H159641   1.197   3.997   2.412 -1.4651 -0.8153 -0.4958
12742TIP3    H259642   1.260   3.860   2.399  1.9055  0.6538 -0.7361
12743TIP3   OH259643   4.112   2.143   3.947  0.0673  0.1886  0.5289
12743TIP3    H159644   4.111   2.133   4.043  2.6458  1.8742  0.8246
12743TIP3    H259645   4.111   2.237   3.933 -0.7335 -0.0465 -1.1523
12744TIP3   OH259646   4.874   3.974  12.836  0.0235 -0.0054 -0.0712
12744TIP3    H159647   4.797   3.931  12.799  0.3980 -0.1831 -0.6489
12744TIP3    H259648   4.852   4.067  12.837  0.5741  0.1986 -2.1738
12745TIP3   OH259649   2.395   0.957   2.012  0.0093 -0.7687  0.3589
12745TIP3    H159650   2.475   0.997   1.976 -0.2741 -1.4414 -1.0880
12745TIP3    H259651   2.351   0.920   1.936 -1.1789 -1.3081  1.2865
12746TIP3   OH259652   5.106   0.074  11.452 -0.2893  0.0862 -0.1502
12746TIP3    H159653   5.122   0.151  11.506  1.3218 -0.2177 -0.1374
12746TIP3    H259654   5.085   0.005  11.515  1.4869 -0.2432  0.1359
12747TIP3   OH259655   3.809   4.334   1.088  0.6882  0.4349 -0.4188
12747TIP3    H159656   3.862   4.297   1.158 -1.6963 -2.4612  0.0576
12747TIP3    H259657   3.802   4.264   1.023 -1.9962  0.8661 -0.7128
12748TIP3   OH259658   6.383   2.869   1.012 -0.0706 -1.6580  0.3191
12748TIP3    H159659   6.468   2.858   0.970 -0.2058  0.5849 -0.6444
12748TIP3    H259660   6.320   2.844   0.945 -0.2106 -0.7174  0.0825
12749TIP3   OH259661   6.465   4.180   4.953  0.0397 -0.1375  0.0486
12749TIP3    H159662   6.416   4.106   4.916  2.2136 -0.9645 -1.3879
12749TIP3    H259663   6.416   4.257   4.925 -0.5469 -0.9255 -1.2153
12750TIP3   OH259664   6.449   0.487  13.369 -0.0687  0.5341  0.1553
12750TIP3    H159665   6.441   0.531  13.453 -2.2185  1.0974 -0.2944
12750TIP3    H259666   6.387   0.532  13.312 -0.2005 -1.1943 -1.1397
12751TIP3   OH259667   6.535   5.406  12.760 -0.1040  0.1229  1.2095
12751TIP3    H159668   6.500   5.453  12.836  0.5137  1.3188  0.7753
12751TIP3    H259669   6.617   5.451  12.740 -0.6961  0.4137 -0.7311
12752TIP3   OH259670   6.037   1.796  14.223 -0.1337  0.0526  0.4229
12752TIP3    H159671   5.996   1.755  14.299 -2.0190 -0.0301 -0.5723
12752TIP3    H259672   6.081   1.724  14.178 -0.2649 -0.1763  0.6589
12753TIP3   OH259673   0.299   2.128   3.049 -0.1817 -0.5654 -0.4608
12753TIP3    H159674   0.224   2.084   3.009  1.3468 -3.3131 -0.4862
12753TIP3    H259675   0.374   2.101   2.997  1.1133  0.4698  0.7769
12754TIP3   OH259676   6.331   1.279  15.559 -0.3551  0.3834  0.3163
12754TIP3    H159677   6.278   1.339  15.506 -0.9957 -0.3343  0.1360
12754TIP3    H259678   6.300   1.292  15.649 -0.4406  0.3643  0.2886
12755TIP3   OH259679   0.374   0.510   5.283 -0.0715 -0.1699 -0.0488
12755TIP3    H159680   0.310   0.525   5.213 -0.9582 -0.6251  0.6432
12755TIP3    H259681   0.321   0.498   5.362  0.9152  0.4179  0.7258
12756TIP3   OH259682   5.634   0.795  13.022 -0.2644 -0.0286  0.1453
12756TIP3    H159683   5.553   0.830  12.983  0.6239  0.1737 -1.6468
12756TIP3    H259684   5.671   0.740  12.952  2.0212  1.2682  0.2623
12757TIP3   OH259685   3.562   1.451   3.909  0.2522  0.1161 -0.5220
12757TIP3    H159686   3.539   1.528   3.856  0.7760 -0.0428 -0.9902
12757TIP3    H259687   3.655   1.438   3.893 -0.4209 -2.6612 -3.2494
12758TIP3   OH259688   2.049   1.291  16.223 -0.1559  0.2224 -0.3203
12758TIP3    H159689   1.987   1.273  16.293  0.1612 -0.5648 -0.2262
12758TIP3    H259690   2.131   1.310  16.268  0.2333 -1.0044 -0.4733
12759TIP3   OH259691   5.047   0.495  13.139  0.0166  0.8652  0.2124
12759TIP3    H159692   5.090   0.485  13.054 -0.6616 -0.2256 -0.0183
12759TIP3    H259693   5.106   0.452  13.201 -0.7079 -0.6946 -0.1144
12760TIP3   OH259694   3.126   2.283  14.171 -0.5325  0.0486  0.5889
12760TIP3    H159695   3.079   2.252  14.094  0.1549 -1.5468  0.7722
12760TIP3    H259696   3.056   2.306  14.233 -1.1084  2.1262 -0.7428
12761TIP3   OH259697   0.666   3.296  10.895  0.1881 -0.0634 -0.2747
12761TIP3    H159698   0.676   3.297  10.800 -1.2012  0.8344 -0.4472
12761TIP3    H259699   0.627   3.381  10.916  2.4225  0.6628  1.3546
12762TIP3   OH259700   6.412   2.781   5.579  0.7908 -0.0458 -0.2183
12762TIP3    H159701   6.487   2.726   5.603 -0.0947 -0.6695  1.2456
12762TIP3    H259702   6.402   2.840   5.654 -2.1745 -2.1460  1.2187
12763TIP3   OH259703   4.120   2.934   5.660 -0.1036  0.1249 -0.2460
12763TIP3    H159704   4.041   2.907   5.707 -0.6780  1.3016 -0.4976
12763TIP3    H259705   4.174   2.975   5.726  0.1565 -0.3949 -0.1364
12764TIP3   OH259706   5.633   2.878  16.414  0.2863  0.0377  0.5071
12764TIP3    H159707   5.554   2.933  16.418  1.4517  1.7068  1.5256
12764TIP3    H259708   5.660   2.883  16.322 -0.5794 -0.2635  0.2238
12765TIP3   OH259709   2.178   5.568  15.542  0.0994 -0.4024  0.2303
12765TIP3    H159710   2.099   5.611  15.508  0.5845  1.0624  0.8669
12765TIP3    H259711   2.242   5.576  15.471 -0.4233 -2.0266 -0.4785
12766TIP3   OH259712   6.241   4.646  16.866  0.2747 -0.2474  0.0422
12766TIP3    H159713   6.273   4.563  16.831 -1.0563 -0.6642 -0.2359
12766TIP3    H259714   6.165   4.666  16.812  1.0061  1.5448 -0.3881
12767TIP3   OH259715   0.703   4.067  17.238  0.3720  0.1856 -0.0456
12767TIP3    H159716   0.794   4.087  17.214  0.0879  1.1030 -0.4306
12767TIP3    H259717   0.708   3.985  17.287  1.1945 -0.7707 -1.6496
12768TIP3   OH259718   0.545   4.435  12.595  0.3117  0.1517  0.2232
12768TIP3    H159719   0.495   4.383  12.533  0.6562  1.5389 -1.2816
12768TIP3    H259720   0.616   4.473  12.543  2.2950 -0.8223  2.0337
12769TIP3   OH259721   5.031   5.145   0.215 -0.1116  0.0116 -0.1355
12769TIP3    H159722   5.024   5.150   0.119 -1.4327 -0.2941 -0.0853
12769TIP3    H259723   4.956   5.197   0.246  1.3648  1.6941  0.7853
12770TIP3   OH259724   2.814   6.034   3.314 -0.5826  0.6909 -0.0011
12770TIP3    H159725   2.818   5.944   3.347  2.6956  0.7923  0.2205
12770TIP3    H259726   2.736   6.035   3.258 -0.3697 -2.5248 -0.5939
12771TIP3   OH259727   0.698   1.670  14.215 -0.4107 -0.3071  0.6558
12771TIP3    H159728   0.665   1.712  14.294 -0.2115 -0.1462  0.6564
12771TIP3    H259729   0.646   1.710  14.144  0.6920  0.9655  0.5157
12772TIP3   OH259730   5.514   4.325   4.415  0.0993  0.5308  1.2045
12772TIP3    H159731   5.540   4.338   4.323 -0.5160  1.7782  1.1807
12772TIP3    H259732   5.419   4.314   4.411 -0.0009  1.1547  1.7334
12773TIP3   OH259733   3.961   6.039   4.158  0.1591  0.0565 -0.4029
12773TIP3    H159734   4.049   6.076   4.151  0.8379 -1.8433 -3.5201
12773TIP3    H259735   3.975   5.944   4.161 -1.7886 -0.2626  0.4109
12774TIP3   OH259736   4.610   1.562   5.589  0.9266  0.3262 -0.0400
12774TIP3    H159737   4.703   1.545   5.572  0.4368 -1.3618 -1.2779
12774TIP3    H259738   4.597   1.533   5.680  1.3074 -0.9386 -0.3584
12775TIP3   OH259739   0.691   0.649   0.471 -0.6023 -0.1317 -0.0346
12775TIP3    H159740   0.695   0.657   0.376  1.7662 -0.8442 -0.0731
12775TIP3    H259741   0.643   0.567   0.486 -0.4394 -0.3528 -0.6688
12776TIP3   OH259742   2.174   4.336  17.321 -0.5355 -0.4015  0.1817
12776TIP3    H159743   2.203   4.306  17.235 -0.0017  1.6149 -0.3901
12776TIP3    H259744   2.250   4.381  17.358 -2.0980  3.0464 -0.4104
12777TIP3   OH259745   0.142   3.422  15.123  0.3678  0.3743  0.4270
12777TIP3    H159746   0.175   3.355  15.183  0.8998  0.7736  0.5861
12777TIP3    H259747   0.124   3.375  15.042 -3.0704 -0.7779  1.6883
12778TIP3   OH259748   2.358   0.578   4.658  0.0096 -0.0590 -0.9349
12778TIP3    H159749   2.288   0.549   4.599  0.4424  0.4111 -1.7074
12778TIP3    H259750   2.429   0.515   4.643 -0.6879 -1.3187  0.8144
12779TIP3   OH259751   5.998   5.180   3.651  0.6296 -0.1340  0.2903
12779TIP3    H159752   6.077   5.161   3.701  1.0626 -0.8294 -0.6116
12779TIP3    H259753   5.966   5.094   3.624  0.0376  0.1899 -0.0694
12780TIP3   OH259754   6.138   0.055   4.597  0.0799 -0.0422  0.3051
12780TIP3    H159755   6.080   0.106   4.654 -1.3455 -2.0902  0.8036
12780TIP3    H259756   6.155  -0.025   4.646 -0.1178 -1.3221 -1.6219
12781TIP3   OH259757   0.772   1.653   3.827  0.2089 -0.1137 -0.4026
12781TIP3    H159758   0.773   1.591   3.900 -0.9837 -0.1996 -0.4481
12781TIP3    H259759   0.745   1.601   3.752 -3.1191  0.8305 -0.0208
12782TIP3   OH259760   6.187   4.023  17.056  0.1643  0.0812  0.3690
12782TIP3    H159761   6.208   3.930  17.065  1.7547  0.3896  0.1804
12782TIP3    H259762   6.112   4.037  17.115  1.0628 -0.9444  1.8199
12783TIP3   OH259763   1.311   1.700   6.119  0.2661 -0.0450  0.6304
12783TIP3    H159764   1.234   1.662   6.161  1.9552 -3.7299  0.7348
12783TIP3    H259765   1.379   1.699   6.187  1.1338  0.7187 -0.1882
12784TIP3   OH259766   2.441   1.402  16.910  0.4557  0.0817  0.2920
12784TIP3    H159767   2.450   1.471  16.976  0.6068 -0.3485  0.7308
12784TIP3    H259768   2.347   1.395  16.895  0.5473  1.8385 -1.3359
12785TIP3   OH259769   3.698   3.218   0.614  0.1404 -0.2859 -0.6677
12785TIP3    H159770   3.774   3.277   0.611 -0.3063  0.3844  0.4143
12785TIP3    H259771   3.733   3.135   0.646  0.6325 -0.3591 -1.3845
12786TIP3   OH259772   0.805   6.627   1.809 -0.2067  0.6039 -0.5765
12786TIP3    H159773   0.720   6.593   1.838  0.2393  2.4110  3.3703
12786TIP3    H259774   0.868   6.561   1.838 -0.0554 -0.0316 -2.2213
12787TIP3   OH259775   3.897   2.291  15.923  0.0981 -0.4641  0.2439
12787TIP3    H159776   3.941   2.238  15.856 -0.8320 -2.6959  1.3105
12787TIP3    H259777   3.917   2.382  15.898  1.5585 -1.2663 -1.8066
12788TIP3   OH259778   3.402   1.105   0.066 -0.2208 -0.5438  0.2882
12788TIP3    H159779   3.417   1.119  -0.027  0.4576 -0.5072  0.3999
12788TIP3    H259780   3.307   1.104   0.076 -0.3085 -1.2959 -0.5221
12789TIP3   OH259781   3.054   3.946   2.297  0.4540 -0.0758 -0.0985
12789TIP3    H159782   3.094   3.954   2.384 -0.2689 -0.6838  0.3011
12789TIP3    H259783   2.985   4.011   2.295  1.5553  1.1147 -0.8669
12790TIP3   OH259784   1.210   1.193  16.936 -0.0161  0.0042 -0.2280
12790TIP3    H159785   1.245   1.223  16.852  1.3557 -1.1031 -0.0934
12790TIP3    H259786   1.119   1.169  16.916 -0.1684  1.1616 -1.0387
12791TIP3   OH259787   3.618   4.905  16.507  0.3354 -0.1931 -0.1954
12791TIP3    H159788   3.609   4.830  16.565 -1.0624  0.0257 -0.0813
12791TIP3    H259789   3.606   4.869  16.419 -1.7930  0.0563 -0.0583
12792TIP3   OH259790   3.620   3.440   1.647  0.5459  0.4934 -0.8034
12792TIP3    H159791   3.640   3.534   1.652  0.2319  0.6364 -1.9266
12792TIP3    H259792   3.704   3.399   1.626  0.8849  0.4005  0.6437
12793TIP3   OH259793   1.387   1.867   5.367  0.3751  0.1382 -0.4566
12793TIP3    H159794   1.345   1.952   5.359  1.3604  0.5701 -1.3510
12793TIP3    H259795   1.315   1.805   5.379 -0.2917  1.2527  1.9888
12794TIP3   OH259796   4.892   2.941   0.070  0.1599  0.0808 -0.0039
12794TIP3    H159797   4.819   3.002   0.079 -1.3872 -1.6985  0.2130
12794TIP3    H259798   4.945   2.955   0.148 -1.8153 -0.8516  1.6056
12795TIP3   OH259799   0.748   3.271  12.753 -0.0428  0.0012 -0.0963
12795TIP3    H159800   0.765   3.177  12.765 -0.6895  0.0479  1.4701
12795TIP3    H259801   0.834   3.308  12.732  0.8603 -0.5225  2.3366
12796TIP3   OH259802   1.588   0.830   3.850  0.6062  0.2316  0.6394
12796TIP3    H159803   1.660   0.771   3.829  1.8202  1.5735  0.8915
12796TIP3    H259804   1.519   0.772   3.885  1.1391 -1.1949 -0.5488
12797TIP3   OH259805   6.107   2.777  12.497  0.6693 -0.4813 -0.1812
12797TIP3    H159806   6.043   2.841  12.465  0.1144 -1.3370 -0.8126
12797TIP3    H259807   6.138   2.733  12.418 -0.5548 -2.4783  0.3976
12798TIP3   OH259808   5.023   0.011   1.227  0.3351  0.3541 -0.3068
12798TIP3    H159809   5.061   0.099   1.236  0.9298  0.1512 -0.7859
12798TIP3    H259810   5.029  -0.026   1.316 -1.7151  1.4842  0.3675
12799TIP3   OH259811   4.414   5.204  16.409 -0.2571 -0.5705  0.6093
12799TIP3    H159812   4.444   5.175  16.323 -2.0656  0.1552 -0.3250
12799TIP3    H259813   4.368   5.286  16.391 -2.0141 -1.1916  2.0243
12800TIP3   OH259814   0.486   4.005  11.075  0.3878  0.0452  0.8332
12800TIP3    H159815   0.479   3.915  11.106 -0.2718 -0.2207 -0.0196
12800TIP3    H259816   0.567   4.038  11.113  0.5250 -0.8365  1.3341
12801TIP3   OH259817   6.548   1.552   3.212 -0.0005 -0.4065 -0.1186
12801TIP3    H159818   6.534   1.458   3.209  3.5234 -1.0614 -0.6255
12801TIP3    H259819   6.600   1.566   3.291  0.7119  0.8822 -0.7804
12802TIP3   OH259820   3.710   5.346  17.152 -0.1189  0.1243 -0.1576
12802TIP3    H159821   3.637   5.310  17.203  0.0050 -0.4535 -0.3776
12802TIP3    H259822   3.763   5.393  17.215 -1.6229  2.0960 -0.2764
12803TIP3   OH259823   0.196   6.145   0.541  0.1891  0.3916  0.1939
12803TIP3    H159824   0.143   6.220   0.511  1.3585  1.0261 -0.3383
12803TIP3    H259825   0.141   6.069   0.521 -0.9877  1.0802  0.6548
12804TIP3   OH259826   5.191   4.683   4.863  0.0465  0.3554  0.5012
12804TIP3    H159827   5.271   4.695   4.913 -0.4218 -3.4595  2.5991
12804TIP3    H259828   5.122   4.677   4.929 -0.7619 -3.7578 -0.3964
12805TIP3   OH259829   3.651   4.511   3.383  0.5296  0.3482 -0.0541
12805TIP3    H159830   3.742   4.538   3.377  0.0556  2.1261  0.1861
12805TIP3    H259831   3.615   4.562   3.456 -0.4750 -0.9057  0.3794
12806TIP3   OH259832   3.476   0.654   6.434  0.1813 -0.0468  0.2018
12806TIP3    H159833   3.417   0.578   6.435  0.0658  0.0484  0.5103
12806TIP3    H259834   3.548   0.630   6.493  0.3984 -0.1178 -0.0877
12807TIP3   OH259835   1.958   4.765   6.258  0.5668 -0.0447  0.5073
12807TIP3    H159836   2.036   4.810   6.225  0.4102  0.4439  0.7856
12807TIP3    H259837   1.991   4.686   6.300  0.9219  0.2278  0.7389
12808TIP3   OH259838   6.485   2.764  12.363  0.5248  0.2456 -0.3132
12808TIP3    H159839   6.538   2.837  12.397 -2.5699  2.4527  0.2327
12808TIP3    H259840   6.417   2.807  12.311 -0.5293 -2.4353 -1.3103
12809TIP3   OH259841   6.504   5.365   2.830 -0.1524 -0.1966  0.7238
12809TIP3    H159842   6.573   5.398   2.772  0.4530 -0.8028  1.0948
12809TIP3    H259843   6.424   5.403   2.794  0.1728 -0.7962 -0.6981
12810TIP3   OH259844   3.141   2.520   1.522 -0.5979 -0.4244 -0.1043
12810TIP3    H159845   3.116   2.512   1.430  0.7701 -1.2950 -0.4277
12810TIP3    H259846   3.086   2.590   1.556  0.2185  1.2501 -2.0671
12811TIP3   OH259847   4.392   6.045  13.784 -0.0744  0.2328  0.2170
12811TIP3    H159848   4.408   6.126  13.832 -0.3062 -0.3151  1.2439
12811TIP3    H259849   4.314   6.063  13.731 -1.5173 -0.0119  2.1580
12812TIP3   OH259850   5.202   4.950  14.387  0.2423 -0.4491 -0.2734
12812TIP3    H159851   5.222   4.911  14.302  2.7983 -3.3852  1.4655
12812TIP3    H259852   5.273   4.921  14.445 -1.3440  1.3761  2.9090
12813TIP3   OH259853   0.259   0.816   1.472 -0.8466 -0.1859 -0.0996
12813TIP3    H159854   0.248   0.904   1.508  0.9706 -0.5258  1.4541
12813TIP3    H259855   0.171   0.778   1.473 -1.6085  1.4705 -0.5033
12814TIP3   OH259856   0.861   6.025   2.723  0.6407 -0.6390 -0.0431
12814TIP3    H159857   0.867   6.048   2.631  0.5078  1.8241  0.4922
12814TIP3    H259858   0.781   5.972   2.730 -0.3689  0.6812 -1.0980
12815TIP3   OH259859   3.909   3.391  17.290  0.0600 -0.7314  0.1262
12815TIP3    H159860   3.878   3.388  17.200  0.3782  2.3707 -0.1922
12815TIP3    H259861   4.004   3.403  17.283  0.0451 -0.0799  0.8243
12816TIP3   OH259862   4.049   5.181   5.597 -0.5197  0.5638 -0.1232
12816TIP3    H159863   4.095   5.212   5.519  1.5475  1.1477  1.2617
12816TIP3    H259864   4.109   5.198   5.669 -0.7917 -3.2233  1.2285
12817TIP3   OH259865   5.301   5.011   3.076 -0.2899 -0.3418  0.0502
12817TIP3    H159866   5.240   5.030   3.147 -2.2357  0.4502 -1.7405
12817TIP3    H259867   5.362   5.085   3.076 -0.1958 -0.4100  0.9328
12818TIP3   OH259868   1.223   3.336  15.558 -0.6707 -0.0176 -0.2704
12818TIP3    H159869   1.170   3.408  15.525  1.6688  2.1097  0.3430
12818TIP3    H259870   1.248   3.363  15.646 -0.1249 -1.8308  0.1697
12819TIP3   OH259871   2.230   5.342   1.780 -0.3246 -0.0671  0.0592
12819TIP3    H159872   2.282   5.266   1.752  0.0108  0.3514 -0.4713
12819TIP3    H259873   2.295   5.408   1.803 -0.5634 -0.5719  2.4330
12820TIP3   OH259874   1.452   5.472  14.463  0.1932 -0.2740 -0.4540
12820TIP3    H159875   1.536   5.517  14.468  0.1520 -0.2197 -0.2210
12820TIP3    H259876   1.475   5.383  14.436  0.3060 -0.2036 -0.5927
12821TIP3   OH259877   6.474   6.082  14.236 -0.2156  0.5837  0.2117
12821TIP3    H159878   6.545   6.135  14.272 -1.3280  2.4807 -0.2743
12821TIP3    H259879   6.414   6.145  14.197 -0.8891 -1.1327 -1.7027
12822TIP3   OH259880   0.514   0.250  13.488  0.1781 -0.7342  0.3796
12822TIP3    H159881   0.498   0.260  13.582  1.8943  2.5534  0.4649
12822TIP3    H259882   0.560   0.166  13.480 -1.3583 -1.8104  2.2306
12823TIP3   OH259883   4.347   5.343   0.031  0.0759 -0.2234  0.0210
12823TIP3    H159884   4.264   5.313   0.069 -1.4813  1.1387 -2.0405
12823TIP3    H259885   4.406   5.352   0.106 -2.0269 -0.0379  1.7523
12824TIP3   OH259886   2.513   3.502  14.178 -0.2774  0.7461  0.9677
12824TIP3    H159887   2.527   3.581  14.229  1.6383  0.4143  1.0331
12824TIP3    H259888   2.523   3.431  14.241  0.0342  0.3946  0.5302
12825TIP3   OH259889   6.334   0.402  14.334  0.9019  0.2020  0.1367
12825TIP3    H159890   6.240   0.397  14.321  0.9134 -1.9176  0.3980
12825TIP3    H259891   6.365   0.313  14.314  2.7723  0.7216  0.5360
12826TIP3   OH259892   1.027   2.358  14.197  0.3956  0.9256  0.5599
12826TIP3    H159893   0.935   2.385  14.195 -0.2962 -1.1888  1.3161
12826TIP3    H259894   1.064   2.402  14.273  0.2059  2.2938 -0.1174
12827TIP3   OH259895   1.479   3.498  16.137 -0.0477  0.0958  0.5369
12827TIP3    H159896   1.401   3.473  16.186  0.3924 -0.0733  1.1721
12827TIP3    H259897   1.491   3.591  16.158  1.3885 -0.4881  2.5711
12828TIP3   OH259898   0.183   0.735   4.917 -0.1416  0.2017 -0.0043
12828TIP3    H159899   0.242   0.802   4.951  0.3039 -0.1207 -0.1351
12828TIP3    H259900   0.196   0.737   4.822  1.0889 -1.1767  0.1048
12829TIP3   OH259901   6.293   4.700  14.340  0.0524  0.0082 -0.2544
12829TIP3    H159902   6.236   4.634  14.379  0.4327  0.4548  1.1224
12829TIP3    H259903   6.301   4.767  14.408 -0.0710  1.3233 -1.4929
12830TIP3   OH259904   3.913   1.831  15.893  0.4484  0.1074 -0.3728
12830TIP3    H159905   3.822   1.858  15.904  0.8646  0.4907  2.9861
12830TIP3    H259906   3.963   1.912  15.899  1.1489 -0.3478  0.0398
12831TIP3   OH259907   3.760   6.222  14.936  0.0882  0.0643  0.1367
12831TIP3    H159908   3.747   6.309  14.974 -1.5461  0.4858 -1.2563
12831TIP3    H259909   3.815   6.238  14.860  2.1907 -0.5856  1.4327
12832TIP3   OH259910   2.520   3.965  15.201  0.2933  0.5893  0.4109
12832TIP3    H159911   2.532   3.974  15.295 -0.2211 -0.3722  0.5757
12832TIP3    H259912   2.609   3.956  15.166  0.3997 -1.8902  1.1310
12833TIP3   OH259913   1.398   3.228  12.487 -0.6825  0.2327  0.2767
12833TIP3    H159914   1.399   3.323  12.503 -0.6612  0.3557 -0.4265
12833TIP3    H259915   1.486   3.199  12.510 -0.1816  0.6559 -1.0339
12834TIP3   OH259916   1.000   4.050  12.320  0.9113  0.4123 -0.1185
12834TIP3    H159917   0.905   4.044  12.315  0.8854  0.0578  0.6778
12834TIP3    H259918   1.032   3.974  12.273  0.7856  0.1090  0.2849
12835TIP3   OH259919   2.155   3.112  16.481  0.5453  0.1788  0.5407
12835TIP3    H159920   2.116   3.027  16.463  1.0348 -0.3384  1.8402
12835TIP3    H259921   2.105   3.173  16.427  0.4551 -0.9696 -0.7175
12836TIP3   OH259922   1.188   6.368   1.880  0.0801 -0.3637 -0.5720
12836TIP3    H159923   1.170   6.436   1.945 -1.2083  1.1732 -2.4224
12836TIP3    H259924   1.101   6.336   1.855  0.5940 -1.5273 -0.9259
12837TIP3   OH259925   3.703   3.649  15.123  0.5823 -0.1410 -0.0568
12837TIP3    H159926   3.664   3.719  15.175  0.6012 -0.4012  0.3145
12837TIP3    H259927   3.743   3.694  15.048 -0.5446  0.1115 -0.5281
12838TIP3   OH259928   3.210   4.017   2.821  0.1272 -0.6838  0.4312
12838TIP3    H159929   3.122   4.036   2.854 -0.1969 -0.5041 -0.5107
12838TIP3    H259930   3.251   3.967   2.892 -0.6041 -0.4602  1.0321
12839TIP3   OH259931   0.943   3.007   3.221 -0.3339  0.1350  0.3476
12839TIP3    H159932   1.026   2.991   3.178 -0.0448 -0.8749  1.2538
12839TIP3    H259933   0.882   2.945   3.180 -0.8504  1.3675 -0.8324
12840TIP3   OH259934   1.796   6.167   3.262 -0.0804 -0.0862 -0.0506
12840TIP3    H159935   1.857   6.148   3.191  1.4657 -0.8934  1.4453
12840TIP3    H259936   1.806   6.094   3.323 -0.6158  1.0901  1.4962
12841TIP3   OH259937   2.251   1.086   4.464  0.6920  0.1123 -0.3054
12841TIP3    H159938   2.177   1.098   4.405  0.9209 -0.2021 -0.6532
12841TIP3    H259939   2.261   0.991   4.472  0.0707  0.1194  0.9775
12842TIP3   OH259940   6.706   6.152   1.279  0.0321 -0.8567 -0.2436
12842TIP3    H159941   6.708   6.150   1.375  0.2512 -1.5273 -0.2632
12842TIP3    H259942   6.619   6.188   1.259  0.7496  1.2533  0.2154
12843TIP3   OH259943   0.588   5.449  16.603 -0.6807 -0.7882  0.0671
12843TIP3    H159944   0.617   5.380  16.543 -0.2192 -2.1744  1.7944
12843TIP3    H259945   0.494   5.435  16.612 -0.7226 -0.6829 -0.2084
12844TIP3   OH259946   0.073   6.696   3.129 -0.3961 -0.0942  0.4288
12844TIP3    H159947   0.074   6.613   3.175  2.3963 -0.5614 -0.2901
12844TIP3    H259948   0.062   6.762   3.198 -1.0767 -0.9662  1.1759
12845TIP3   OH259949   4.955   3.577   0.624  0.1308  0.1176 -0.0213
12845TIP3    H159950   5.030   3.614   0.671 -0.2459  1.1966 -0.2485
12845TIP3    H259951   4.923   3.507   0.681  0.2610  0.7830  0.8881
12846TIP3   OH259952   4.646   3.444   4.095 -0.1925 -0.0856 -0.2585
12846TIP3    H159953   4.701   3.422   4.170  0.8113  0.6226 -0.7811
12846TIP3    H259954   4.559   3.411   4.120 -0.1529  1.0886  1.6825
12847TIP3   OH259955   5.621   5.532   1.407  0.0509  0.3936  0.3600
12847TIP3    H159956   5.615   5.626   1.391  0.2718  0.1926 -1.0323
12847TIP3    H259957   5.547   5.494   1.360  2.7206 -0.5651 -3.6544
12848TIP3   OH259958   2.788   3.887  11.394  0.3253 -0.8609 -0.8450
12848TIP3    H159959   2.863   3.946  11.388 -0.0774 -0.3324 -0.7439
12848TIP3    H259960   2.717   3.934  11.351 -0.7728 -0.0044  1.7384
12849TIP3   OH259961   2.059   5.732   3.720 -0.0650 -0.2731 -0.0864
12849TIP3    H159962   2.082   5.814   3.676 -1.3906 -0.4875 -1.2411
12849TIP3    H259963   1.998   5.758   3.789  1.3522 -0.0404  1.1316
12850TIP3   OH259964   3.106   0.100  15.881  0.1308  0.2020 -0.3208
12850TIP3    H159965   3.103   0.122  15.787  0.6945  0.0191 -0.3837
12850TIP3    H259966   3.019   0.064  15.899 -0.2766  1.0132 -0.5757
12851TIP3   OH259967   6.058   0.953  13.494  0.2651 -0.4477 -0.2116
12851TIP3    H159968   6.052   1.046  13.474 -2.5681 -0.8439 -1.6200
12851TIP3    H259969   6.033   0.946  13.585  0.6562  0.1587 -0.0503
12852TIP3   OH259970   6.079   2.849  16.519 -0.7983  0.1873  0.0031
12852TIP3    H159971   6.166   2.840  16.558  0.5250  1.3315 -2.4308
12852TIP3    H259972   6.094   2.900  16.439 -2.9463 -3.2815 -2.9745
12853TIP3   OH259973   1.232   2.165   3.942 -0.3801  0.6769 -0.5600
12853TIP3    H159974   1.158   2.125   3.896 -0.7694 -0.6754  1.1360
12853TIP3    H259975   1.248   2.247   3.895 -1.4646 -0.0761 -2.3639
12854TIP3   OH259976   5.492   4.491  17.268 -0.4207 -0.0332 -0.2404
12854TIP3    H159977   5.429   4.483  17.339  0.4827 -0.5428  0.5282
12854TIP3    H259978   5.475   4.415  17.213  0.7644 -1.2556  1.0110
12855TIP3   OH259979   6.397   5.463  14.639 -0.4346 -0.4615 -0.0968
12855TIP3    H159980   6.406   5.555  14.664  2.8023 -0.6516 -0.1583
12855TIP3    H259981   6.405   5.462  14.544 -1.5221 -0.7568 -0.2042
12856TIP3   OH259982   3.960   0.186   3.388  0.2899 -0.0065  0.4592
12856TIP3    H159983   3.894   0.136   3.340  1.2982 -1.0687  0.1296
12856TIP3    H259984   4.004   0.238   3.320 -0.1171  0.6175  0.6618
12857TIP3   OH259985   4.729   3.972   3.552 -0.7574  0.3485 -0.3623
12857TIP3    H159986   4.824   3.965   3.551 -0.8893 -2.9558 -0.9181
12857TIP3    H259987   4.705   3.958   3.643 -0.7608 -1.0490 -0.5606
12858TIP3   OH259988   0.123   2.003   2.341 -0.1194 -0.3336 -0.3879
12858TIP3    H159989   0.193   2.037   2.286 -0.2748 -0.9476 -0.9763
12858TIP3    H259990   0.165   1.984   2.425 -0.4052  3.2828  0.7724
12859TIP3   OH259991   5.283   2.063   6.538  0.1719 -0.2550 -0.5595
12859TIP3    H159992   5.275   2.157   6.557 -1.9171 -0.3428 -0.8533
12859TIP3    H259993   5.194   2.029   6.545  0.9971 -2.3965  0.3166
12860TIP3   OH259994   6.229   3.513  17.075  0.5353 -0.4439  0.2122
12860TIP3    H159995   6.177   3.480  17.149 -1.2082 -0.3190 -0.9131
12860TIP3    H259996   6.184   3.480  16.998  2.0492 -0.1541 -0.8241
12861TIP3   OH259997   1.950   3.601   1.605 -0.4773  0.1248  0.3607
12861TIP3    H159998   1.915   3.537   1.667  0.5832  0.2486  1.1327
12861TIP3    H259999   2.035   3.565   1.579  0.7953  1.7955  1.8917
12862TIP3   OH260000   6.328   3.253  15.656  0.1120  0.1542  0.3390
12862TIP3    H160001   6.347   3.168  15.615  1.5176  0.3526  0.5488
12862TIP3    H260002   6.251   3.285  15.609  0.2083 -0.7486 -0.4664
12863TIP3   OH260003   4.112   0.481   2.933  0.3868  0.3127 -0.0287
12863TIP3    H160004   4.203   0.450   2.935  0.7184  1.2396  0.0308
12863TIP3    H260005   4.095   0.499   2.840  0.7912  1.5913  0.1325
12864TIP3   OH260006   1.136   4.557  14.161 -0.0778  0.0562  0.3422
12864TIP3    H160007   1.200   4.503  14.114 -1.2544 -0.9023 -0.2178
12864TIP3    H260008   1.098   4.498  14.225 -2.4773 -0.3221 -1.2835
12865TIP3   OH260009   5.938   3.980   4.493 -0.3511  0.7704  0.6326
12865TIP3    H160010   5.933   4.028   4.576 -0.5782  2.6047 -0.3940
12865TIP3    H260011   5.882   4.029   4.433 -2.7968 -2.2782  0.1567
12866TIP3   OH260012   1.647   3.222   2.098 -0.6454  0.0001  0.2405
12866TIP3    H160013   1.654   3.230   2.003  0.4261 -0.8117  0.2290
12866TIP3    H260014   1.703   3.292   2.132  0.6490 -0.9990  0.2338
12867TIP3   OH260015   0.025   5.083  17.006  0.3287 -0.0546  0.2742
12867TIP3    H160016   0.110   5.071  16.965  0.6084 -1.0023  1.0931
12867TIP3    H260017  -0.037   5.043  16.945  0.8002 -1.9702  0.9701
12868TIP3   OH260018   1.380   3.700   1.890  0.2241 -0.3780 -0.6613
12868TIP3    H160019   1.289   3.729   1.887  0.6806  1.0972 -1.8632
12868TIP3    H260020   1.413   3.717   1.802  2.2201  1.0518  0.2898
12869TIP3   OH260021   4.796   2.013   1.328 -0.0735  0.2372  0.5702
12869TIP3    H160022   4.799   2.010   1.424  0.9487  0.8746  0.5679
12869TIP3    H260023   4.809   2.105   1.306 -1.4607  0.2896 -0.1648
12870TIP3   OH260024   2.141   2.312   2.670  0.2332  0.2242 -0.5963
12870TIP3    H160025   2.071   2.370   2.699  0.7973 -0.0739  1.5250
12870TIP3    H260026   2.135   2.236   2.728  1.4949 -0.4004 -1.2282
12871TIP3   OH260027   1.150   3.280   0.842  0.0540  0.7734 -0.2302
12871TIP3    H160028   1.243   3.302   0.840  0.1932  0.1669 -1.1061
12871TIP3    H260029   1.113   3.337   0.909  1.3715 -0.2325  1.4183
12872TIP3   OH260030   3.909   1.787   4.863 -0.1279  0.5302 -0.1901
12872TIP3    H160031   3.943   1.869   4.825  0.2900  0.4216 -0.0597
12872TIP3    H260032   3.928   1.795   4.956  0.3752  0.0692 -0.2479
12873TIP3   OH260033   0.984   1.928   2.526 -0.3187 -0.2508 -0.0430
12873TIP3    H160034   1.072   1.966   2.516 -0.6185  0.5605  0.2862
12873TIP3    H260035   0.943   1.939   2.440 -0.7942  1.2335  0.3383
12874TIP3   OH260036   3.232   3.333  11.828  0.6534 -0.1534 -0.4324
12874TIP3    H160037   3.172   3.326  11.901 -1.3238  1.6015 -1.7597
12874TIP3    H260038   3.286   3.410  11.848  1.3520 -0.7448 -0.0087
12875TIP3   OH260039   2.261   3.636   2.345  0.0100  0.3581 -0.0844
12875TIP3    H160040   2.333   3.578   2.319 -1.2781 -1.1585 -0.4178
12875TIP3    H260041   2.257   3.702   2.276  0.5881  0.0105 -0.4572
12876TIP3   OH260042   4.904   3.973  13.608  0.1477 -0.0983  0.1848
12876TIP3    H160043   4.910   4.018  13.692  0.2402 -0.1255  0.1927
12876TIP3    H260044   4.978   3.913  13.608  0.1129 -0.1416  0.1101
12877TIP3   OH260045   1.562   1.131   0.594 -0.6899 -0.2542  0.2899
12877TIP3    H160046   1.474   1.162   0.613 -1.0171 -1.3668  0.6686
12877TIP3    H260047   1.550   1.044   0.556  0.2975 -1.1059  1.8250
12878TIP3   OH260048   1.475   5.495   3.804  0.5635 -0.3890 -0.1305
12878TIP3    H160049   1.427   5.413   3.820  1.8803 -1.1828 -0.1166
12878TIP3    H260050   1.548   5.493   3.866 -0.3593  1.6736  1.1269
12879TIP3   OH260051   4.791   6.666   1.873 -0.1126 -0.1825  0.1020
12879TIP3    H160052   4.785   6.628   1.961  1.5891 -0.9302 -0.0624
12879TIP3    H260053   4.742   6.607   1.817 -0.3442 -0.2540  0.3754
12880TIP3   OH260054   0.942   5.031  12.747  0.5841 -0.2705  0.3188
12880TIP3    H160055   0.931   5.123  12.772  0.8897 -0.5748  1.6360
12880TIP3    H260056   1.035   5.024  12.724  0.4919 -0.1909 -0.0958
12881TIP3   OH260057   0.976   5.108   1.041 -0.3529  0.1156  0.2204
12881TIP3    H160058   0.917   5.076   1.109 -0.1599  0.3537  0.5042
12881TIP3    H260059   0.960   5.051   0.966 -0.2797 -0.4121  0.5999
12882TIP3   OH260060   3.289   2.106  13.654  0.2863  0.0966  0.3407
12882TIP3    H160061   3.205   2.110  13.700  0.2753 -1.6041  0.5454
12882TIP3    H260062   3.351   2.148  13.713 -0.1495  0.0115  0.8688
12883TIP3   OH260063   1.241   2.980   0.734  0.6371  0.0294  0.2872
12883TIP3    H160064   1.225   3.035   0.812 -0.1331  0.3348 -0.0680
12883TIP3    H260065   1.174   2.912   0.740 -1.4047  1.7028 -1.5792
12884TIP3   OH260066   0.730   5.060  12.346  0.1549  0.2524 -0.2129
12884TIP3    H160067   0.753   5.122  12.416  2.2773 -1.8680  1.1297
12884TIP3    H260068   0.681   4.990  12.391 -0.6011  0.0238 -1.3431
12885TIP3   OH260069   3.595   2.102  13.149  0.2676 -0.5145  0.3089
12885TIP3    H160070   3.594   2.197  13.153 -0.4757 -0.3070 -2.3597
12885TIP3    H260071   3.504   2.076  13.165 -0.3331 -0.4090 -2.3204
12886TIP3   OH260072   0.924   0.372   3.423 -0.7196  0.1396  0.1724
12886TIP3    H160073   0.976   0.429   3.480  1.4883 -1.3786 -0.2197
12886TIP3    H260074   0.866   0.432   3.376  0.2559  1.8562  1.0691
12887TIP3   OH260075   0.741   0.637  14.753 -0.5605 -0.2917 -0.0538
12887TIP3    H160076   0.683   0.671  14.685  0.3312 -0.8179 -1.0995
12887TIP3    H260077   0.823   0.618  14.708  1.0770  2.1179  1.7181
12888TIP3   OH260078   6.490   4.998  16.515 -0.5070 -0.0333 -0.4032
12888TIP3    H160079   6.503   5.001  16.420  0.2163 -0.4530 -0.3197
12888TIP3    H260080   6.553   5.060  16.550  0.3135 -1.0075 -0.1010
12889TIP3   OH260081   6.546   2.976   2.724  0.0400 -0.0407  0.4725
12889TIP3    H160082   6.590   3.032   2.788  0.2054  0.1923  0.1588
12889TIP3    H260083   6.492   3.036   2.673  1.0101  0.0143 -0.5461
12890TIP3   OH260084   5.565   0.156  13.213 -0.2210  0.3298  0.3121
12890TIP3    H160085   5.633   0.089  13.216 -0.4093  0.1786  2.2014
12890TIP3    H260086   5.554   0.174  13.119  1.5206 -0.5301 -0.1138
12891TIP3   OH260087   1.800   1.556   5.175 -0.2009  0.2057  0.2239
12891TIP3    H160088   1.895   1.550   5.165 -0.1876  0.2501  0.3211
12891TIP3    H260089   1.776   1.479   5.226  0.1154  1.5005  2.4876
12892TIP3   OH260090   3.731   2.105  12.633 -0.3010  0.5108  0.1535
12892TIP3    H160091   3.792   2.123  12.562 -2.5598  1.7817 -1.5725
12892TIP3    H260092   3.761   2.160  12.705  1.5800 -0.2288 -0.0034
12893TIP3   OH260093   0.665   0.308   4.880  0.3113  0.0999  0.3163
12893TIP3    H160094   0.736   0.370   4.895 -1.4784  2.1138  1.0624
12893TIP3    H260095   0.616   0.344   4.806 -2.1085  0.9943  2.2100
12894TIP3   OH260096   1.623   4.296  16.306 -0.3826  0.5783 -0.3758
12894TIP3    H160097   1.577   4.342  16.236 -1.3128  0.5861  0.2236
12894TIP3    H260098   1.684   4.360  16.342 -0.0396  0.6306 -1.0411
12895TIP3   OH260099   2.903   1.387  11.497  0.0281 -0.1225 -0.1582
12895TIP3    H160100   2.946   1.302  11.509 -0.5251 -0.3148  0.5495
12895TIP3    H260101   2.917   1.409  11.405  0.0167 -1.0638 -0.3890
12896TIP3   OH260102   2.115   1.627   5.479  0.1004  0.4970 -0.6104
12896TIP3    H160103   2.084   1.576   5.404  2.0550 -1.2305 -0.3311
12896TIP3    H260104   2.035   1.662   5.518 -1.1324 -0.3008 -2.2589
12897TIP3   OH260105   1.088   3.484  16.046  0.8649  0.1304  0.8176
12897TIP3    H160106   1.024   3.508  15.980 -0.7623 -0.3025  2.1676
12897TIP3    H260107   1.172   3.488  16.001 -0.2185 -0.7482 -1.4243
12898TIP3   OH260108   4.688   1.349   3.825  0.7180 -0.2262 -0.1494
12898TIP3    H160109   4.701   1.294   3.748  0.8941 -2.5516  1.4277
12898TIP3    H260110   4.599   1.383   3.816 -0.4778 -3.0046  0.0334
12899TIP3   OH260111   5.136   1.006   6.248 -0.3331 -0.2401  0.3290
12899TIP3    H160112   5.045   0.984   6.270 -0.4782 -0.2128 -0.2245
12899TIP3    H260113   5.144   1.099   6.269 -0.6840 -0.0382 -0.4132
12900TIP3   OH260114   2.490   2.974   0.719 -0.4457  0.4606 -0.1034
12900TIP3    H160115   2.451   3.019   0.645 -0.8104 -0.0318 -0.2186
12900TIP3    H260116   2.481   2.881   0.698  0.7957  0.3334 -0.1333
12901TIP3   OH260117   1.095   2.166   3.639 -0.7416  0.5102  0.4012
12901TIP3    H160118   1.032   2.110   3.594 -1.1290  2.0396 -1.0251
12901TIP3    H260119   1.043   2.236   3.677 -0.3135 -0.2683  2.5535
12902TIP3   OH260120   5.700   1.050  14.952  0.3869  0.1972 -0.4645
12902TIP3    H160121   5.604   1.054  14.951  0.2039 -2.2007 -1.9939
12902TIP3    H260122   5.728   1.130  14.908 -0.8816  1.0045  0.1223
12903TIP3   OH260123   4.769   2.979  14.153  0.2523  0.4845 -0.0312
12903TIP3    H160124   4.708   3.039  14.110  0.4721  0.1869 -0.7850
12903TIP3    H260125   4.719   2.941  14.225  0.0831  1.4963  0.3934
12904TIP3   OH260126   0.132   5.403   4.066  0.2095 -0.0423 -0.0111
12904TIP3    H160127   0.208   5.370   4.018  0.1163  0.1268 -0.2797
12904TIP3    H260128   0.121   5.342   4.139  0.0319 -0.6094 -0.5047
12905TIP3   OH260129   0.830   2.638   0.301 -0.1167 -0.1081 -0.7171
12905TIP3    H160130   0.830   2.542   0.305  0.9995 -0.0928  1.7886
12905TIP3    H260131   0.921   2.662   0.315 -0.5555  1.3224 -0.1829
12906TIP3   OH260132   0.462   2.781  11.547 -0.2222  0.0272 -0.3786
12906TIP3    H160133   0.390   2.761  11.606 -1.3162 -0.0711 -1.6897
12906TIP3    H260134   0.439   2.737  11.465  2.1171 -1.3755 -0.3894
12907TIP3   OH260135   3.306   4.408  12.809  0.2803  0.0821  0.5539
12907TIP3    H160136   3.221   4.364  12.818  0.3568 -0.3826 -0.7777
12907TIP3    H260137   3.287   4.485  12.755  0.6790  0.0530  0.3707
12908TIP3   OH260138   2.417   4.449   2.858 -0.0373  0.7271  0.3966
12908TIP3    H160139   2.442   4.418   2.770 -0.5873  1.9757 -0.2184
12908TIP3    H260140   2.321   4.448   2.856 -0.0486  1.0028  0.8999
12909TIP3   OH260141   1.464   6.052   1.275  0.2384 -0.3760  1.0543
12909TIP3    H160142   1.421   5.985   1.221  3.0692 -1.0535 -0.5149
12909TIP3    H260143   1.528   6.004   1.327  2.8355  1.0709 -0.6112
12910TIP3   OH260144   4.579   5.514  16.917 -0.4795  0.1771 -0.3564
12910TIP3    H160145   4.510   5.472  16.865 -0.3189 -0.8762  0.2609
12910TIP3    H260146   4.569   5.477  17.005  1.6345 -0.9410 -0.5373
12911TIP3   OH260147   6.261   6.676  13.796 -0.1894 -0.1050 -0.0539
12911TIP3    H160148   6.212   6.625  13.862 -3.8155  1.7132 -1.0639
12911TIP3    H260149   6.229   6.642  13.712  0.8193  0.7564 -0.7996
12912TIP3   OH260150   0.434   6.117   5.022 -0.0414  0.5488  0.0048
12912TIP3    H160151   0.519   6.076   5.037  0.2298  1.4274  0.9932
12912TIP3    H260152   0.451   6.211   5.026 -0.9759  0.7466 -0.2918
12913TIP3   OH260153   6.368   6.185  15.210  0.2238 -0.5100 -0.1087
12913TIP3    H160154   6.459   6.181  15.183 -0.1521  0.6095 -1.6944
12913TIP3    H260155   6.366   6.143  15.296  2.3326  0.0560  0.2659
12914TIP3   OH260156   0.588   0.869  16.286  0.1652 -0.3541  0.6071
12914TIP3    H160157   0.669   0.819  16.287  0.5500  0.2585  0.9179
12914TIP3    H260158   0.602   0.935  16.217  0.2939  0.3260  1.2713
12915TIP3   OH260159   0.762   4.861   4.999 -0.0723  0.0487 -0.3059
12915TIP3    H160160   0.802   4.943   4.970 -0.1192 -0.1170 -0.8555
12915TIP3    H260161   0.741   4.814   4.918 -0.3149 -0.3780 -0.0043
12916TIP3   OH260162   3.577   6.015   4.644  0.1110  0.0061 -0.2898
12916TIP3    H160163   3.593   5.956   4.718  1.1197  0.1517 -0.3827
12916TIP3    H260164   3.663   6.048   4.621 -0.3128  0.6586 -0.9615
12917TIP3   OH260165   3.317   4.860   4.806 -0.3669  0.0607  0.3387
12917TIP3    H160166   3.266   4.928   4.851 -0.1422  0.9220 -0.6939
12917TIP3    H260167   3.252   4.813   4.753 -0.1530  0.9757 -0.7556
12918TIP3   OH260168   5.812   3.278  15.070  0.5786 -0.3123 -0.3127
12918TIP3    H160169   5.764   3.257  15.150  1.5979  0.8193  0.6192
12918TIP3    H260170   5.787   3.208  15.009  1.5836 -2.5870  1.7002
12919TIP3   OH260171   0.901   0.635  15.965  0.1887 -0.2398 -0.1288
12919TIP3    H160172   0.842   0.700  15.928 -0.2444 -0.6974 -0.2487
12919TIP3    H260173   0.925   0.671  16.051  1.6104  1.0794 -1.0151
12920TIP3   OH260174   0.597   1.591   2.014 -0.0385  0.2490 -0.4745
12920TIP3    H160175   0.685   1.615   1.983  0.6859 -2.5117 -0.8390
12920TIP3    H260176   0.594   1.622   2.104  1.6578 -0.3045 -0.1925
12921TIP3   OH260177   1.582   4.758  16.829 -0.1823 -0.6850 -0.3360
12921TIP3    H160178   1.654   4.742  16.889 -0.2387 -1.2027 -0.4042
12921TIP3    H260179   1.597   4.698  16.756 -0.7771 -0.9289 -0.2659
12922TIP3   OH260180   2.464   4.939   5.134  0.3660 -0.3622 -0.1003
12922TIP3    H160181   2.415   5.015   5.166 -0.0504 -0.1414 -1.2206
12922TIP3    H260182   2.404   4.865   5.145 -0.7520  0.0751 -2.5324
12923TIP3   OH260183   1.844   0.114   1.767  0.0204  0.0636  0.1454
12923TIP3    H160184   1.761   0.118   1.814 -0.7277  2.4215 -1.2234
12923TIP3    H260185   1.833   0.041   1.706 -0.7323 -0.1389  0.5081
12924TIP3   OH260186   1.929   1.852  15.794 -0.1052  0.8015 -0.0390
12924TIP3    H160187   1.872   1.917  15.837  0.1953  0.4621  0.8927
12924TIP3    H260188   1.938   1.782  15.858  0.3302  0.2601 -0.6801
12925TIP3   OH260189   4.461   1.563  16.690  0.4373 -0.1260  0.4156
12925TIP3    H160190   4.430   1.586  16.602 -1.2863 -0.1104  0.9937
12925TIP3    H260191   4.531   1.500  16.674 -0.1679 -0.4929 -0.9830
12926TIP3   OH260192   5.655   1.987   2.387  0.3705 -0.8608 -0.0099
12926TIP3    H160193   5.603   1.958   2.462  0.9049 -0.9319  0.3365
12926TIP3    H260194   5.735   2.024   2.425  0.3676 -0.3183 -0.5144
12927TIP3   OH260195   4.006   5.885  15.358  0.5039 -0.5103  0.3808
12927TIP3    H160196   4.009   5.935  15.440 -1.5562 -0.1845  0.3023
12927TIP3    H260197   3.917   5.897  15.325  1.6543  0.5732 -2.7033
12928TIP3   OH260198   4.446   6.563   0.170  0.2290  0.2170  0.4617
12928TIP3    H160199   4.520   6.540   0.226 -1.1268  1.2605  2.8444
12928TIP3    H260200   4.460   6.655   0.148 -0.3400  0.4290  0.9520
12929TIP3   OH260201   1.873   2.747  12.493  0.4648  0.0234 -0.7274
12929TIP3    H160202   1.800   2.747  12.555 -0.1822 -2.4532 -1.3846
12929TIP3    H260203   1.943   2.700  12.539  0.4103 -0.7180 -1.3922
12930TIP3   OH260204   4.265   6.122   5.089  0.0421 -0.1113 -0.1320
12930TIP3    H160205   4.232   6.033   5.080  2.2309 -0.8758 -1.3525
12930TIP3    H260206   4.341   6.114   5.146  0.6673  0.8558 -0.8083
12931TIP3   OH260207   2.082   3.870   5.099  0.4777  0.4727 -0.2801
12931TIP3    H160208   1.996   3.864   5.057  0.9356  1.5977 -1.4673
12931TIP3    H260209   2.084   3.798   5.161 -1.0086 -0.0664 -0.8158
12932TIP3   OH260210   4.148   4.707   2.309  0.0693 -0.4238 -0.2649
12932TIP3    H160211   4.150   4.688   2.215 -1.2998 -2.2478  0.0204
12932TIP3    H260212   4.192   4.632   2.350  2.1748  1.1459  0.4993
12933TIP3   OH260213   0.526   1.787   4.147 -0.1980 -0.0203 -0.0148
12933TIP3    H160214   0.502   1.753   4.233 -0.6658 -0.5029 -0.3352
12933TIP3    H260215   0.596   1.729   4.117  0.3869  0.5092  0.2891
12934TIP3   OH260216   0.877   6.557  11.454  0.1385  0.0181  0.0908
12934TIP3    H160217   0.815   6.500  11.499 -1.1970  1.8468  0.7104
12934TIP3    H260218   0.963   6.529  11.485 -0.5652 -0.7380  1.4496
12935TIP3   OH260219   4.025   5.252   1.165 -0.1903 -0.2007  0.7683
12935TIP3    H160220   3.992   5.266   1.254 -0.3417  0.3805  0.6238
12935TIP3    H260221   4.107   5.204   1.178  0.5316  1.1412  1.3077
12936TIP3   OH260222   1.110   6.300   3.405 -0.0382  0.0559  0.2030
12936TIP3    H160223   1.124   6.298   3.311  1.0452  0.1015  0.3496
12936TIP3    H260224   1.162   6.374   3.436 -2.8010  2.0185  0.4965
12937TIP3   OH260225   0.174   6.175   2.558 -0.2530 -0.0014  0.1572
12937TIP3    H160226   0.254   6.186   2.609 -0.0483  0.7050 -0.2933
12937TIP3    H260227   0.133   6.262   2.560  0.7802  0.6864 -2.5237
12938TIP3   OH260228   2.234   4.913  13.364  0.1842 -0.0496 -0.5791
12938TIP3    H160229   2.168   4.906  13.296  0.0606 -0.2898 -0.4369
12938TIP3    H260230   2.191   4.881  13.443  1.2084 -2.7674 -0.9847
12939TIP3   OH260231   2.232   4.094  11.024  0.2612  0.0561  0.0693
12939TIP3    H160232   2.171   4.165  11.006  0.2575  0.4795  1.6199
12939TIP3    H260233   2.302   4.105  10.960 -0.3895  0.6478 -0.5585
12940TIP3   OH260234   3.249   1.876  15.719  0.2580  0.3117 -0.0469
12940TIP3    H160235   3.249   1.950  15.659  0.8100  0.0528 -0.3828
12940TIP3    H260236   3.169   1.828  15.699 -1.2811  2.0092  1.7223
12941TIP3   OH260237   5.896   0.129  16.199  0.4955  0.0408  0.2893
12941TIP3    H160238   5.855   0.093  16.120  0.7739 -0.7214  0.4789
12941TIP3    H260239   5.974   0.174  16.167 -0.2528  1.1359 -0.0291
12942TIP3   OH260240   4.495   6.651   0.683 -0.4702  0.0135  0.7777
12942TIP3    H160241   4.421   6.590   0.686 -1.9058  1.7041  1.6655
12942TIP3    H260242   4.516   6.658   0.590 -0.7035 -1.3034  0.6055
12943TIP3   OH260243   0.367   2.120  16.094  0.1987  0.3292  0.1329
12943TIP3    H160244   0.355   2.075  16.011 -0.1511 -1.0298  0.8972
12943TIP3    H260245   0.351   2.054  16.160 -0.2009  1.5554  1.3106
12944TIP3   OH260246   1.109   3.902   1.844  0.1028  0.0908  0.5514
12944TIP3    H160247   1.119   3.958   1.767 -0.3352  0.4297  0.7356
12944TIP3    H260248   1.028   3.854   1.828 -0.3660  0.6735  1.1132
12945TIP3   OH260249   2.336   5.299  13.395  0.2061  0.5574 -0.5532
12945TIP3    H160250   2.305   5.344  13.316  0.5611  2.1898  0.1902
12945TIP3    H260251   2.380   5.220  13.362 -2.0609 -0.2692 -1.7991
12946TIP3   OH260252   6.199   2.911   5.395 -0.0217 -0.7712 -0.4663
12946TIP3    H160253   6.240   2.997   5.397  0.6054 -1.0730 -0.1657
12946TIP3    H260254   6.269   2.850   5.414 -0.6178 -1.2956  0.1024
12947TIP3   OH260255   6.083   5.231  13.837 -0.3480 -0.1774  0.1600
12947TIP3    H160256   6.173   5.223  13.807  0.0696 -0.3800  1.4106
12947TIP3    H260257   6.041   5.148  13.811 -0.1599 -0.1196 -0.3380
12948TIP3   OH260258   1.585   0.428  14.438 -0.3214  0.2332 -0.2651
12948TIP3    H160259   1.553   0.419  14.348 -0.3699 -0.8458 -0.1546
12948TIP3    H260260   1.673   0.392  14.436  0.0836  1.1759 -0.0911
12949TIP3   OH260261   5.400   0.972   4.553  0.2303 -0.1429  0.2644
12949TIP3    H160262   5.451   0.930   4.483 -1.0835 -1.1822 -0.1020
12949TIP3    H260263   5.324   1.009   4.508 -1.8219 -2.7493  1.3361
12950TIP3   OH260264   4.178   5.105  16.480 -0.2900 -0.0741  0.1541
12950TIP3    H160265   4.125   5.184  16.484 -0.6475 -0.3357  1.2779
12950TIP3    H260266   4.266   5.135  16.459 -0.7344  0.4477 -0.9915
12951TIP3   OH260267   1.512   5.184  14.334  0.0100  0.1457  0.2939
12951TIP3    H160268   1.585   5.151  14.387  0.3238  0.6779  0.2008
12951TIP3    H260269   1.539   5.169  14.244 -0.7309 -1.1999  0.2696
12952TIP3   OH260270   4.662   0.673   0.643  0.4992 -1.0428  0.4748
12952TIP3    H160271   4.666   0.734   0.569  1.7794  0.1913  1.4995
12952TIP3    H260272   4.709   0.595   0.612 -0.3708 -1.1828 -0.5477
12953TIP3   OH260273   4.364   5.200   2.374 -0.2431 -0.1310 -0.7174
12953TIP3    H160274   4.291   5.169   2.320 -0.1200 -1.7838  0.0094
12953TIP3    H260275   4.324   5.265   2.432 -1.1990 -1.1926 -0.1590
12954TIP3   OH260276   4.167   0.389  13.032 -0.1693  0.2993  0.0548
12954TIP3    H160277   4.166   0.405  12.938  0.7527 -0.2393 -0.0561
12954TIP3    H260278   4.259   0.373  13.053 -0.5876 -1.3996  0.7376
12955TIP3   OH260279   5.156   2.801  15.318  0.3433  0.1516 -0.6642
12955TIP3    H160280   5.134   2.836  15.232 -0.6123 -0.7237 -0.8031
12955TIP3    H260281   5.212   2.867  15.358  0.4403  0.7657 -1.7899
12956TIP3   OH260282   3.590   2.159  16.528 -0.1845 -0.0870 -0.5532
12956TIP3    H160283   3.658   2.226  16.536  0.0045 -0.4557  1.4466
12956TIP3    H260284   3.522   2.185  16.590 -1.3235 -0.3883 -1.6290
12957TIP3   OH260285   4.649   1.688  13.705  0.1502 -0.3886 -0.5283
12957TIP3    H160286   4.661   1.773  13.747 -0.7214 -0.9944  1.0101
12957TIP3    H260287   4.598   1.708  13.626  0.3889  0.5797 -0.4462
12958TIP3   OH260288   1.556   4.674   4.503 -0.1463 -0.6596  0.3147
12958TIP3    H160289   1.542   4.767   4.487  1.0543 -0.1328  2.0875
12958TIP3    H260290   1.494   4.651   4.571  0.4395 -0.8140  0.8115
12959TIP3   OH260291   1.060   1.284  14.374  0.0668  0.5616  0.0489
12959TIP3    H160292   1.046   1.225  14.299  1.3210 -1.2611  1.1545
12959TIP3    H260293   0.972   1.314  14.397 -0.7929 -1.7497  0.0667
12960TIP3   OH260294   5.453   5.164   5.713 -0.2366  0.2484  0.1767
12960TIP3    H160295   5.411   5.191   5.631  0.7788 -1.6646 -1.0641
12960TIP3    H260296   5.437   5.070   5.718  0.6742  0.1397  1.6285
12961TIP3   OH260297   1.465   0.994   3.233  0.8129  0.1901  0.2348
12961TIP3    H160298   1.532   0.928   3.214 -0.5382 -0.6324 -2.0037
12961TIP3    H260299   1.382   0.947   3.226 -0.1522  1.8899 -0.4629
12962TIP3   OH260300   0.781   5.601  11.084  0.0125 -0.3228  0.2445
12962TIP3    H160301   0.818   5.623  10.998  0.3303  1.1385  0.7194
12962TIP3    H260302   0.691   5.633  11.079 -0.4411 -1.5924 -0.0403
12963TIP3   OH260303   1.181   4.461  14.827 -0.1106 -0.4230  0.3758
12963TIP3    H160304   1.086   4.465  14.817 -0.1269  0.2209  0.7020
12963TIP3    H260305   1.205   4.374  14.796 -0.8490 -0.7267  0.6427
12964TIP3   OH260306   2.893   6.225   2.798 -0.2270  0.2794 -0.2538
12964TIP3    H160307   2.951   6.291   2.760 -0.3189  0.1461 -0.6311
12964TIP3    H260308   2.808   6.241   2.757  0.0683 -0.9621 -1.4375
12965TIP3   OH260309   1.232   2.603   0.738 -0.2752 -0.6228  0.1727
12965TIP3    H160310   1.233   2.637   0.648 -1.7115 -0.1413  0.3203
12965TIP3    H260311   1.182   2.668   0.787  1.8525 -0.0127  1.7037
12966TIP3   OH260312   5.616   5.613   5.016 -0.1340 -0.3153 -0.8461
12966TIP3    H160313   5.539   5.587   4.964  1.3143 -0.6517 -2.9308
12966TIP3    H260314   5.654   5.530   5.044 -1.6681 -0.1592  2.1423
12967TIP3   OH260315   0.639   4.674  10.485  0.0967 -0.4022  0.1573
12967TIP3    H160316   0.680   4.670  10.398  1.4213 -0.9284  0.7799
12967TIP3    H260317   0.607   4.764  10.491 -0.5996 -0.5403 -1.1210
12968TIP3   OH260318   4.012   3.468   4.698  0.4438 -0.8523 -0.1279
12968TIP3    H160319   4.106   3.487   4.689  0.4570 -0.9063 -0.1071
12968TIP3    H260320   4.009   3.387   4.748  0.3633  0.1278  1.5411
12969TIP3   OH260321   3.757   0.042   3.753 -0.0289  0.2727 -0.1911
12969TIP3    H160322   3.778  -0.034   3.698 -0.3025  0.4741 -0.5786
12969TIP3    H260323   3.720   0.004   3.833 -0.4650 -0.0022 -0.5124
12970TIP3   OH260324   2.307   6.663  12.992 -0.2257 -0.9960 -0.2087
12970TIP3    H160325   2.218   6.681  13.021  0.5870 -0.1168  1.9671
12970TIP3    H260326   2.351   6.629  13.070  2.2431  1.8826 -0.1528
12971TIP3   OH260327   3.227   1.407   5.644 -0.2039  0.2493  0.3527
12971TIP3    H160328   3.134   1.413   5.625  0.2587 -0.7671 -2.7610
12971TIP3    H260329   3.249   1.315   5.631  1.6028  0.8292 -1.2681
12972TIP3   OH260330   0.874   5.906   3.597 -0.3594 -0.6845  0.1303
12972TIP3    H160331   0.926   5.987   3.602  1.8579 -2.0832  1.5814
12972TIP3    H260332   0.822   5.916   3.518  0.6346  1.7089 -0.3103
12973TIP3   OH260333   3.709   5.107  14.818  0.5872 -0.3662  0.4848
12973TIP3    H160334   3.708   5.141  14.908 -0.1416 -0.1528  0.4086
12973TIP3    H260335   3.629   5.142  14.779  1.9161  1.2927 -0.9178
12974TIP3   OH260336   6.443   0.450   5.816  0.0900  0.6445  0.7618
12974TIP3    H160337   6.395   0.533   5.821  0.5178  0.9156  0.4146
12974TIP3    H260338   6.457   0.425   5.907 -0.6428  0.5968  0.8701
12975TIP3   OH260339   0.507   1.065  16.464 -0.0514 -0.0566  0.2819
12975TIP3    H160340   0.462   0.997  16.413 -0.0260  0.1974 -0.0804
12975TIP3    H260341   0.600   1.043  16.457 -0.0708 -0.2131  0.5004
12976TIP3   OH260342   0.502   5.943  13.291 -0.0869  0.9089 -0.0150
12976TIP3    H160343   0.576   5.949  13.231  0.7192  0.6104  0.9316
12976TIP3    H260344   0.459   6.028  13.285  0.4985  1.1848 -0.3588
12977TIP3   OH260345   2.621   5.771  12.820 -0.2462  0.0577  0.2899
12977TIP3    H160346   2.659   5.704  12.763 -0.3932 -1.9259  2.3987
12977TIP3    H260347   2.598   5.843  12.760  1.8169 -0.8688 -1.7851
12978TIP3   OH260348   6.748   0.078  12.009  0.2477  0.1223  0.4617
12978TIP3    H160349   6.737   0.133  12.086 -0.4086 -1.7049  1.7477
12978TIP3    H260350   6.679   0.106  11.949  0.5074  1.2868  0.6802
12979TIP3   OH260351   6.350   1.062  13.071 -0.3309  0.5645 -0.3286
12979TIP3    H160352   6.401   1.108  13.138 -2.2946  1.5627  0.5371
12979TIP3    H260353   6.371   0.969  13.086  0.0014  0.8304  1.0464
12980TIP3   OH260354   4.411   3.316   1.215  0.2109  0.1689  0.6493
12980TIP3    H160355   4.485   3.301   1.274  1.3855  0.9258 -0.5901
12980TIP3    H260356   4.434   3.269   1.135 -1.1689 -0.4992  0.6082
12981TIP3   OH260357   1.769   2.402   1.792 -0.1250  0.3580  0.5199
12981TIP3    H160358   1.789   2.475   1.733 -1.0596 -0.5718 -1.0220
12981TIP3    H260359   1.853   2.380   1.832  0.2946  1.8290  0.4877
12982TIP3   OH260360   3.514   2.412   0.283 -0.1202  0.6900 -0.0171
12982TIP3    H160361   3.441   2.417   0.345  0.4933 -1.1960  0.9325
12982TIP3    H260362   3.482   2.355   0.213  0.0299  0.8357 -0.2061
12983TIP3   OH260363   1.519   4.526   1.478  0.1713  0.2403 -0.2435
12983TIP3    H160364   1.498   4.556   1.390 -2.7057  0.4100  0.4034
12983TIP3    H260365   1.515   4.431   1.473  1.8048  0.1728 -0.6520
12984TIP3   OH260366   0.330   5.416  12.238 -0.1106  0.0370 -0.0453
12984TIP3    H160367   0.372   5.491  12.195  0.7680 -1.0222 -1.1154
12984TIP3    H260368   0.237   5.439  12.240 -0.0260  0.6474 -1.5005
12985TIP3   OH260369   5.511   2.273  12.527 -0.4704  0.2133  0.4897
12985TIP3    H160370   5.423   2.245  12.502 -1.1972  1.5428  1.4416
12985TIP3    H260371   5.526   2.353  12.477  0.0661  0.1800  0.5902
12986TIP3   OH260372   0.654   1.646  11.519 -0.1112 -0.4420 -0.1749
12986TIP3    H160373   0.703   1.589  11.460 -0.4556 -1.3860  0.4369
12986TIP3    H260374   0.597   1.587  11.569  0.8147  0.2168  1.7450
12987TIP3   OH260375   0.832   5.699   3.100  0.5872 -0.4588  0.6373
12987TIP3    H160376   0.751   5.652   3.120 -0.4241 -0.0068 -1.9601
12987TIP3    H260377   0.805   5.790   3.090  1.3482 -0.3284 -0.4514
12988TIP3   OH260378   1.438   0.169   1.679  0.5602 -0.3193 -0.2988
12988TIP3    H160379   1.361   0.114   1.664  0.9111 -0.8586 -0.1331
12988TIP3    H260380   1.438   0.185   1.773  0.4973 -0.0843 -0.3367
12989TIP3   OH260381   2.018   2.022   0.521  0.9076 -0.3799  0.3487
12989TIP3    H160382   1.968   2.076   0.460  0.2589 -1.5804 -0.2239
12989TIP3    H260383   2.085   1.981   0.468 -0.8253 -2.9325 -0.0637
12990TIP3   OH260384   4.662   3.937  12.255  0.4431 -0.5807 -0.2721
12990TIP3    H160385   4.656   3.844  12.231  2.1471 -0.9650  0.6640
12990TIP3    H260386   4.680   3.981  12.172  0.5888 -1.2016 -0.5768
12991TIP3   OH260387   1.518   1.185   0.967 -0.2370 -0.1437  0.8361
12991TIP3    H160388   1.570   1.120   1.013 -1.3112 -0.8139  1.1356
12991TIP3    H260389   1.451   1.135   0.921 -0.4018  0.6715  0.1502
12992TIP3   OH260390   1.142   6.590   5.821 -0.4292  0.1214  0.0641
12992TIP3    H160391   1.082   6.582   5.895  0.1469  0.9506  0.6362
12992TIP3    H260392   1.121   6.674   5.781 -0.3403 -0.0546 -0.3632
12993TIP3   OH260393   5.086   0.692   0.194  0.4090  0.3405 -0.6851
12993TIP3    H160394   5.109   0.785   0.190 -0.8757  0.6822 -0.8414
12993TIP3    H260395   5.135   0.658   0.269 -1.8742  2.0168  1.7530
12994TIP3   OH260396   6.713   3.366   0.684  0.4409 -0.7835 -0.6433
12994TIP3    H160397   6.783   3.411   0.638  0.6994 -1.7965 -1.2714
12994TIP3    H260398   6.723   3.393   0.776  0.1256  0.9783 -1.1005
12995TIP3   OH260399   4.343   3.712   2.612  0.6195 -0.3145 -0.1799
12995TIP3    H160400   4.428   3.732   2.651  0.7785 -0.3620 -0.5044
12995TIP3    H260401   4.353   3.623   2.578  0.5156 -0.2254 -0.4372
12996TIP3   OH260402   0.524   4.558  11.871 -0.0537  0.5915  0.3065
12996TIP3    H160403   0.595   4.498  11.894 -0.0477  0.9306  1.2176
12996TIP3    H260404   0.524   4.623  11.942 -1.0261  0.8111  0.1189
12997TIP3   OH260405   2.502   2.584   0.272  0.2560  0.0769  0.2701
12997TIP3    H160406   2.502   2.632   0.189 -0.6458  0.5281  0.5144
12997TIP3    H260407   2.414   2.597   0.307  0.7090  0.1368  1.4397
12998TIP3   OH260408   3.688   3.678   3.318  0.2415  0.3783 -1.0072
12998TIP3    H160409   3.755   3.661   3.383 -1.7416 -1.0357  0.8133
12998TIP3    H260410   3.713   3.625   3.242  1.5083  0.4497 -0.6561
12999TIP3   OH260411   5.360   5.204  14.332 -0.1687 -0.1903  0.2753
12999TIP3    H160412   5.418   5.137  14.295 -0.4884 -0.2443 -0.1300
12999TIP3    H260413   5.286   5.154  14.367  0.1287 -0.1408  0.9956
13000TIP3   OH260414   2.084   5.836   0.168  0.5286  0.3775 -0.4277
13000TIP3    H160415   2.147   5.830   0.097  0.0175  0.7940 -0.9264
13000TIP3    H260416   2.022   5.765   0.152  1.0767 -0.2702  0.2756
13001TIP3   OH260417   0.970   3.093   4.657  0.1636 -0.1826 -0.3597
13001TIP3    H160418   1.011   3.036   4.721 -1.5774 -0.1639  0.8403
13001TIP3    H260419   0.914   3.035   4.605 -1.8724  0.4001  1.0840
13002TIP3   OH260420   5.735   2.666  10.885  0.2228 -0.3781 -0.4499
13002TIP3    H160421   5.693   2.605  10.825 -0.6831 -0.4846  0.2602
13002TIP3    H260422   5.675   2.741  10.888  0.8174  0.1064 -0.5351
13003TIP3   OH260423   2.139   3.349  14.036  0.3300 -0.0372 -0.5554
13003TIP3    H160424   2.162   3.371  13.946 -1.1817  1.2983 -0.6570
13003TIP3    H260425   2.044   3.345  14.036  0.3518 -1.1623  0.7538
13004TIP3   OH260426   0.040   1.522   4.404 -0.1562  0.6953  0.3875
13004TIP3    H160427  -0.034   1.488   4.355  1.1428  0.1671 -1.2844
13004TIP3    H260428   0.091   1.572   4.340  0.8488  1.1866  1.5293
13005TIP3   OH260429   4.193   0.087  15.149 -0.3982 -0.2932 -0.0390
13005TIP3    H160430   4.198   0.016  15.085 -1.3742  0.6582 -1.2268
13005TIP3    H260431   4.277   0.085  15.194  1.4041  0.5930 -3.1155
13006TIP3   OH260432   5.147   1.658  13.287  0.9734  0.0059 -0.1430
13006TIP3    H160433   5.148   1.569  13.252 -1.6672  1.0112 -3.2571
13006TIP3    H260434   5.054   1.681  13.293  1.5186  2.1410  1.8939
13007TIP3   OH260435   2.747   0.683   3.540 -0.5462  1.2553 -0.2213
13007TIP3    H160436   2.688   0.615   3.505  1.0690  0.3394 -1.2979
13007TIP3    H260437   2.801   0.637   3.604  0.2402  1.6178 -0.6117
13008TIP3   OH260438   1.023   1.164   5.222  0.0523 -0.1184 -0.4684
13008TIP3    H160439   1.056   1.086   5.177  2.5118  0.3007  0.4557
13008TIP3    H260440   0.945   1.134   5.269  0.0288 -1.6176 -1.4105
13009TIP3   OH260441   0.981   4.589  12.942 -0.2484 -0.0425  0.6276
13009TIP3    H160442   0.922   4.514  12.945  0.4331 -0.7753 -1.8534
13009TIP3    H260443   0.928   4.660  12.907 -0.2693 -0.0114  0.7197
13010TIP3   OH260444   3.630   0.236  15.733 -0.4135  0.1315 -0.6225
13010TIP3    H160445   3.677   0.221  15.815  1.4470  0.9003 -1.4768
13010TIP3    H260446   3.696   0.276  15.675 -0.8565 -2.7501 -3.3757
13011TIP3   OH260447   2.103   5.470  11.688  0.0696  0.4579  0.3021
13011TIP3    H160448   2.008   5.461  11.680  0.0361  1.9143 -1.9132
13011TIP3    H260449   2.120   5.561  11.666  1.9851  0.2937  0.9242
13012TIP3   OH260450   4.549   6.073   4.236  0.0557  0.4872  0.7483
13012TIP3    H160451   4.575   6.049   4.147  0.7949  0.9863  0.8200
13012TIP3    H260452   4.578   6.164   4.246 -1.2511  0.8960  1.0364
13013TIP3   OH260453   1.941   2.215  14.542 -0.6918  0.7298 -0.3310
13013TIP3    H160454   1.896   2.198  14.459  2.1271 -2.2973 -1.4678
13013TIP3    H260455   1.922   2.138  14.596  2.6955 -0.6356 -0.8287
13014TIP3   OH260456   3.714   6.136   3.220  0.3162 -0.0411 -0.0950
13014TIP3    H160457   3.780   6.069   3.237  1.8151  1.3433 -0.2255
13014TIP3    H260458   3.748   6.185   3.145 -1.6344 -0.2371 -1.1834
13015TIP3   OH260459   1.074   1.673  16.201 -0.0467 -0.1009 -0.3916
13015TIP3    H160460   1.043   1.762  16.181  1.0481 -0.1728 -2.7037
13015TIP3    H260461   1.010   1.640  16.264 -1.2669  1.8483 -0.5064
13016TIP3   OH260462   3.448   2.408   2.182  0.1183 -0.2269 -0.1877
13016TIP3    H160463   3.375   2.468   2.169 -0.1304  0.2515  2.7362
13016TIP3    H260464   3.410   2.334   2.229  1.6219  0.5931  2.5290
13017TIP3   OH260465   1.463   3.751  16.347  0.6215  0.2222 -0.8726
13017TIP3    H160466   1.557   3.744  16.362  0.4030  0.3873  0.8185
13017TIP3    H260467   1.431   3.801  16.422 -0.6356  1.4024 -2.1381
13018TIP3   OH260468   0.610   5.878  15.591 -0.2199 -1.1958 -0.1320
13018TIP3    H160469   0.666   5.824  15.534  0.7692 -2.6909  2.1200
13018TIP3    H260470   0.525   5.835  15.587 -0.4858 -0.6126 -1.3176
13019TIP3   OH260471   2.435   1.712   5.729  0.3395  0.4155  0.3379
13019TIP3    H160472   2.421   1.627   5.770  2.4412  0.9524  2.3425
13019TIP3    H260473   2.397   1.775   5.791  0.0666  1.0402 -0.4423
13020TIP3   OH260474   1.600   6.195  12.001 -0.3043  0.6410 -0.1718
13020TIP3    H160475   1.690   6.226  12.001 -0.7295  2.1362 -2.1711
13020TIP3    H260476   1.575   6.192  12.093  2.0860 -0.9461  0.5189
13021TIP3   OH260477   4.099   5.446  14.822 -0.1944 -0.0937  0.1062
13021TIP3    H160478   4.026   5.457  14.761 -1.3266 -2.2453  0.9848
13021TIP3    H260479   4.098   5.527  14.874 -0.6262  0.7833 -1.2037
13022TIP3   OH260480   3.236   1.108   4.782  0.2481 -0.3901 -0.3064
13022TIP3    H160481   3.145   1.081   4.785 -0.9505  3.2612  1.1095
13022TIP3    H260482   3.268   1.101   4.872  1.1434 -0.9129 -0.6459
13023TIP3   OH260483   2.163   0.363  14.915  0.0257 -0.0138  0.2301
13023TIP3    H160484   2.148   0.277  14.954  1.1897 -0.0743  0.5725
13023TIP3    H260485   2.200   0.415  14.987  1.0061  0.2394 -0.4444
13024TIP3   OH260486   0.877   1.896  16.014 -0.0454 -0.3672  0.2586
13024TIP3    H160487   0.965   1.933  16.003 -0.4534  0.7897  0.7756
13024TIP3    H260488   0.825   1.938  15.947 -0.4983 -0.0854  0.7857
13025TIP3   OH260489   1.472   5.613   0.981 -0.0030  0.4162 -0.1828
13025TIP3    H160490   1.422   5.597   1.062  1.5126 -0.3785  0.6549
13025TIP3    H260491   1.548   5.555   0.989  0.1797  0.3283 -2.2022
13026TIP3   OH260492   1.598   6.558  11.804  0.2254  0.4121  0.1570
13026TIP3    H160493   1.587   6.533  11.896  1.5065  1.2875  0.5768
13026TIP3    H260494   1.680   6.606  11.802 -0.1433  1.0330 -1.3373
13027TIP3   OH260495   4.749   3.199   0.881  0.4977 -0.4906  0.4846
13027TIP3    H160496   4.779   3.288   0.897  0.2286 -0.3155  0.0219
13027TIP3    H260497   4.729   3.196   0.788 -2.0311 -0.2510  0.9358
13028TIP3   OH260498   0.883   3.169   2.451 -0.7080 -0.6256 -0.0176
13028TIP3    H160499   0.895   3.126   2.366  0.0866 -3.7776  1.5378
13028TIP3    H260500   0.972   3.181   2.485 -1.0296  0.1746  0.5697
13029TIP3   OH260501   3.674   4.518  11.951 -0.1068 -0.3318 -0.0685
13029TIP3    H160502   3.687   4.613  11.960 -0.7845 -0.0470 -1.8153
13029TIP3    H260503   3.720   4.495  11.870  1.7462 -1.8834  1.3338
13030TIP3   OH260504   5.092   5.571  14.663 -0.0298 -0.3940 -0.1791
13030TIP3    H160505   5.036   5.611  14.730 -0.0235 -0.2207 -0.2771
13030TIP3    H260506   5.032   5.522  14.607  0.0594 -1.2506  0.4550
13031TIP3   OH260507   2.076   5.304   1.342 -0.0583 -0.4792  0.0206
13031TIP3    H160508   2.076   5.309   1.437  0.2815  0.1500 -0.0074
13031TIP3    H260509   2.030   5.383   1.314 -0.8099 -1.0320 -0.3239
13032TIP3   OH260510   2.124   2.224   5.587  0.1158  0.2763  0.0133
13032TIP3    H160511   2.135   2.255   5.677 -0.3625  0.0285  0.1573
13032TIP3    H260512   2.099   2.302   5.537  3.5682  1.1753 -0.5760
13033TIP3   OH260513   3.995   5.692  13.378  0.0418  0.2891  0.2093
13033TIP3    H160514   3.920   5.694  13.318 -0.2376 -0.0898  0.5355
13033TIP3    H260515   4.066   5.734  13.330 -1.0101  2.8761  0.7552
13034TIP3   OH260516   2.007   3.598   4.136  0.0410 -0.0443  0.1087
13034TIP3    H160517   1.949   3.547   4.081 -1.5838  0.2365  1.4770
13034TIP3    H260518   2.074   3.632   4.076 -0.4563 -1.4210 -1.2906
13035TIP3   OH260519   3.071   5.305   1.700 -0.7717  0.2286 -0.0375
13035TIP3    H160520   3.108   5.240   1.759 -1.1199  1.6411  1.8386
13035TIP3    H260521   3.144   5.331   1.644 -0.1232 -0.3303  0.5348
13036TIP3   OH260522   6.466   2.693   0.452 -0.0234  0.0648 -0.0226
13036TIP3    H160523   6.514   2.776   0.455  0.6420 -0.3508  2.0838
13036TIP3    H260524   6.402   2.706   0.382  0.1448  2.3117  0.1491
13037TIP3   OH260525   0.235   4.025   2.619  0.4470 -0.8635  0.4584
13037TIP3    H160526   0.267   4.015   2.709  2.3945  0.1233 -0.0772
13037TIP3    H260527   0.293   4.089   2.580 -1.6323  0.2880 -0.9386
13038TIP3   OH260528   3.006   4.879   4.436  0.3921 -0.1813 -0.3148
13038TIP3    H160529   2.978   4.847   4.350  0.9158  0.3561 -0.6936
13038TIP3    H260530   2.935   4.937   4.464  2.1437  3.3858 -2.4984
13039TIP3   OH260531   2.707   2.113   0.530 -0.4794  0.8819  0.3629
13039TIP3    H160532   2.722   2.126   0.436 -0.6542  0.6246  0.2986
13039TIP3    H260533   2.769   2.173   0.572 -1.4666  2.1508  0.0783
13040TIP3   OH260534   4.760   2.734   3.054 -0.0934 -0.0271  0.5465
13040TIP3    H160535   4.665   2.734   3.039 -0.0191 -0.0622  0.0655
13040TIP3    H260536   4.796   2.778   2.977  0.2457  0.4536  0.9722
13041TIP3   OH260537   4.014   3.933  15.050  0.1264 -0.4789  0.0972
13041TIP3    H160538   4.098   3.955  15.010  0.1261 -1.4558 -0.4737
13041TIP3    H260539   3.974   4.018  15.070 -0.2321  0.1399 -2.7553
13042TIP3   OH260540   1.972   5.365   1.870  0.9221  0.4150  0.1760
13042TIP3    H160541   2.065   5.359   1.846  1.4635  1.6904  1.7597
13042TIP3    H260542   1.958   5.289   1.927  1.6117  1.3728  1.6829
13043TIP3   OH260543   5.478   1.237  14.291 -0.1050  0.3770  0.4078
13043TIP3    H160544   5.494   1.153  14.250 -0.1162  0.1585  0.8461
13043TIP3    H260545   5.514   1.228  14.380  2.4358  1.7158 -0.3869
13044TIP3   OH260546   4.106   1.441  17.053  0.1200  0.3743 -0.2303
13044TIP3    H160547   4.177   1.452  17.117 -0.1659  1.5123 -0.0898
13044TIP3    H260548   4.131   1.496  16.979  0.9221 -1.6666 -1.5722
13045TIP3   OH260549   4.396   4.056   0.737  0.1077 -0.2708  0.1550
13045TIP3    H160550   4.394   4.077   0.831 -0.0812 -0.7087  0.2508
13045TIP3    H260551   4.407   4.141   0.694  0.8442 -0.1305  0.5978
13046TIP3   OH260552   6.107   4.436   1.019  0.3056 -0.3763 -0.0609
13046TIP3    H160553   6.043   4.372   1.047 -2.3626  1.1740 -2.1443
13046TIP3    H260554   6.082   4.517   1.064  0.8173  0.2582 -0.8881
13047TIP3   OH260555   4.674   3.232  13.760  0.0645 -0.4031  0.6231
13047TIP3    H160556   4.764   3.238  13.792  0.6441 -1.6481 -0.6192
13047TIP3    H260557   4.623   3.203  13.836  0.6248  0.6249  1.4239
13048TIP3   OH260558   4.283   0.530   0.400 -0.2269 -0.2469 -0.2990
13048TIP3    H160559   4.342   0.481   0.457 -1.1493 -1.1673 -0.1090
13048TIP3    H260560   4.196   0.511   0.434 -0.6094  1.5660 -0.2213
13049TIP3   OH260561   5.849   4.081  12.337  0.3147  0.9287  0.0833
13049TIP3    H160562   5.791   4.092  12.262 -0.2831  0.9125  0.5363
13049TIP3    H260563   5.844   3.988  12.358  1.2533  0.7429 -0.4632
13050TIP3   OH260564   0.286   4.488   3.226  0.1258 -0.1265 -0.7089
13050TIP3    H160565   0.223   4.428   3.266 -1.9707  1.1134 -1.9431
13050TIP3    H260566   0.366   4.477   3.277 -0.4959 -3.1104 -0.1920
13051TIP3   OH260567   1.483   4.048   3.583 -0.4590 -0.5030  0.2461
13051TIP3    H160568   1.489   3.975   3.521 -0.7320 -0.3638  0.0479
13051TIP3    H260569   1.559   4.103   3.563 -0.0832 -0.8908  0.6047
13052TIP3   OH260570   5.002   6.297  12.200 -0.4652  0.1716 -0.4751
13052TIP3    H160571   5.006   6.246  12.118  3.4688 -0.5223 -0.0605
13052TIP3    H260572   5.001   6.230  12.269  0.7853  0.6533  0.0351
13053TIP3   OH260573   6.180   6.520   3.878 -0.0531 -0.1809 -0.5017
13053TIP3    H160574   6.180   6.504   3.784  0.3136 -1.0535 -0.3664
13053TIP3    H260575   6.097   6.482   3.908  0.7790 -1.8688 -0.1910
13054TIP3   OH260576   3.021   0.676   2.657 -0.0464  0.8041 -0.2957
13054TIP3    H160577   3.025   0.609   2.725 -0.8522  0.2470 -0.7898
13054TIP3    H260578   2.985   0.753   2.702 -0.1143  0.5899  0.0200
13055TIP3   OH260579   2.839   0.148  16.501 -0.1948  0.1776 -0.0901
13055TIP3    H160580   2.920   0.198  16.488  1.2004 -1.3438  2.0768
13055TIP3    H260581   2.822   0.153  16.595 -2.6080  0.3351 -0.4627
13056TIP3   OH260582   3.696   0.065   2.223  0.4162  0.4711  0.1144
13056TIP3    H160583   3.638  -0.010   2.230  0.0709  0.7365  0.1377
13056TIP3    H260584   3.731   0.078   2.311  0.2337  0.5288  0.1786
13057TIP3   OH260585   3.353   3.296  16.064  0.2268 -0.5081 -0.1555
13057TIP3    H160586   3.436   3.341  16.048 -0.7453  1.1497 -0.7142
13057TIP3    H260587   3.329   3.258  15.980 -1.3936  2.2284 -1.0334
13058TIP3   OH260588   0.958   1.062  15.649  0.5268  0.3136  0.1933
13058TIP3    H160589   0.953   0.992  15.584  2.1612  1.6829 -1.5387
13058TIP3    H260590   1.040   1.045  15.696  0.9723  1.0758 -0.2922
13059TIP3   OH260591   4.836   2.141  13.913  0.3820  0.7811 -0.0608
13059TIP3    H160592   4.834   2.165  14.005  0.8643  1.2280 -0.1624
13059TIP3    H260593   4.841   2.225  13.867  1.3936  0.5193 -0.4532
13060TIP3   OH260594   2.359   0.840   4.732  0.4489  0.2560 -0.4481
13060TIP3    H160595   2.369   0.752   4.698  0.9704  0.3478 -0.5344
13060TIP3    H260596   2.396   0.837   4.820 -1.3059 -0.0979  0.3250
13061TIP3   OH260597   2.930   4.783   1.946  0.7862 -0.6510 -0.2232
13061TIP3    H160598   2.904   4.820   2.031 -0.1476  0.7126 -1.0747
13061TIP3    H260599   2.850   4.741   1.913  0.8799 -0.3645 -0.8296
13062TIP3   OH260600   5.366   1.985  12.781  0.1973 -0.5562 -0.4567
13062TIP3    H160601   5.442   2.044  12.783  1.6959 -2.4373 -0.0435
13062TIP3    H260602   5.397   1.904  12.821 -2.0878 -1.3517 -0.1758
13063TIP3   OH260603   5.009   6.109   0.885  0.1014  0.2197 -0.0744
13063TIP3    H160604   5.071   6.182   0.883  0.4782  0.0499  2.3615
13063TIP3    H260605   4.960   6.121   0.967 -0.8501 -1.4353 -0.3554
13064TIP3   OH260606   3.608   6.391   4.050  0.1673 -0.1709  0.2955
13064TIP3    H160607   3.530   6.336   4.046  1.0548 -1.4045 -2.3261
13064TIP3    H260608   3.673   6.337   4.096  0.1470 -0.0279  0.4962
13065TIP3   OH260609   1.106   2.780   6.176  0.4488  0.2538  0.0219
13065TIP3    H160610   1.167   2.749   6.243  1.4638  1.9173 -0.0603
13065TIP3    H260611   1.046   2.837   6.223 -0.2552 -0.3722 -0.1137
13066TIP3   OH260612   0.700   5.144  12.059  0.3319  0.1419  0.0881
13066TIP3    H160613   0.706   5.103  12.145  0.0949 -2.2791 -0.9433
13066TIP3    H260614   0.609   5.174  12.053 -0.5036 -2.2140 -0.2765
13067TIP3   OH260615   1.853   4.383   3.608 -0.1483  0.0793 -0.0880
13067TIP3    H160616   1.813   4.318   3.549 -0.2969  1.4363 -1.5493
13067TIP3    H260617   1.827   4.355   3.696 -1.8338 -0.7543 -0.8025
13068TIP3   OH260618   5.562   2.992  17.108  0.2220 -0.0239 -0.2184
13068TIP3    H160619   5.582   2.932  17.036  0.6498  2.5540 -2.4040
13068TIP3    H260620   5.644   3.040  17.123 -0.3814  0.7671  0.6751
13069TIP3   OH260621   6.375   5.969   5.165 -0.2378  0.5424  0.0568
13069TIP3    H160622   6.333   6.023   5.097 -0.0180 -0.7676 -1.1713
13069TIP3    H260623   6.464   6.003   5.171 -0.5373  1.2890  0.3998
13070TIP3   OH260624   4.927   1.470   1.582  0.3781 -0.3179 -0.1193
13070TIP3    H160625   4.895   1.545   1.533  2.4612  0.2424 -0.7302
13070TIP3    H260626   4.852   1.441   1.634 -0.4218  2.3740  0.3812
13071TIP3   OH260627   1.799   1.179  12.487 -0.4483  0.3119 -0.2524
13071TIP3    H160628   1.766   1.219  12.568  1.2864  0.1552  0.5982
13071TIP3    H260629   1.889   1.153  12.509  0.2031  0.5989 -2.3524
13072TIP3   OH260630   1.986   4.101   4.897  0.0460  0.1718  0.0095
13072TIP3    H160631   1.925   4.090   4.824 -0.5012 -1.2267  0.6505
13072TIP3    H260632   1.930   4.115   4.974  0.6365  2.9342  0.0152
13073TIP3   OH260633   5.358   3.029  11.707  0.4573 -0.4172 -0.6417
13073TIP3    H160634   5.294   3.068  11.647  0.1940 -0.0804 -0.1460
13073TIP3    H260635   5.305   2.992  11.777  0.8419  0.7833  0.3137
13074TIP3   OH260636   4.891   0.904   2.672  0.0962  0.3695 -0.4597
13074TIP3    H160637   4.986   0.915   2.672  0.7260 -3.2993  1.6611
13074TIP3    H260638   4.866   0.906   2.579  2.4749  0.0172 -1.1686
13075TIP3   OH260639   1.073   4.482   0.952  0.0007 -0.0012 -0.6719
13075TIP3    H160640   1.070   4.575   0.931 -0.2340  0.4151  1.0596
13075TIP3    H260641   1.147   4.448   0.901 -0.3402  0.9590 -1.8620
13076TIP3   OH260642   4.480   1.911   2.527 -0.7638 -0.0370 -0.0462
13076TIP3    H160643   4.472   1.923   2.621  1.6065 -0.3400  0.2533
13076TIP3    H260644   4.453   1.820   2.511  1.1688 -0.7998  0.7517
13077TIP3   OH260645   2.130   0.351   0.612  0.3911 -0.2508 -0.8020
13077TIP3    H160646   2.149   0.343   0.518 -0.7235 -1.8539 -0.9313
13077TIP3    H260647   2.158   0.268   0.649 -1.6852 -0.7503 -0.2053
13078TIP3   OH260648   6.509   4.972   4.461 -0.2857 -0.3551  0.2473
13078TIP3    H160649   6.425   4.927   4.463 -1.3851  1.5914  0.2369
13078TIP3    H260650   6.508   5.020   4.378  0.9696 -0.5211  0.1185
13079TIP3   OH260651   2.376   4.261   5.319  0.3273  0.2542  0.5436
13079TIP3    H160652   2.317   4.215   5.259  1.1469  1.0173 -0.8934
13079TIP3    H260653   2.331   4.258   5.404 -1.0202 -0.5608 -0.1682
13080TIP3   OH260654   0.289   5.436   2.546  0.2351 -0.6943 -0.1107
13080TIP3    H160655   0.236   5.473   2.476  1.2436 -0.3291 -0.6967
13080TIP3    H260656   0.314   5.349   2.515 -1.1576 -1.4582  0.7700
13081TIP3   OH260657   1.193   5.543  14.491 -0.4188 -0.1941  0.2755
13081TIP3    H160658   1.156   5.455  14.484 -0.9476  0.0384  0.0790
13081TIP3    H260659   1.287   5.531  14.477 -0.3057 -0.8949  1.4939
13082TIP3   OH260660   2.101   0.711  14.171  0.1118 -0.0213  0.0859
13082TIP3    H160661   2.187   0.724  14.130  1.7808 -1.9650  2.6049
13082TIP3    H260662   2.069   0.799  14.189  2.5472  0.7971  0.8202
13083TIP3   OH260663   6.024   4.059   1.426 -0.1326  0.0200  0.3145
13083TIP3    H160664   6.077   4.137   1.439 -0.7557  0.4604  0.2242
13083TIP3    H260665   5.936   4.084   1.453 -0.3762 -0.5920  0.1045
13084TIP3   OH260666   2.685   5.600   4.521  0.5793  0.1140  0.1846
13084TIP3    H160667   2.661   5.515   4.484  1.3829  0.0292 -0.1756
13084TIP3    H260668   2.773   5.586   4.557  1.2513  1.1009 -0.9826
13085TIP3   OH260669   3.389   4.691  15.624 -0.4959 -0.0019  0.4954
13085TIP3    H160670   3.378   4.729  15.711 -0.9543  1.1229 -0.0316
13085TIP3    H260671   3.477   4.717  15.597 -0.1488 -0.8072  0.8294
13086TIP3   OH260672   4.672   1.289  15.353 -0.1065  0.1890  0.0924
13086TIP3    H160673   4.746   1.269  15.296  0.6620  2.4845  0.1886
13086TIP3    H260674   4.597   1.292  15.295 -0.2511 -2.3930  0.0239
13087TIP3   OH260675   5.801   3.572  15.781 -0.8532  0.2481 -0.6908
13087TIP3    H160676   5.801   3.523  15.863  0.8329  0.4580 -0.5297
13087TIP3    H260677   5.766   3.658  15.803 -0.9834  0.1023 -0.3317
13088TIP3   OH260678   3.288   6.723   0.094 -0.0735  0.1695 -0.3529
13088TIP3    H160679   3.206   6.683   0.122 -0.3659  0.7096 -0.4176
13088TIP3    H260680   3.350   6.650   0.088 -0.1758 -0.0627  1.0242
13089TIP3   OH260681   5.898   6.199  12.544  1.0294 -0.0920  0.5704
13089TIP3    H160682   5.917   6.292  12.529  3.0793 -0.2639  1.7692
13089TIP3    H260683   5.881   6.164  12.457  2.3807  0.9856 -0.1683
13090TIP3   OH260684   1.743   1.234   5.545 -0.1070 -0.5649  0.1000
13090TIP3    H160685   1.825   1.191   5.569 -0.8609 -2.0904  0.0673
13090TIP3    H260686   1.695   1.243   5.628  0.9560  2.3875  0.5081
13091TIP3   OH260687   3.373   5.075   3.644  0.4957 -0.3983  0.0787
13091TIP3    H160688   3.310   5.030   3.700  0.3671 -1.3926 -0.8285
13091TIP3    H260689   3.452   5.084   3.698  0.1350 -0.6619  0.6547
13092TIP3   OH260690   3.195   4.940  11.842  0.4446  0.1547 -0.3785
13092TIP3    H160691   3.226   4.991  11.916  1.1694  1.2777 -1.4152
13092TIP3    H260692   3.128   4.883  11.878  2.3298 -0.9715  1.5888
13093TIP3   OH260693   6.041   5.083   3.217  0.0096  0.1585 -0.0712
13093TIP3    H160694   6.083   5.012   3.168  0.2219  0.3111 -0.1108
13093TIP3    H260695   5.974   5.039   3.270 -0.8885  0.0917 -1.2132
13094TIP3   OH260696   0.090   1.147  14.144  0.1370 -0.2818  0.3470
13094TIP3    H160697   0.111   1.183  14.230  0.7948 -1.6987  0.8003
13094TIP3    H260698   0.165   1.168  14.090 -0.3068  0.6710  0.0867
13095TIP3   OH260699   0.443   3.340  11.373  0.2926  0.2689  0.6435
13095TIP3    H160700   0.523   3.303  11.336 -0.0344 -1.0841  1.2337
13095TIP3    H260701   0.473   3.386  11.452  0.3044 -2.1689  2.1800
13096TIP3   OH260702   4.450   3.034   1.736 -0.4706  0.1363  0.1674
13096TIP3    H160703   4.398   3.095   1.684  0.1711 -0.6805 -1.5024
13096TIP3    H260704   4.489   2.974   1.672  2.6505  0.7684  1.2962
13097TIP3   OH260705   2.468   0.926  11.117  0.6301 -0.5691 -0.0504
13097TIP3    H160706   2.393   0.882  11.077 -1.2256  1.3496  1.1016
13097TIP3    H260707   2.535   0.926  11.048 -1.2407 -0.3346 -1.9950
13098TIP3   OH260708   0.468   2.224  11.840  0.8111 -0.6043 -0.5443
13098TIP3    H160709   0.453   2.144  11.891  3.3634 -1.2486 -0.6885
13098TIP3    H260710   0.484   2.193  11.751  1.4454  0.0957 -0.6815
13099TIP3   OH260711   2.234   5.469   3.851 -0.1755 -0.5152  0.0005
13099TIP3    H160712   2.181   5.523   3.793  0.1316 -0.3394 -0.1212
13099TIP3    H260713   2.296   5.424   3.792 -0.1046 -0.6192  0.1525
13100TIP3   OH260714   4.705   4.577  11.604  0.9652 -0.0266 -0.2682
13100TIP3    H160715   4.628   4.553  11.552  0.3342  0.7485  0.2899
13100TIP3    H260716   4.779   4.556  11.547  0.3953 -1.6724 -0.4554
13101TIP3   OH260717   3.687   1.775  14.148 -0.1285  0.0073  0.0416
13101TIP3    H160718   3.713   1.702  14.091 -1.0498 -1.3697  1.3070
13101TIP3    H260719   3.644   1.837  14.090  1.1066 -0.1948 -1.1529
13102TIP3   OH260720   6.237   0.307   0.141 -0.2234 -0.6784  0.1038
13102TIP3    H160721   6.278   0.389   0.113 -0.4777 -0.9321 -1.0551
13102TIP3    H260722   6.250   0.305   0.236 -0.0773  0.6275  0.1278
13103TIP3   OH260723   1.168   4.766  16.608 -0.0797  0.0955 -0.4202
13103TIP3    H160724   1.168   4.747  16.702 -0.2297 -1.0880 -0.6465
13103TIP3    H260725   1.224   4.843  16.600 -0.6959  0.6983  0.7224
13104TIP3   OH260726   4.791   0.727   3.300  0.6912 -0.5271  0.3087
13104TIP3    H160727   4.838   0.667   3.243 -3.0612 -3.8684  0.3427
13104TIP3    H260728   4.799   0.690   3.388 -0.4089 -0.1408  0.5986
13105TIP3   OH260729   1.989   0.953   0.439  0.2167  0.4831  0.4227
13105TIP3    H160730   1.979   0.968   0.533 -0.3319  0.5146  0.3646
13105TIP3    H260731   1.899   0.945   0.407  0.3774  1.1490 -0.2112
13106TIP3   OH260732   4.626   0.815   0.084  0.3386  0.5017 -0.1371
13106TIP3    H160733   4.622   0.794  -0.009  0.0005 -0.6560  0.1284
13106TIP3    H260734   4.541   0.854   0.104  0.0217 -0.1862 -0.1068
13107TIP3   OH260735   0.893   3.849  13.010  0.1127 -0.3374  0.4724
13107TIP3    H160736   0.981   3.812  13.009  0.4571  0.0956 -4.0867
13107TIP3    H260737   0.904   3.939  12.979 -1.7673  0.4474  1.8720
13108TIP3   OH260738   6.642   2.055  13.621 -0.1241 -0.2542  0.1212
13108TIP3    H160739   6.554   2.088  13.635  0.3411  0.3641  1.9437
13108TIP3    H260740   6.633   1.960  13.621 -0.5421 -0.2915  2.7976
13109TIP3   OH260741   0.457   1.616   4.802 -0.2189  0.6361 -0.4488
13109TIP3    H160742   0.526   1.561   4.765 -1.6400 -1.6347  0.0595
13109TIP3    H260743   0.502   1.693   4.836  1.7437  0.3480 -2.2180
13110TIP3   OH260744   1.538   1.247  12.292  0.1578 -0.1240  0.6118
13110TIP3    H160745   1.621   1.206  12.272 -0.2351 -0.5825 -0.0780
13110TIP3    H260746   1.551   1.286  12.379  1.3561  0.5402  0.1480
13111TIP3   OH260747   6.254   5.117   4.509 -0.1618 -0.6537 -0.0773
13111TIP3    H160748   6.204   5.166   4.444  1.2352  0.5642 -0.2927
13111TIP3    H260749   6.193   5.050   4.541 -1.5286  0.0259 -1.1466
13112TIP3   OH260750   2.035   5.923  16.508 -0.1868 -0.1737 -0.5316
13112TIP3    H160751   1.957   5.869  16.517  1.7151 -3.2011 -0.8046
13112TIP3    H260752   2.046   5.934  16.413  0.1359 -0.4753 -0.5325
13113TIP3   OH260753   3.084   0.466  17.124 -0.2040  0.2792  0.6597
13113TIP3    H160754   3.012   0.409  17.149  0.0971 -0.2014  0.4635
13113TIP3    H260755   3.066   0.549  17.166 -1.0350  0.2597  0.3571
13114TIP3   OH260756   2.470   0.094   0.961 -0.0747 -0.2535 -0.5974
13114TIP3    H160757   2.484   0.140   1.044 -1.1766  0.0631 -0.5678
13114TIP3    H260758   2.555   0.098   0.916  0.3200  0.2431  0.1776
13115TIP3   OH260759   2.748   4.866   2.464  0.4948 -0.0201  0.3704
13115TIP3    H160760   2.692   4.937   2.433  1.4594  0.3525 -0.5916
13115TIP3    H260761   2.812   4.908   2.521  0.7721 -0.1948  0.1905
13116TIP3   OH260762   0.805   1.893   1.158  0.1396  0.3904 -0.2189
13116TIP3    H160763   0.843   1.812   1.122  0.7001  0.8130 -0.5923
13116TIP3    H260764   0.860   1.913   1.234 -1.6754 -1.0768  1.5807
13117TIP3   OH260765   2.784   0.759  14.338  0.0957 -0.2032  0.0532
13117TIP3    H160766   2.726   0.706  14.393 -1.7489  0.8005 -0.8340
13117TIP3    H260767   2.742   0.845  14.334  1.1614  0.2913 -1.3983
13118TIP3   OH260768   3.595   6.005   4.310 -0.1050  0.2640 -0.2899
13118TIP3    H160769   3.633   6.087   4.344  0.2939 -0.3873  0.9114
13118TIP3    H260770   3.666   5.941   4.320 -0.6892 -0.4083 -0.4374
13119TIP3   OH260771   6.357   0.886  13.642  0.0714  0.1378  0.3232
13119TIP3    H160772   6.374   0.807  13.694  1.7913  0.2633 -0.0053
13119TIP3    H260773   6.294   0.858  13.576  0.7216 -1.0053  0.1589
13120TIP3   OH260774   4.628   0.578   5.896  0.1063 -0.3232 -0.0157
13120TIP3    H160775   4.564   0.647   5.914 -2.1389 -1.7885 -1.8053
13120TIP3    H260776   4.683   0.614   5.826  0.2000  0.3426  0.3911
13121TIP3   OH260777   2.619   2.879   5.803  0.0768  0.7809 -0.3445
13121TIP3    H160778   2.624   2.959   5.752 -0.2686  1.6937  0.9852
13121TIP3    H260779   2.656   2.811   5.747 -0.0173  1.7922 -1.6514
13122TIP3   OH260780   0.209   2.183   0.225  0.7841 -0.4648 -0.4845
13122TIP3    H160781   0.242   2.171   0.314 -1.7614  0.8258  0.7414
13122TIP3    H260782   0.134   2.124   0.219 -1.1081  1.7606 -0.5002
13123TIP3   OH260783   3.923   3.902  14.677  0.3682 -0.0894 -0.3507
13123TIP3    H160784   3.848   3.890  14.618  0.5604  0.7729 -0.7969
13123TIP3    H260785   3.917   3.994  14.703  0.2440 -0.4702  1.0518
13124TIP3   OH260786   4.057   4.954  15.972 -0.2599  0.1063  0.2826
13124TIP3    H160787   4.098   4.970  16.057  0.3350  0.8883 -0.1362
13124TIP3    H260788   4.115   4.996  15.909 -1.2604  0.4812 -0.4138
13125TIP3   OH260789   0.935   6.271   1.824 -0.6645  0.0299  0.4317
13125TIP3    H160790   0.961   6.191   1.869 -0.2974 -0.0170  0.1402
13125TIP3    H260791   0.842   6.260   1.806 -1.3175  0.8754  2.9257
13126TIP3   OH260792   3.039   4.997  15.840  0.5575 -0.5032 -0.1377
13126TIP3    H160793   3.020   4.938  15.767 -1.5018  0.5188 -0.5178
13126TIP3    H260794   2.973   5.066  15.833  0.7150 -0.0040  2.2928
13127TIP3   OH260795   3.758   1.730   5.221  0.1142 -1.0463 -0.2768
13127TIP3    H160796   3.847   1.701   5.203  0.7245  0.9705 -0.8148
13127TIP3    H260797   3.716   1.656   5.264  2.0805 -2.0084  0.0670
13128TIP3   OH260798   3.559   5.370   0.690 -0.1572  0.2933  0.3366
13128TIP3    H160799   3.606   5.359   0.607 -1.7459  0.2035 -0.5792
13128TIP3    H260800   3.473   5.404   0.666 -0.1321  1.7799  2.0859
13129TIP3   OH260801   5.892   3.034  11.311  0.0552  0.3469 -0.0784
13129TIP3    H160802   5.927   3.120  11.288  1.5967 -0.2236  0.0027
13129TIP3    H260803   5.857   2.999  11.229  2.1884 -0.1646 -0.8500
13130TIP3   OH260804   1.648   4.004   0.999  0.1614  0.7701  0.5541
13130TIP3    H160805   1.646   3.934   1.065 -0.9170  0.7503  0.5042
13130TIP3    H260806   1.717   3.977   0.938  0.0848 -0.0125  0.8006
13131TIP3   OH260807   0.907   1.299  12.920  0.3901 -0.3247 -0.5130
13131TIP3    H160808   0.946   1.347  12.993  1.0807 -2.6857  0.7729
13131TIP3    H260809   0.969   1.228  12.903 -1.4552 -1.8674 -1.0459
13132TIP3   OH260810   6.647   0.004  11.303 -0.0443 -0.3077  0.2039
13132TIP3    H160811   6.566  -0.019  11.349  0.6350 -1.9887  0.6448
13132TIP3    H260812   6.620   0.023  11.214 -0.9120 -1.1388  0.2717
13133TIP3   OH260813   0.559   4.637   4.308 -0.3172 -0.5702 -0.6766
13133TIP3    H160814   0.564   4.573   4.237  0.2409 -1.0346 -0.2336
13133TIP3    H260815   0.520   4.589   4.381  2.1719 -1.1566  0.3998
13134TIP3   OH260816   2.281   4.067  16.046 -0.4801 -0.1723  0.3842
13134TIP3    H160817   2.331   4.003  16.096  2.2587  1.9867  0.6422
13134TIP3    H260818   2.257   4.134  16.110  0.5080  1.1726 -0.5898
13135TIP3   OH260819   4.528   2.169  12.020  0.0301 -0.0315  0.1253
13135TIP3    H160820   4.544   2.093  12.077 -0.7238  0.0771  0.4925
13135TIP3    H260821   4.483   2.232  12.076  0.3332  0.5549 -0.2752
13136TIP3   OH260822   3.275   1.319  12.218  0.0903 -0.1229 -0.3212
13136TIP3    H160823   3.217   1.371  12.162  1.0702  1.2879 -0.0747
13136TIP3    H260824   3.240   1.230  12.213 -2.5953  0.7967  0.4583
13137TIP3   OH260825   4.388   1.568  13.867 -0.5441 -0.3705 -0.1635
13137TIP3    H160826   4.339   1.606  13.795  2.6731 -1.1971 -3.0665
13137TIP3    H260827   4.449   1.637  13.894 -1.4271 -0.2084  1.6030
13138TIP3   OH260828   1.078   5.593   6.012  0.2411 -0.4245  0.1687
13138TIP3    H160829   1.161   5.598   5.965 -0.3094 -0.2599 -0.8163
13138TIP3    H260830   1.025   5.532   5.960  0.2709 -1.7786  1.6468
13139TIP3   OH260831   1.217   1.725   4.278  0.0174 -0.2380  0.1640
13139TIP3    H160832   1.243   1.805   4.233 -0.9016  0.0648  0.1490
13139TIP3    H260833   1.179   1.670   4.210  0.6026 -0.6772  0.1829
13140TIP3   OH260834   1.618   0.990  11.274  0.5317  0.3451  0.7341
13140TIP3    H160835   1.559   1.061  11.299 -0.0844 -0.1563  0.7403
13140TIP3    H260836   1.706   1.029  11.276  0.0394  1.7597 -1.6397
13141TIP3   OH260837   3.554   4.695   3.549  0.0683  0.0812  0.9670
13141TIP3    H160838   3.551   4.780   3.506 -0.6730 -0.7829 -0.7845
13141TIP3    H260839   3.479   4.695   3.608 -0.3942  0.3473  0.3844
13142TIP3   OH260840   0.868   1.638   1.929  0.3781 -0.0764 -0.0997
13142TIP3    H160841   0.850   1.562   1.874  0.2753 -0.2844  0.2185
13142TIP3    H260842   0.890   1.601   2.015 -2.4323  0.2620  0.8996
13143TIP3   OH260843   5.070   3.812  16.908 -0.2098 -0.2563 -0.6264
13143TIP3    H160844   5.121   3.741  16.945  1.0231  0.6048 -0.5962
13143TIP3    H260845   5.135   3.871  16.869 -1.0632  1.4855  0.4345
13144TIP3   OH260846   6.618   2.700  13.158  0.3813 -0.4002  0.4139
13144TIP3    H160847   6.681   2.731  13.093 -1.3733  0.2890 -1.0654
13144TIP3    H260848   6.615   2.605  13.145  1.0389 -0.4291  0.4440
13145TIP3   OH260849   0.553   0.618  16.388 -0.5996  0.0915  0.4835
13145TIP3    H160850   0.532   0.693  16.332 -0.8470 -1.2525 -1.3309
13145TIP3    H260851   0.555   0.543  16.328  3.5372 -0.8359  1.4295
13146TIP3   OH260852   3.126   4.929  14.711 -0.2550  0.0381 -0.0988
13146TIP3    H160853   3.216   4.940  14.743 -0.6974 -0.7316  1.5578
13146TIP3    H260854   3.123   4.838  14.680 -0.3960  0.1353 -0.3645
13147TIP3   OH260855   1.632   5.194  15.504  0.0560  0.3808 -0.2305
13147TIP3    H160856   1.579   5.180  15.426 -0.7955  1.6189  0.0900
13147TIP3    H260857   1.712   5.237  15.472  0.7887 -1.2449 -0.6814
13148TIP3   OH260858   5.654   2.765   5.484 -0.3455  0.3082  0.1321
13148TIP3    H160859   5.629   2.783   5.575 -1.1226 -3.8045  0.9053
13148TIP3    H260860   5.749   2.776   5.483 -0.5583  2.9304  0.6610
13149TIP3   OH260861   0.421   1.563  12.100 -0.1585 -0.3570  0.0172
13149TIP3    H160862   0.380   1.640  12.061 -1.4681 -0.9912  0.0956
13149TIP3    H260863   0.439   1.588  12.190  0.8035  0.3449 -0.3530
13150TIP3   OH260864   0.872   6.649   1.319 -0.0252 -0.3641 -0.4505
13150TIP3    H160865   0.956   6.610   1.294  0.0773 -0.5338  0.1436
13150TIP3    H260866   0.822   6.577   1.357  0.4088  0.1770  1.2529
13151TIP3   OH260867   4.343   3.322  10.833  0.3988 -0.4369 -0.4349
13151TIP3    H160868   4.319   3.292  10.921 -0.5492 -2.7270 -1.4132
13151TIP3    H260869   4.260   3.324  10.785  1.2471 -2.0821 -2.0774
13152TIP3   OH260870   0.057   4.575   4.369 -0.3454  0.0609  0.8928
13152TIP3    H160871   0.001   4.499   4.358  1.5695 -1.6120  1.9645
13152TIP3    H260872   0.085   4.597   4.280  0.7916 -1.9311  0.7027
13153TIP3   OH260873   2.591   4.597   2.246  0.0568  0.5495  0.0022
13153TIP3    H160874   2.610   4.630   2.158 -0.2555 -1.7635 -0.9910
13153TIP3    H260875   2.522   4.656   2.278 -0.6415  0.7831 -1.7620
13154TIP3   OH260876   2.605   1.930   2.065  0.1829  0.3509  0.5310
13154TIP3    H160877   2.553   1.935   1.985 -1.2566  1.3990  1.4969
13154TIP3    H260878   2.571   2.000   2.120  2.0256  0.4864  1.5670
13155TIP3   OH260879   4.385   3.640   4.953  0.1571  0.3344  0.1631
13155TIP3    H160880   4.456   3.585   4.987 -1.9417 -1.8899  1.3394
13155TIP3    H260881   4.354   3.593   4.875  1.2621  2.4242 -1.6467
13156TIP3   OH260882   6.253   1.142  14.674 -0.3073  0.1667 -0.4535
13156TIP3    H160883   6.281   1.078  14.608  2.4263 -0.5248  1.2151
13156TIP3    H260884   6.209   1.089  14.741  2.2624 -0.1716  1.0988
13157TIP3   OH260885   1.219   4.809  10.794  0.1055  0.1647 -0.0390
13157TIP3    H160886   1.308   4.820  10.763 -0.2341  2.8950 -0.3497
13157TIP3    H260887   1.180   4.744  10.736  0.8855  1.5863 -2.2650
13158TIP3   OH260888   4.745   6.129  12.867  0.2619 -0.0360  0.0719
13158TIP3    H160889   4.696   6.130  12.949  1.5763 -0.0327  0.8832
13158TIP3    H260890   4.818   6.188  12.882 -0.9894  2.2775 -2.1100
13159TIP3   OH260891   4.233   5.654  16.728 -0.4680 -0.2185  0.7670
13159TIP3    H160892   4.153   5.693  16.764  0.0013  0.6282  0.9038
13159TIP3    H260893   4.301   5.674  16.792 -0.3630 -2.0587  1.2980
13160TIP3   OH260894   2.328   5.819  13.694  0.0687 -0.2053 -0.1076
13160TIP3    H160895   2.285   5.898  13.662 -0.6477 -0.5035  0.0932
13160TIP3    H260896   2.373   5.782  13.618 -0.4945 -0.1814 -0.4555
13161TIP3   OH260897   6.494   5.435   0.803  0.2918 -0.3900 -0.1540
13161TIP3    H160898   6.521   5.520   0.839 -1.7507  0.2944 -0.1299
13161TIP3    H260899   6.530   5.371   0.865  0.2369  0.5616  0.8932
13162TIP3   OH260900   6.474   3.540  14.910  0.3579 -0.0072 -0.2892
13162TIP3    H160901   6.412   3.581  14.970 -0.7271 -2.0873  0.0973
13162TIP3    H260902   6.420   3.508  14.837  1.1657 -0.5987 -0.6476
13163TIP3   OH260903   1.097   2.351   1.970  0.5967  0.0604  0.0017
13163TIP3    H160904   1.023   2.411   1.979 -1.7659 -2.7478  1.0434
13163TIP3    H260905   1.146   2.360   2.052  0.2037  0.4322  0.1980
13164TIP3   OH260906   2.125   3.496   3.604  0.4420 -0.6684  0.2725
13164TIP3    H160907   2.107   3.543   3.523  1.6722 -0.2069  0.2419
13164TIP3    H260908   2.106   3.405   3.584  1.1376 -0.6197 -0.6727
13165TIP3   OH260909   4.193   6.117  10.840  0.4847 -0.8827 -0.0984
13165TIP3    H160910   4.120   6.176  10.820  0.6634 -0.9362 -0.9649
13165TIP3    H260911   4.151   6.036  10.870  0.2454 -0.2106  1.4938
13166TIP3   OH260912   3.662   1.752  13.025 -0.3308  0.2969  0.0739
13166TIP3    H160913   3.689   1.660  13.020  1.3304  0.7635 -0.2514
13166TIP3    H260914   3.627   1.771  12.937 -1.1222 -0.1329  0.2856
13167TIP3   OH260915   2.426   4.110   4.695 -0.8098 -0.3948 -0.5186
13167TIP3    H160916   2.437   4.095   4.789 -1.7880 -0.1755 -0.3576
13167TIP3    H260917   2.332   4.123   4.684 -0.4102  2.7880 -1.0399
13168TIP3   OH260918   6.000   2.226  17.227  0.4101  0.1682  0.1911
13168TIP3    H160919   6.072   2.206  17.287 -0.6632 -2.1656  0.7982
13168TIP3    H260920   6.012   2.166  17.154  1.4618  2.6878 -1.9046
13169TIP3   OH260921   1.195   4.944   5.131 -0.2374  0.3887  0.2107
13169TIP3    H160922   1.191   4.918   5.039 -2.7019 -0.1865  0.4192
13169TIP3    H260923   1.110   4.920   5.166  0.8520  0.0279  2.8228
13170TIP3   OH260924   6.545   4.437  14.354 -0.4704 -0.4778 -0.3814
13170TIP3    H160925   6.598   4.358  14.368 -0.9445 -0.6955  0.2383
13170TIP3    H260926   6.486   4.440  14.430  0.4997  1.2743  0.3650
13171TIP3   OH260927   3.447   2.800  12.272 -0.1065  0.1806  0.0617
13171TIP3    H160928   3.373   2.774  12.216  0.6366  0.6819 -1.2044
13171TIP3    H260929   3.434   2.751  12.353 -2.3981  1.0518  0.2981
13172TIP3   OH260930   1.209   5.042   4.087  0.2854  0.1969  0.0231
13172TIP3    H160931   1.156   5.000   4.019  0.2421 -1.0252  0.7777
13172TIP3    H260932   1.173   5.008   4.169 -0.9794  3.1651  0.8160
13173TIP3   OH260933   4.209   2.779   4.758 -0.6352  0.2343 -0.3410
13173TIP3    H160934   4.272   2.754   4.691  0.4328  0.0473  0.6926
13173TIP3    H260935   4.207   2.875   4.756  0.2178  0.2703  0.0724
13174TIP3   OH260936   0.712   1.448   0.566 -0.1982  0.3643 -0.1385
13174TIP3    H160937   0.653   1.373   0.557 -0.4026  0.3327  1.2998
13174TIP3    H260938   0.722   1.460   0.660  1.3732  0.9547 -0.3478
13175TIP3   OH260939   0.731   4.882   2.494  0.1642 -0.1061  0.0191
13175TIP3    H160940   0.688   4.887   2.409 -0.3991  2.0957  0.3999
13175TIP3    H260941   0.665   4.909   2.557  0.6390 -1.5031  1.1835
13176TIP3   OH260942   6.520   6.488  13.327  0.0058 -0.0832 -0.0138
13176TIP3    H160943   6.540   6.578  13.303 -1.1870  0.0556 -0.5509
13176TIP3    H260944   6.502   6.444  13.243 -1.8748 -0.1800  0.3999
13177TIP3   OH260945   1.834   4.133  15.916  0.2937 -0.0206  0.6580
13177TIP3    H160946   1.907   4.072  15.914  0.6326  0.3836 -1.8968
13177TIP3    H260947   1.872   4.215  15.949  1.5380  0.7189 -2.3084
13178TIP3   OH260948   0.521   6.058   3.522 -0.4263 -0.2032  0.0871
13178TIP3    H160949   0.588   6.127   3.518 -1.0422  0.5516  1.7359
13178TIP3    H260950   0.516   6.035   3.615 -0.1549 -2.6028 -0.4369
13179TIP3   OH260951   1.525   3.877  11.434 -0.9258  0.1861 -0.3068
13179TIP3    H160952   1.525   3.803  11.373 -0.7029 -0.8724  0.9428
13179TIP3    H260953   1.611   3.875  11.476 -1.6643 -0.1906  1.2802
13180TIP3   OH260954   0.494   1.334   6.421 -0.7191  0.3210  0.0452
13180TIP3    H160955   0.552   1.301   6.353 -0.2644  1.8795 -0.3558
13180TIP3    H260956   0.497   1.267   6.490 -2.0727 -1.8655 -1.8725
13181TIP3   OH260957   1.033   5.623   2.365 -0.1978  0.5255 -0.0183
13181TIP3    H160958   1.016   5.551   2.425 -1.1954  0.1020 -0.7844
13181TIP3    H260959   0.947   5.664   2.351  0.1704  1.1741 -0.4583
13182TIP3   OH260960   5.020   3.191   5.214 -0.1015 -0.4585  0.0309
13182TIP3    H160961   4.929   3.221   5.217 -0.3711 -0.9288 -2.1752
13182TIP3    H260962   5.026   3.129   5.287 -1.4973 -0.3265  0.3022
13183TIP3   OH260963   5.089   1.712  11.262 -0.0979 -0.1068  0.0568
13183TIP3    H160964   5.108   1.618  11.271  0.6885 -0.0786 -1.0205
13183TIP3    H260965   5.173   1.751  11.237 -0.3211  0.9640  0.9041
13184TIP3   OH260966   1.779   4.328  15.695 -0.5076 -0.3187 -0.2050
13184TIP3    H160967   1.792   4.416  15.730  1.6813  0.9638 -3.6689
13184TIP3    H260968   1.810   4.270  15.765 -1.0239  1.6384  1.7833
13185TIP3   OH260969   4.206   4.898  13.965 -0.5100  0.2233  0.1302
13185TIP3    H160970   4.161   4.814  13.959 -0.7005  0.3398 -0.1178
13185TIP3    H260971   4.145   4.960  13.924 -0.0149  0.3419 -0.4380
13186TIP3   OH260972   0.551   4.482   4.065  0.0453 -0.5159  0.2576
13186TIP3    H160973   0.526   4.390   4.063 -0.6889 -0.3378 -1.9694
13186TIP3    H260974   0.632   4.486   4.015  0.8110 -0.1039  1.4890
13187TIP3   OH260975   3.027   1.562   1.360  0.2251 -0.2591 -0.0580
13187TIP3    H160976   3.009   1.543   1.268  0.3576 -0.8201  0.0336
13187TIP3    H260977   3.013   1.479   1.405  2.1893 -0.5158  0.1470
13188TIP3   OH260978   0.854   2.440   4.477 -0.0224  0.4460  0.2205
13188TIP3    H160979   0.800   2.383   4.531 -0.4534  2.5062  2.1347
13188TIP3    H260980   0.934   2.453   4.527  0.5167  0.6799 -0.6707
13189TIP3   OH260981   2.077   1.919  13.525  0.0801 -0.1798 -0.3302
13189TIP3    H160982   2.146   1.985  13.512  0.7181 -0.2511  2.1786
13189TIP3    H260983   2.125   1.838  13.544 -0.6663 -0.2939  1.1739
13190TIP3   OH260984   6.070   3.409   5.420 -0.4178  0.1684 -0.0882
13190TIP3    H160985   6.069   3.345   5.349 -0.0913  0.9759 -0.8387
13190TIP3    H260986   5.978   3.432   5.433 -0.3438  1.2567 -1.4070
13191TIP3   OH260987   0.892   3.392   2.826  0.6238 -0.1121  0.0476
13191TIP3    H160988   0.876   3.468   2.882 -1.0054 -0.5077  0.1743
13191TIP3    H260989   0.900   3.319   2.888  2.0933 -0.0824 -0.0793
13192TIP3   OH260990   0.629   6.451  12.812 -0.0761 -0.6629  0.0392
13192TIP3    H160991   0.633   6.477  12.720  0.4788 -0.2387  0.1814
13192TIP3    H260992   0.544   6.407  12.820 -0.6930  0.4173 -0.3838
13193TIP3   OH260993   0.052   4.495  13.315  0.5904 -0.8364 -0.1740
13193TIP3    H160994  -0.005   4.419  13.326  0.7886 -0.9110  0.3799
13193TIP3    H260995   0.009   4.563  13.368  0.5524 -0.6405 -0.4580
13194TIP3   OH260996   3.446   2.774   5.296 -0.0219 -0.2174 -0.1376
13194TIP3    H160997   3.529   2.821   5.308 -0.4203 -0.0975  3.0510
13194TIP3    H260998   3.379   2.840   5.313 -0.6879 -0.9492  0.1050
13195TIP3   OH260999   4.608   3.076  15.432 -0.1426 -0.5373 -0.5613
13195TIP3    H161000   4.630   3.111  15.518 -2.1664  0.4523 -0.3792
13195TIP3    H261001   4.655   2.993  15.427  0.9069 -0.0846  1.0259
13196TIP3   OH261002   0.682   2.461  15.254 -0.1388  0.2750  0.1367
13196TIP3    H161003   0.729   2.541  15.277 -1.3511  0.9216  0.4470
13196TIP3    H261004   0.598   2.469  15.298 -0.2581 -1.2256  0.2480
13197TIP3   OH261005   6.197   3.201  14.375 -0.7890  0.0481 -0.2425
13197TIP3    H161006   6.106   3.211  14.403 -0.5001  0.8072  0.4720
13197TIP3    H261007   6.233   3.289  14.382  0.1406 -0.3445 -0.0232
13198TIP3   OH261008   6.059   3.422   6.483 -0.2596 -0.3148  0.1041
13198TIP3    H161009   6.122   3.433   6.413 -0.0315  3.4345  0.6931
13198TIP3    H261010   6.101   3.364   6.546  1.4085 -0.1484 -0.8281
13199TIP3   OH261011   1.745   3.113   4.543 -0.4348 -0.2515 -0.6131
13199TIP3    H161012   1.774   3.204   4.530 -0.4672 -0.3035 -1.0598
13199TIP3    H261013   1.800   3.062   4.484  0.1949 -0.6331  0.2737
13200TIP3   OH261014   0.020   5.060  15.996 -0.4790 -0.4601  0.0332
13200TIP3    H161015   0.044   5.133  16.053  0.0043 -0.7831  0.2507
13200TIP3    H261016  -0.048   5.095  15.939 -0.7934 -0.0648  0.6452
13201TIP3   OH261017   5.134   6.232   5.142 -0.4810 -0.7067  0.1290
13201TIP3    H161018   5.188   6.201   5.070  1.1034  0.0016  0.9444
13201TIP3    H261019   5.192   6.230   5.218 -1.4974  0.4317  0.9886
13202TIP3   OH261020   2.618   3.425  15.353 -0.2621  0.0147 -0.0210
13202TIP3    H161021   2.534   3.470  15.344 -0.4371 -0.3452 -0.2171
13202TIP3    H261022   2.595   3.332  15.355  0.1871 -0.1296 -0.9037
13203TIP3   OH261023   6.668   2.787  14.704  0.1250 -0.2459  0.1835
13203TIP3    H161024   6.605   2.750  14.766  1.6059 -3.6908 -0.1001
13203TIP3    H261025   6.748   2.800  14.756  0.6505 -0.8226 -0.4585
13204TIP3   OH261026   2.862   4.228  14.031  0.0078 -0.1817 -0.0928
13204TIP3    H161027   2.918   4.214  13.954 -1.1899  0.1815 -1.0729
13204TIP3    H261028   2.802   4.298  14.004 -2.0095 -1.6675  0.2929
13205TIP3   OH261029   2.463   5.703  16.230 -0.0122 -0.1409 -0.1142
13205TIP3    H161030   2.410   5.624  16.244 -2.0946  1.3130  0.6028
13205TIP3    H261031   2.536   5.673  16.177 -0.5036 -2.6417  0.4827
13206TIP3   OH261032   4.854   1.632  13.377  0.2675  0.1355  0.5073
13206TIP3    H161033   4.872   1.538  13.364  0.5196  0.3066 -0.4827
13206TIP3    H261034   4.861   1.645  13.471  0.3110 -0.8285  0.6514
13207TIP3   OH261035   1.211   4.518  16.283 -0.1870  0.0675 -0.3619
13207TIP3    H161036   1.186   4.610  16.270  0.5360  0.3864  0.3651
13207TIP3    H261037   1.181   4.498  16.372  0.4543 -0.1140 -0.1816
13208TIP3   OH261038   0.008   2.290  11.107 -0.9030  0.5722 -0.1272
13208TIP3    H161039   0.009   2.200  11.139 -1.8174  0.0952 -1.3356
13208TIP3    H261040   0.039   2.284  11.016  0.3117  1.6785  0.1796
13209TIP3   OH261041   6.243   4.081  11.832  0.0756  0.7277 -0.0434
13209TIP3    H161042   6.184   4.015  11.796  1.6260 -0.1749 -0.9953
13209TIP3    H261043   6.272   4.044  11.916 -1.5834  1.7201  1.0420
13210TIP3   OH261044   1.543   5.104  16.208  0.2272 -0.0818  0.3878
13210TIP3    H161045   1.522   5.089  16.300  0.7867 -0.0880  0.5182
13210TIP3    H261046   1.470   5.155  16.174 -0.3886 -0.7846  0.6258
13211TIP3   OH261047   4.255   4.429  11.170 -0.0485 -0.3360  0.1189
13211TIP3    H161048   4.332   4.453  11.119 -0.9937  1.1856 -0.6652
13211TIP3    H261049   4.183   4.430  11.107 -1.0216  0.2002  1.2057
13212TIP3   OH261050   6.116   3.158  15.853 -0.4314  0.0898 -0.2049
13212TIP3    H161051   6.119   3.141  15.759 -0.2512  1.1098 -0.3916
13212TIP3    H261052   6.159   3.081  15.892  0.8419  0.3373 -1.0456
13213TIP3   OH261053   3.540   0.922   0.205 -0.7674  0.3591  0.1417
13213TIP3    H161054   3.492   0.990   0.158 -0.2250 -0.7781 -2.1790
13213TIP3    H261055   3.626   0.962   0.221 -0.5108  0.3254 -1.0451
13214TIP3   OH261056   5.566   4.705  14.371  0.1043 -0.5350  0.1980
13214TIP3    H161057   5.571   4.651  14.450  0.3679 -0.4570  0.2357
13214TIP3    H261058   5.526   4.787  14.399 -1.8508 -1.3072 -0.1787
13215TIP3   OH261059   3.389   1.076  13.173 -0.9042  0.2580 -0.1483
13215TIP3    H161060   3.353   0.987  13.172  2.4748 -1.2996 -1.7002
13215TIP3    H261061   3.349   1.119  13.097 -3.6365  0.6541  1.4212
13216TIP3   OH261062   1.689   4.056  16.622 -0.2254 -0.0992 -0.0289
13216TIP3    H161063   1.705   4.148  16.644  0.1916 -0.0729 -0.4122
13216TIP3    H261064   1.772   4.012  16.642 -0.2489 -0.2928 -0.3426
13217TIP3   OH261065   5.656   4.917   2.787 -0.4350 -0.7389  0.4762
13217TIP3    H161066   5.701   4.886   2.866  1.7363 -0.6121 -0.6167
13217TIP3    H261067   5.618   5.001   2.812 -0.1159 -0.8817  1.4934
13218TIP3   OH261068   4.434   1.792  11.836  0.4323 -0.2566 -0.2887
13218TIP3    H161069   4.368   1.728  11.808 -1.2720  1.4042 -0.2092
13218TIP3    H261070   4.474   1.822  11.755  0.3966 -0.5383 -0.4121
13219TIP3   OH261071   2.290   5.830   4.442 -0.7891 -0.1913  0.1746
13219TIP3    H161072   2.256   5.760   4.387  0.4426 -1.1933  0.6228
13219TIP3    H261073   2.323   5.786   4.520  1.9856  0.5740 -0.4441
13220TIP3   OH261074   0.410   3.885  10.792 -0.2986 -0.6583  0.1561
13220TIP3    H161075   0.383   3.897  10.883 -0.0426  1.3506 -0.0064
13220TIP3    H261076   0.373   3.799  10.768 -3.5413  0.3519  1.0228
13221TIP3   OH261077   2.603   6.686  13.511  0.0690 -0.1761  0.5525
13221TIP3    H161078   2.606   6.602  13.558  1.7497  0.0656  0.9524
13221TIP3    H261079   2.617   6.662  13.419 -2.1640 -0.5460  0.2459
13222TIP3   OH261080   0.098   2.318  14.624  0.0810  0.1249 -0.0116
13222TIP3    H161081   0.089   2.384  14.693  0.1504 -1.2714  1.3713
13222TIP3    H261082   0.007   2.297  14.600  0.0388  0.1657  0.1090
13223TIP3   OH261083   2.546   2.422   2.275  0.2695 -0.7106  0.3590
13223TIP3    H161084   2.594   2.410   2.193  0.9622 -1.8173  0.8936
13223TIP3    H261085   2.459   2.385   2.258  0.3072 -0.6500  0.0340
13224TIP3   OH261086   3.488   1.997  16.353  0.7044 -0.6624  0.2736
13224TIP3    H161087   3.537   2.051  16.416 -2.3617  0.0558  2.2507
13224TIP3    H261088   3.410   2.048  16.332  1.1555 -1.2606 -3.6122
13225TIP3   OH261089   4.263   5.035   3.368 -0.0317 -0.1078 -0.0055
13225TIP3    H161090   4.321   4.961   3.352  0.5486  0.3085  0.1007
13225TIP3    H261091   4.175   5.002   3.351  0.2999 -0.5268 -1.0241
13226TIP3   OH261092   4.707   3.239   2.420 -0.0801  0.1664  0.0501
13226TIP3    H161093   4.638   3.194   2.468 -1.2496  2.3846  0.5854
13226TIP3    H261094   4.783   3.233   2.477 -0.9917  1.2868  1.4640
13227TIP3   OH261095   4.807   2.104   1.836 -0.1159 -0.1688 -0.5010
13227TIP3    H161096   4.715   2.078   1.849 -0.3851  0.0627 -1.7829
13227TIP3    H261097   4.802   2.179   1.777  0.8984  0.0134 -0.3632
13228TIP3   OH261098   3.966   3.276   3.217 -0.1130 -0.9173 -0.4511
13228TIP3    H161099   3.933   3.300   3.304 -0.4190 -2.2902 -0.1641
13228TIP3    H261100   3.929   3.342   3.159 -1.6913 -1.2044  0.1689
13229TIP3   OH261101   3.018   0.022  14.593 -0.7670  0.0402  0.1864
13229TIP3    H161102   3.113   0.033  14.604 -0.5825  0.0331 -1.2397
13229TIP3    H261103   3.009  -0.019  14.507 -2.1801  2.0102 -0.6576
13230TIP3   OH261104   0.566   6.749   5.604 -0.6996 -0.1339  0.3082
13230TIP3    H161105   0.572   6.839   5.636  4.1370 -0.6101  1.5242
13230TIP3    H261106   0.560   6.758   5.508 -3.2312  1.3412  0.5189
13231TIP3   OH261107   0.155   1.693   2.122  0.3646 -0.2751 -0.2246
13231TIP3    H161108   0.152   1.781   2.159 -0.2167 -0.1099 -0.6398
13231TIP3    H261109   0.248   1.669   2.123  0.2732 -0.8570  2.6255
13232TIP3   OH261110   3.546   6.589   0.001 -0.2200 -0.4751  0.0732
13232TIP3    H161111   3.623   6.564   0.052 -0.7539 -0.8025  0.7452
13232TIP3    H261112   3.501   6.506  -0.017 -0.1523 -0.3418 -0.7521
13233TIP3   OH261113   4.069   4.920  12.772 -0.4740 -0.9453 -0.1273
13233TIP3    H161114   4.143   4.941  12.829 -0.8458 -3.2014  1.2771
13233TIP3    H261115   4.005   4.989  12.792 -0.4555 -1.4543  1.9714
13234TIP3   OH261116   5.508   4.580   1.031 -0.6170 -0.3310  0.2161
13234TIP3    H161117   5.442   4.516   1.058  0.3280 -0.5280  2.2848
13234TIP3    H261118   5.588   4.529   1.019 -0.5599  0.0568 -1.2017
13235TIP3   OH261119   2.957   4.540  16.019  0.4585 -0.0757  0.4217
13235TIP3    H161120   2.987   4.631  16.029  1.3608 -0.4644  1.5208
13235TIP3    H261121   2.898   4.526  16.093 -0.0330 -0.2662  0.0017
13236TIP3   OH261122   3.089   5.457   4.771  0.0106  0.4107  0.0848
13236TIP3    H161123   3.067   5.447   4.864  1.7176 -0.0188  0.4788
13236TIP3    H261124   3.048   5.382   4.728 -0.9342  0.7031  0.4554
13237TIP3   OH261125   1.625   1.088  14.626  0.6005 -0.5642  0.6501
13237TIP3    H161126   1.682   1.037  14.568 -0.0918 -1.2619  0.5698
13237TIP3    H261127   1.591   1.158  14.570 -0.9353 -1.8703 -0.1397
13238TIP3   OH261128   3.540   1.361   6.057  0.1557 -0.1408  0.1110
13238TIP3    H161129   3.456   1.320   6.041 -0.5673  0.0222  2.8911
13238TIP3    H261130   3.605   1.293   6.039 -0.7947 -1.3297  1.0551
13239TIP3   OH261131   5.707   0.989  15.546  0.4970 -0.4359  0.3118
13239TIP3    H161132   5.734   0.898  15.547 -0.4077 -0.7476  2.6643
13239TIP3    H261133   5.651   0.999  15.623 -0.2076  1.8810 -0.3961
13240TIP3   OH261134   0.712   3.829   0.273 -0.0430 -0.0279  0.3399
13240TIP3    H161135   0.681   3.751   0.319 -1.5953  0.6078  0.4625
13240TIP3    H261136   0.643   3.895   0.289  1.8811  1.8425  1.4539
13241TIP3   OH261137   1.811   0.788  10.886  0.1206 -0.1932  0.1975
13241TIP3    H161138   1.765   0.718  10.840  1.4073  0.1728 -1.7655
13241TIP3    H261139   1.894   0.749  10.914  1.3149  0.7414 -1.8402
13242TIP3   OH261140   4.730   3.851  13.138  0.1106 -0.8208 -0.1946
13242TIP3    H161141   4.796   3.788  13.109  1.8497  0.4113  0.8980
13242TIP3    H261142   4.742   3.927  13.081  1.7099  0.5505  1.7996
13243TIP3   OH261143   5.655   0.517   0.299  0.0299  0.0121  0.2121
13243TIP3    H161144   5.643   0.536   0.206  3.6559  1.9910 -0.0661
13243TIP3    H261145   5.664   0.422   0.304 -0.4492 -0.1391 -1.4261
13244TIP3   OH261146   3.405   4.421   4.230  0.0566 -0.0800  0.6915
13244TIP3    H161147   3.409   4.375   4.314 -0.6822  0.3003  0.9365
13244TIP3    H261148   3.418   4.513   4.252 -2.3120  0.3092  0.6708
13245TIP3   OH261149   0.245   6.190  11.976 -0.0203  0.3997  0.0461
13245TIP3    H161150   0.250   6.210  11.883 -0.5751  0.0415 -0.0626
13245TIP3    H261151   0.288   6.264  12.019  2.5254 -0.6042 -0.6100
13246TIP3   OH261152   3.690   4.279   6.041  0.3292 -0.4197 -0.0281
13246TIP3    H161153   3.627   4.213   6.072  0.4339 -0.5985 -0.1922
13246TIP3    H261154   3.765   4.270   6.100 -0.0441  0.2221  0.5636
13247TIP3   OH261155   5.512   3.222   3.804 -0.0243  0.3762 -0.1293
13247TIP3    H161156   5.511   3.149   3.742  0.8878  0.6227 -0.4485
13247TIP3    H261157   5.605   3.240   3.819 -0.1630  2.7633 -1.5854
13248TIP3   OH261158   3.531   6.738  16.163 -0.4153  0.1688  0.5119
13248TIP3    H161159   3.444   6.770  16.141 -0.1979  1.2770  1.1648
13248TIP3    H261160   3.525   6.712  16.255  0.1023  0.9370  0.7805
13249TIP3   OH261161   4.366   3.279  16.916 -0.7255  0.0390  0.4001
13249TIP3    H161162   4.272   3.260  16.912 -0.9996  1.3003  0.3176
13249TIP3    H261163   4.372   3.359  16.969  0.2240  0.3878 -0.2058
13250TIP3   OH261164   5.881   3.399  12.783  0.1434  0.1086 -0.1868
13250TIP3    H161165   5.875   3.304  12.790 -0.3695  0.1991  0.8530
13250TIP3    H261166   5.791   3.428  12.770  0.2468  0.4759 -0.0967
13251TIP3   OH261167   4.014   4.348   1.728  0.1601  0.4050  0.1156
13251TIP3    H161168   4.074   4.298   1.673  1.0102  0.4058  1.0350
13251TIP3    H261169   3.968   4.406   1.666 -0.9797 -1.5725 -0.9981
13252TIP3   OH261170   5.657   4.982   0.518 -0.3584 -0.0259 -0.1838
13252TIP3    H161171   5.632   4.934   0.439 -0.4967  0.0589 -0.1912
13252TIP3    H261172   5.712   5.054   0.486 -0.1889 -0.1509 -0.1770
13253TIP3   OH261173   5.072   1.408  15.027  0.3914  0.0974  0.4015
13253TIP3    H161174   5.052   1.469  15.098  0.7515 -1.1809  1.6486
13253TIP3    H261175   4.987   1.386  14.989  0.2128  0.9363  0.2966
13254TIP3   OH261176   1.155   0.301  16.275  0.0578  0.2318 -0.1997
13254TIP3    H161177   1.231   0.266  16.227 -0.2774 -0.0349 -0.5382
13254TIP3    H261178   1.095   0.228  16.281 -0.6867  0.7626 -0.9752
13255TIP3   OH261179   4.233   3.571   6.035  0.4310 -0.1138 -0.3751
13255TIP3    H161180   4.301   3.514   6.071 -0.7375 -0.3640  1.5369
13255TIP3    H261181   4.262   3.660   6.056  0.8476 -0.1358 -0.8332
13256TIP3   OH261182   1.237   5.100   2.297 -0.2458  0.2314 -0.0063
13256TIP3    H161183   1.177   5.068   2.364  1.3431  0.5305  1.6225
13256TIP3    H261184   1.209   5.190   2.281 -1.6503 -0.3439 -1.0032
13257TIP3   OH261185   3.969   2.505  17.314 -0.0272  0.0527  0.6362
13257TIP3    H161186   4.042   2.444  17.314  0.1847  0.3026  0.5962
13257TIP3    H261187   3.930   2.496  17.401 -0.3440 -0.5448  0.4356
13258TIP3   OH261188   1.451   1.733   1.679  0.1065 -0.0601 -0.6697
13258TIP3    H161189   1.546   1.732   1.665  0.2031 -0.9428 -0.0880
13258TIP3    H261190   1.431   1.823   1.704  1.2113 -0.4069  1.7204
13259TIP3   OH261191   2.183   4.843  15.826 -0.0313 -0.0697  0.1345
13259TIP3    H161192   2.131   4.913  15.863 -0.3875 -0.8193  1.0882
13259TIP3    H261193   2.270   4.854  15.865 -0.1566 -0.3023  0.4861
13260TIP3   OH261194   0.690   0.834   1.450 -0.5912 -0.0729 -0.6200
13260TIP3    H161195   0.647   0.911   1.414  0.8717  0.9709 -0.2071
13260TIP3    H261196   0.678   0.767   1.383 -0.5051  0.9773 -1.7234
13261TIP3   OH261197   3.491   1.595  16.550 -0.3199 -0.0573 -0.0439
13261TIP3    H161198   3.568   1.543  16.572 -1.2363 -1.1374  0.7879
13261TIP3    H261199   3.515   1.642  16.470  1.2752 -0.1401  0.3545
13262TIP3   OH261200   6.415   1.819  16.853 -0.0972  0.1368 -0.1146
13262TIP3    H161201   6.354   1.893  16.846  0.5405  0.9510  2.0940
13262TIP3    H261202   6.423   1.804  16.947 -0.5211 -3.0640 -0.4819
13263TIP3   OH261203   2.023   5.527   5.586  0.1822 -0.3369  0.0171
13263TIP3    H161204   2.059   5.551   5.501  0.4268  0.2239  0.2734
13263TIP3    H261205   2.063   5.588   5.648  1.7641 -2.1788  0.9034
13264TIP3   OH261206   4.453   0.603   4.194 -0.3212 -0.5256 -0.4426
13264TIP3    H161207   4.378   0.588   4.137 -0.3462  0.3710 -0.6685
13264TIP3    H261208   4.419   0.663   4.261  0.1644 -0.2032 -0.4848
13265TIP3   OH261209   3.805   3.956  12.984 -0.1413  0.0830  0.2162
13265TIP3    H161210   3.805   4.025  12.917  1.7712 -0.6365 -0.6191
13265TIP3    H261211   3.802   4.003  13.067  0.8807  1.1876 -0.3431
13266TIP3   OH261212   2.687   1.325  13.459  0.1500  0.0485 -0.3789
13266TIP3    H161213   2.701   1.299  13.550  1.2451  3.4082  0.5834
13266TIP3    H261214   2.736   1.262  13.408 -0.1482 -1.6995  1.3712
13267TIP3   OH261215   1.516   1.716  13.618 -0.3847 -0.1457 -0.0129
13267TIP3    H161216   1.465   1.781  13.667 -0.1779  1.5670 -1.9204
13267TIP3    H261217   1.599   1.761  13.598  0.5761 -1.7188  0.2763
13268TIP3   OH261218   1.316   2.141  15.790  0.4804 -0.3513  0.0873
13268TIP3    H161219   1.396   2.143  15.736  0.2836 -0.9576 -0.2375
13268TIP3    H261220   1.338   2.193  15.867  0.8101  0.4389 -0.5219
13269TIP3   OH261221   0.376   1.569   5.222  0.1666 -0.3879 -0.1997
13269TIP3    H161222   0.428   1.497   5.257 -0.4410 -0.9779 -0.4933
13269TIP3    H261223   0.429   1.647   5.239  0.0413 -0.6723  1.7441
13270TIP3   OH261224   5.123   5.869  15.342  0.4121  0.0034 -0.4992
13270TIP3    H161225   5.106   5.963  15.347  0.0695 -0.0781 -0.0559
13270TIP3    H261226   5.054   5.829  15.394 -0.6633 -0.6370 -2.3268
13271TIP3   OH261227   5.164   5.740   1.426  0.4018  0.3656  0.2572
13271TIP3    H161228   5.183   5.715   1.517  0.3064  1.8788  0.7200
13271TIP3    H261229   5.073   5.770   1.428  0.7639  1.5455 -0.0718
13272TIP3   OH261230   3.526   1.942  12.795  0.0148 -0.1363 -0.3966
13272TIP3    H161231   3.595   1.984  12.744  1.4002 -0.3733  1.1843
13272TIP3    H261232   3.480   1.886  12.733  1.0339  0.2774 -1.5593
13273TIP3   OH261233   2.342   2.002  13.182 -0.4410  0.1299 -0.6723
13273TIP3    H161234   2.283   2.036  13.249  0.1886  0.1187 -0.1022
13273TIP3    H261235   2.387   1.928  13.224 -0.3130 -0.1188 -1.2297
13274TIP3   OH261236   1.743   3.903   3.342 -0.0251  0.0124 -0.3447
13274TIP3    H161237   1.786   3.981   3.377  1.3983 -0.9188  0.0403
13274TIP3    H261238   1.688   3.872   3.414  1.6585 -0.9751  0.5763
13275TIP3   OH261239   5.827   0.016   4.299  0.2974  0.1939  0.2436
13275TIP3    H161240   5.911  -0.028   4.291  1.4898  2.5592 -1.4287
13275TIP3    H261241   5.823   0.044   4.390  0.6107 -1.1623  0.6991
13276TIP3   OH261242   1.691   1.109  15.258  0.6530  0.3552 -0.6977
13276TIP3    H161243   1.662   1.144  15.342  0.4549 -0.1915 -0.5302
13276TIP3    H261244   1.782   1.085  15.272  0.0150 -1.9043  0.1088
13277TIP3   OH261245   5.689   1.915  16.300  0.0560 -0.4435  0.0838
13277TIP3    H161246   5.617   1.963  16.341 -0.9859 -0.6843 -1.3588
13277TIP3    H261247   5.751   1.984  16.274  0.2919 -0.2178  1.1984
13278TIP3   OH261248   4.022   0.445   0.442 -0.3748  0.4956  0.4450
13278TIP3    H161249   3.989   0.383   0.378 -1.2018  0.7689  0.5888
13278TIP3    H261250   4.007   0.403   0.527 -1.8654  1.2730  0.6042
13279TIP3   OH261251   0.295   1.314  13.119 -0.3428 -0.4598  0.2062
13279TIP3    H161252   0.270   1.296  13.029 -0.5900 -2.9485  0.7029
13279TIP3    H261253   0.253   1.398  13.140  0.7342  0.8216 -2.3143
13280TIP3   OH261254   5.509   4.773  15.655  0.0119  0.1992 -0.4884
13280TIP3    H161255   5.477   4.751  15.568 -1.3875 -0.2723  0.1060
13280TIP3    H261256   5.537   4.864  15.649 -0.6003  0.3401 -1.2930
13281TIP3   OH261257   0.246   0.422   1.002  0.8885  0.2681  0.2462
13281TIP3    H161258   0.272   0.414   1.094  2.7376  1.3944 -0.1154
13281TIP3    H261259   0.260   0.335   0.965 -1.2003 -0.5745  1.2808
13282TIP3   OH261260   0.697   4.484  15.414 -0.3159  0.5569 -0.2001
13282TIP3    H161261   0.708   4.565  15.464 -0.0867  0.5846 -0.2941
13282TIP3    H261262   0.785   4.447  15.409 -0.5752 -0.2576  0.7986
13283TIP3   OH261263   2.865   1.948   3.939 -0.2808 -0.4040 -0.0094
13283TIP3    H161264   2.904   1.971   4.023  1.6698 -1.6324 -0.5156
13283TIP3    H261265   2.794   1.887   3.962 -0.8482  0.5370  0.8182
13284TIP3   OH261266   0.380   5.904  16.335  0.1556 -0.2316  0.6786
13284TIP3    H161267   0.424   5.913  16.420  2.0362 -2.7154  0.0897
13284TIP3    H261268   0.352   5.993  16.313  0.8300  0.7137  3.2314
13285TIP3   OH261269   6.534   6.665   1.444 -0.3728  0.0115 -0.1125
13285TIP3    H161270   6.442   6.660   1.419 -0.5662 -0.3591  0.6500
13285TIP3    H261271   6.577   6.597   1.393 -0.5651  0.0269 -0.2960
13286TIP3   OH261272   4.691   5.699  14.506 -0.0171  0.1615  0.2175
13286TIP3    H161273   4.765   5.729  14.453 -1.3122  1.7573 -0.8062
13286TIP3    H261274   4.725   5.693  14.595  2.0880 -2.0681 -0.6408
13287TIP3   OH261275   4.292   0.901   6.904  0.3257 -0.3141 -0.3903
13287TIP3    H161276   4.323   0.840   6.837 -1.2244 -1.5714 -0.0414
13287TIP3    H261277   4.198   0.907   6.890  0.3909  1.8329 -0.2146
13288TIP3   OH261278   1.601   0.525  12.352 -0.3811 -0.1191  0.6931
13288TIP3    H161279   1.684   0.486  12.380 -0.0148  0.1217 -0.0267
13288TIP3    H261280   1.610   0.618  12.372 -0.3960 -0.0604  0.4290
13289TIP3   OH261281   3.594   4.855  17.070  0.5232 -0.0817  0.0938
13289TIP3    H161282   3.588   4.824  17.160  0.0773  0.1335  0.1416
13289TIP3    H261283   3.676   4.904  17.067  0.2290  0.4444  0.5506
13290TIP3   OH261284   1.799   1.714  16.468  0.3103  0.1111  0.4219
13290TIP3    H161285   1.725   1.664  16.435  0.0373  0.4512  0.5106
13290TIP3    H261286   1.875   1.678  16.422 -0.3430  2.5499 -3.0516
13291TIP3   OH261287   0.709   5.813  10.501  0.1167 -0.5682 -0.7551
13291TIP3    H161288   0.656   5.856  10.434  0.1895  1.4543  0.4140
13291TIP3    H261289   0.646   5.784  10.567  0.2570 -0.0653 -0.3902
13292TIP3   OH261290   5.217   4.433   4.202  0.1824 -0.3557  0.3433
13292TIP3    H161291   5.308   4.417   4.178  0.6157  0.1687  1.5459
13292TIP3    H261292   5.209   4.397   4.291 -0.2309  1.3102  1.0250
13293TIP3   OH261293   5.220   2.396  15.815 -0.0033 -0.1322  0.3310
13293TIP3    H161294   5.215   2.462  15.746 -0.1402 -0.3436  0.1392
13293TIP3    H261295   5.293   2.425  15.870  1.0883 -0.7647 -0.7323
13294TIP3   OH261296   6.557   2.154   3.785 -0.8026 -0.4314  0.0963
13294TIP3    H161297   6.581   2.125   3.696 -2.2376 -0.2112 -0.3819
13294TIP3    H261298   6.521   2.241   3.773  0.9715  0.5106  1.2050
13295TIP3   OH261299   1.127   3.010   4.312 -0.5349  0.1177  0.0281
13295TIP3    H161300   1.161   2.978   4.396  0.1560 -0.1964 -0.3648
13295TIP3    H261301   1.065   2.942   4.284 -0.9699  0.3525  0.4077
13296TIP3   OH261302   2.111   3.525  13.399  0.4766  0.0450 -0.1424
13296TIP3    H161303   2.057   3.486  13.329 -1.2802 -0.1174  1.2204
13296TIP3    H261304   2.110   3.619  13.380 -2.6622  0.4267  1.2700
13297TIP3   OH261305   3.712   0.182   5.140  0.4395  0.4643  0.0983
13297TIP3    H161306   3.629   0.170   5.095 -0.0902  2.5854  0.3862
13297TIP3    H261307   3.755   0.254   5.094  1.4225  0.4024  0.8706
13298TIP3   OH261308   1.428   6.496   1.761  0.2513 -0.5088 -0.0488
13298TIP3    H161309   1.399   6.556   1.829 -1.3856  1.1748 -2.0816
13298TIP3    H261310   1.359   6.430   1.756  0.2723 -0.5179 -0.2224
13299TIP3   OH261311   0.508   4.313   1.799  0.3132  0.0172  0.0002
13299TIP3    H161312   0.597   4.315   1.836  0.6137  1.4110 -0.7210
13299TIP3    H261313   0.509   4.237   1.740  1.0999  0.1115 -0.1316
13300TIP3   OH261314   4.376   1.436  17.165 -0.6972  0.4660  0.3223
13300TIP3    H161315   4.431   1.408  17.092 -1.2703 -0.2680  0.1586
13300TIP3    H261316   4.400   1.378  17.237 -2.3274 -0.9451 -0.1938
13301TIP3   OH261317   0.986   6.627   3.669 -0.8011  0.1653  0.2327
13301TIP3    H161318   0.966   6.709   3.625 -0.7081 -0.2489 -0.6093
13301TIP3    H261319   0.910   6.571   3.650 -0.8558  0.0516  0.7815
13302TIP3   OH261320   4.442   0.726   6.724  0.2308 -0.1442  0.4504
13302TIP3    H161321   4.495   0.673   6.784 -0.6262 -0.3562  1.0409
13302TIP3    H261322   4.410   0.665   6.658  1.3936  0.1375 -0.4031
13303TIP3   OH261323   3.389   2.940   0.843  0.2178  0.4598 -0.1671
13303TIP3    H161324   3.317   2.951   0.906  0.2757  0.2803 -0.0696
13303TIP3    H261325   3.467   2.935   0.898  0.2104 -0.2806 -0.2219
13304TIP3   OH261326   4.758   3.791   4.179 -0.6866  0.1461  0.0017
13304TIP3    H161327   4.680   3.753   4.219  0.7539 -0.9461  1.9780
13304TIP3    H261328   4.793   3.721   4.123 -0.0838 -0.0989  0.6697
13305TIP3   OH261329   1.517   1.807  13.212  0.0542  0.0907 -0.3086
13305TIP3    H161330   1.560   1.724  13.234  0.4810 -0.0625 -1.6821
13305TIP3    H261331   1.572   1.846  13.145 -0.9598  0.7820 -0.7556
13306TIP3   OH261332   1.865   0.586  16.579 -0.5298  0.3517 -0.3403
13306TIP3    H161333   1.897   0.522  16.517 -0.4716  0.7416 -0.7154
13306TIP3    H261334   1.898   0.556  16.664  0.0101  0.2219 -0.5944
13307TIP3   OH261335   0.006   3.417  11.033  0.1548 -0.1120 -0.4741
13307TIP3    H161336   0.040   3.507  11.037 -0.5935  0.1317  1.4214
13307TIP3    H261337  -0.088   3.427  11.017  0.2006 -0.6037 -1.0967
13308TIP3   OH261338   1.896   1.455   0.739 -0.7049  0.2403  0.0786
13308TIP3    H161339   1.836   1.463   0.813  0.5931 -1.1257  1.3588
13308TIP3    H261340   1.873   1.371   0.698  0.6862 -0.6119  0.9730
13309TIP3   OH261341   6.420   4.819   3.172 -0.0762 -0.2506  0.8919
13309TIP3    H161342   6.401   4.728   3.197 -0.7364 -0.6637 -0.9875
13309TIP3    H261343   6.348   4.844   3.115  0.0862  1.4900  1.3954
13310TIP3   OH261344   1.305   5.662   1.478 -0.1333  0.3915  0.0116
13310TIP3    H161345   1.285   5.742   1.525  0.4227  1.3706 -1.3446
13310TIP3    H261346   1.398   5.646   1.496 -0.5239 -0.6479  1.2459
13311TIP3   OH261347   3.231   1.834  10.801 -0.9581  0.2105 -0.5566
13311TIP3    H161348   3.193   1.759  10.756 -1.1889  1.0300 -1.7821
13311TIP3    H261349   3.310   1.854  10.751 -1.1298  1.0382 -0.5118
13312TIP3   OH261350   0.543   5.579   2.310 -0.2040 -0.4116  0.1105
13312TIP3    H161351   0.576   5.519   2.244 -1.7810  0.2885 -1.4032
13312TIP3    H261352   0.503   5.650   2.260 -1.1135  0.3426  1.8132
13313TIP3   OH261353   2.920   3.062  12.502  0.6603  0.5138 -0.0843
13313TIP3    H161354   2.975   3.072  12.425 -1.7206 -0.0682 -1.9656
13313TIP3    H261355   2.978   3.022  12.568  3.1326  2.2758 -1.0250
13314TIP3   OH261356   3.335   6.317   0.052  0.4266 -0.1120  0.1537
13314TIP3    H161357   3.243   6.336   0.072  0.1286 -2.0683  0.8058
13314TIP3    H261358   3.331   6.259  -0.024  1.2677  1.5597 -1.2496
13315TIP3   OH261359   4.915   4.408  16.919  0.5722 -0.8135 -0.2528
13315TIP3    H161360   4.831   4.434  16.958  0.9834  0.3661 -0.1279
13315TIP3    H261361   4.890   4.348  16.848 -0.2670 -1.8312  0.8658
13316TIP3   OH261362   4.080   5.142   4.417 -0.6128 -0.0707 -0.5066
13316TIP3    H161363   3.990   5.167   4.395 -0.5007  1.3154  0.4471
13316TIP3    H261364   4.074   5.050   4.440 -1.5334 -0.3654 -1.7651
13317TIP3   OH261365   2.856   5.935   5.907 -0.2845  0.2014 -0.0691
13317TIP3    H161366   2.946   5.967   5.906  0.4307 -1.6520  0.6989
13317TIP3    H261367   2.828   5.946   5.998 -0.0210 -1.2667  0.2145
13318TIP3   OH261368   6.101   5.209   5.515  0.5121 -0.1351  0.5228
13318TIP3    H161369   6.142   5.176   5.595  0.8008 -0.2243  0.3386
13318TIP3    H261370   6.071   5.297   5.538  3.2694  1.0834 -0.0970
13319TIP3   OH261371   3.823   2.887   3.277  0.8468 -0.7122  0.3106
13319TIP3    H161372   3.808   2.844   3.192 -0.4292  1.6236 -0.7312
13319TIP3    H261373   3.751   2.856   3.332 -2.6436  2.9344 -1.6979
13320TIP3   OH261374   3.636   2.115   3.409 -0.0148 -0.0785  0.1328
13320TIP3    H161375   3.603   2.062   3.336  0.3910  1.9500 -1.6294
13320TIP3    H261376   3.561   2.124   3.468 -1.0357  0.0310 -1.1361
13321TIP3   OH261377   4.801   6.536  11.960  0.4042 -0.6552  0.2581
13321TIP3    H161378   4.825   6.447  11.932  0.0419 -1.4429  2.2681
13321TIP3    H261379   4.869   6.560  12.023  1.2186  1.0571 -1.2024
13322TIP3   OH261380   4.964   5.701  14.359  0.1868 -0.8677  0.2199
13322TIP3    H161381   4.951   5.607  14.352  2.8768 -1.4363  1.7631
13322TIP3    H261382   5.057   5.715  14.340 -0.5104  1.7824 -2.0023
13323TIP3   OH261383   3.747   4.456  14.831  0.2474  0.3178 -0.3542
13323TIP3    H161384   3.779   4.546  14.834  1.8795 -0.2491  0.6670
13323TIP3    H261385   3.772   4.419  14.915  0.5373 -1.3936 -1.1504
13324TIP3   OH261386   3.636   6.420  15.816 -0.5188 -0.0004  0.3487
13324TIP3    H161387   3.597   6.476  15.883  0.7388 -0.2326  1.3159
13324TIP3    H261388   3.722   6.458  15.800 -0.6839 -0.1221 -0.9534
13325TIP3   OH261389   0.331   4.656   1.216  0.2691 -0.2633  0.1814
13325TIP3    H161390   0.247   4.698   1.235 -0.6281 -1.1615 -1.5668
13325TIP3    H261391   0.340   4.663   1.121  1.6431 -1.2037  0.2147
13326TIP3   OH261392   4.480   2.381   3.419 -0.1601  0.1211  0.5558
13326TIP3    H161393   4.393   2.371   3.381  1.3505 -1.8869 -2.7331
13326TIP3    H261394   4.524   2.443   3.361  1.2053 -0.4196  0.9894
13327TIP3   OH261395   6.561   2.423  14.661 -0.0987  0.2044 -0.2194
13327TIP3    H161396   6.602   2.411  14.747  0.8540 -3.3463 -1.0362
13327TIP3    H261397   6.471   2.395  14.674 -0.6229  1.8585  0.0514
13328TIP3   OH261398   1.304   0.848   4.815 -0.0270 -0.5729  0.0208
13328TIP3    H161399   1.334   0.776   4.759  3.0320 -0.8926  1.8275
13328TIP3    H261400   1.297   0.923   4.756  2.4972 -1.0182 -0.9876
13329TIP3   OH261401   0.159   5.858   3.911 -0.1913  0.3134  1.1706
13329TIP3    H161402   0.149   5.800   3.986  0.4294 -0.3237  0.7618
13329TIP3    H261403   0.171   5.945   3.950  0.1250 -0.0070  1.8013
13330TIP3   OH261404   6.750   0.504   5.735  0.5261  0.0850  0.1171
13330TIP3    H161405   6.668   0.459   5.756 -0.0070  1.8065  2.0811
13330TIP3    H261406   6.727   0.560   5.660 -0.2020  0.7364  0.8038
13331TIP3   OH261407   5.619   3.312  14.678 -0.0166  0.4126  0.2930
13331TIP3    H161408   5.577   3.346  14.598  0.3068  0.7064  0.2421
13331TIP3    H261409   5.662   3.389  14.716  0.7345  0.0557  0.1758
13332TIP3   OH261410   1.944   4.842  15.559  0.2973  0.6962  0.3970
13332TIP3    H161411   2.025   4.826  15.608 -0.8840 -2.1013  1.6614
13332TIP3    H261412   1.887   4.887  15.622 -0.0831  0.0753  0.5058
13333TIP3   OH261413   3.923   0.054   1.495 -0.0494 -0.3499 -0.0698
13333TIP3    H161414   3.994   0.082   1.438  0.2974 -1.3284 -0.1445
13333TIP3    H261415   3.966   0.026   1.576 -0.4350 -0.0496  0.2455
13334TIP3   OH261416   3.492   5.748   0.194 -0.3302  0.1400 -0.5174
13334TIP3    H161417   3.561   5.814   0.206 -0.0952  0.1061 -1.5536
13334TIP3    H261418   3.532   5.682   0.138 -0.8914 -0.3914 -0.3013
13335TIP3   OH261419   4.530   2.054   1.849  0.1841 -0.5075 -0.0846
13335TIP3    H161420   4.483   2.133   1.824 -0.5286 -1.1109 -0.6970
13335TIP3    H261421   4.480   2.018   1.922 -0.5250 -1.3371 -0.9622
13336TIP3   OH261422   4.337   6.188  16.691 -0.5154  0.4019  0.2118
13336TIP3    H161423   4.341   6.153  16.781  1.9732 -0.3118 -0.0982
13336TIP3    H261424   4.401   6.137  16.643 -0.8858  1.6422 -1.6957
13337TIP3   OH261425   4.796   3.978   4.813  0.3265 -0.1679 -0.2103
13337TIP3    H161426   4.773   3.943   4.899  1.7894 -1.7838 -0.4325
13337TIP3    H261427   4.794   3.902   4.755 -1.2840  1.0030 -1.7768
13338TIP3   OH261428   3.863   0.343  11.692  0.5867 -0.3182 -0.4992
13338TIP3    H161429   3.828   0.413  11.748 -0.4554 -0.8252 -0.4755
13338TIP3    H261430   3.952   0.370  11.672  0.0672  1.2415 -0.8602
13339TIP3   OH261431   4.171   6.604   4.654 -0.5060 -0.0533  0.0782
13339TIP3    H161432   4.134   6.677   4.603 -0.9212  0.4425  1.0692
13339TIP3    H261433   4.108   6.533   4.642  0.3137 -0.5577 -1.5713
13340TIP3   OH261434   5.050   3.764   4.712  0.1410  0.2128  0.0184
13340TIP3    H161435   5.099   3.700   4.764  0.6640  0.7683  0.2192
13340TIP3    H261436   5.043   3.724   4.625 -0.4696 -0.5876  0.4204
13341TIP3   OH261437   4.314   6.213   3.428 -0.4603  0.1269 -0.5047
13341TIP3    H161438   4.328   6.268   3.350 -1.8421  0.2361 -0.7161
13341TIP3    H261439   4.294   6.126   3.393 -1.9909  0.3772 -0.3595
13342TIP3   OH261440   2.748   4.568  14.542  0.0896 -0.5715 -0.6079
13342TIP3    H161441   2.684   4.636  14.518 -0.6704 -1.6228 -1.7149
13342TIP3    H261442   2.806   4.611  14.604  0.6845  1.6312 -2.5364
13343TIP3   OH261443   4.694   0.498  17.243 -0.1749  0.3237  0.6635
13343TIP3    H161444   4.779   0.522  17.281 -0.2252 -0.6364  1.4290
13343TIP3    H261445   4.651   0.582  17.225  0.5660  0.8141  1.1161
13344TIP3   OH261446   4.718   1.008   5.891 -0.2117 -0.0850 -0.4798
13344TIP3    H161447   4.759   0.962   5.965 -0.2133 -0.1898 -0.5428
13344TIP3    H261448   4.675   1.083   5.930 -0.5627 -0.3666 -0.3187
13345TIP3   OH261449   2.240   1.055   3.874 -0.4610  0.2521  0.3884
13345TIP3    H161450   2.302   0.997   3.919 -0.0860 -0.3668 -0.8758
13345TIP3    H261451   2.209   1.114   3.943 -0.2967 -0.9648  1.5645
13346TIP3   OH261452   0.404   5.037   2.141 -0.2033 -0.1788  0.2680
13346TIP3    H161453   0.347   5.050   2.066 -0.1741  0.6160  0.3790
13346TIP3    H261454   0.414   5.124   2.180  1.5829 -0.1799 -0.1054
13347TIP3   OH261455   3.198   1.891   0.028  0.3321  0.3950  0.1262
13347TIP3    H161456   3.253   1.960  -0.009 -0.2788  0.2608 -1.0638
13347TIP3    H261457   3.227   1.811  -0.015 -0.6788  0.3009 -0.4021
13348TIP3   OH261458   5.433   0.741  11.945 -0.0669  0.3283  0.0108
13348TIP3    H161459   5.403   0.830  11.965 -2.3296 -0.5328  0.7727
13348TIP3    H261460   5.417   0.692  12.026  2.5288 -0.5086  0.1072
13349TIP3   OH261461   6.449   1.212   4.560  0.8419  0.2993 -0.2451
13349TIP3    H161462   6.374   1.160   4.531 -0.3415  1.8491 -0.1002
13349TIP3    H261463   6.429   1.234   4.651  2.3188 -0.6673  0.3561
13350TIP3   OH261464   4.407   0.820  12.786 -0.5998  0.0784 -0.3310
13350TIP3    H161465   4.447   0.856  12.708 -0.3861  0.5305 -0.0178
13350TIP3    H261466   4.469   0.755  12.818 -0.9576 -0.5342 -0.8634
13351TIP3   OH261467   2.630   4.548  11.124 -0.3298  0.0647  0.6303
13351TIP3    H161468   2.699   4.495  11.084 -0.3979  0.7692 -0.4623
13351TIP3    H261469   2.620   4.622  11.065  0.5852  1.9442  2.7220
13352TIP3   OH261470   1.314   1.787   3.940  0.1328 -0.3680 -0.3251
13352TIP3    H161471   1.344   1.833   4.018 -1.0634  0.2658 -0.1984
13352TIP3    H261472   1.366   1.708   3.936  0.5748 -0.1489  0.8227
13353TIP3   OH261473   6.212   4.149  12.520  0.9466  0.1644  0.3554
13353TIP3    H161474   6.241   4.190  12.601 -0.3797  1.6874  0.1066
13353TIP3    H261475   6.293   4.119  12.478  1.6664 -0.4453  2.0981
13354TIP3   OH261476   6.418   5.755   5.362 -0.1350  0.2876  0.0752
13354TIP3    H161477   6.470   5.808   5.423 -0.8277  1.8144 -0.6151
13354TIP3    H261478   6.394   5.815   5.292 -2.0583 -0.5993 -0.0909
13355TIP3   OH261479   0.317   5.966  14.338 -0.0950 -0.3909  0.3733
13355TIP3    H161480   0.378   6.034  14.367 -1.6972  0.7796  1.2123
13355TIP3    H261481   0.254   6.014  14.283 -0.9005 -1.3144  0.4698
13356TIP3   OH261482   5.241   6.363   0.211 -0.0297 -0.3155 -0.0948
13356TIP3    H161483   5.253   6.305   0.286 -0.0635  0.2456  0.3615
13356TIP3    H261484   5.298   6.438   0.230 -0.6755  0.2189 -0.2144
13357TIP3   OH261485   5.060   1.812   3.480 -0.1651  0.0507 -0.1220
13357TIP3    H161486   4.973   1.843   3.505  0.4381  0.7249  1.2676
13357TIP3    H261487   5.117   1.888   3.493  0.7898 -0.6628  0.0042
13358TIP3   OH261488   2.259   3.985   3.677  0.1781 -0.1903 -0.3710
13358TIP3    H161489   2.226   3.899   3.652 -0.4827 -0.0550  0.0040
13358TIP3    H261490   2.344   3.992   3.634  1.7559 -2.3408  2.1297
13359TIP3   OH261491   4.940   4.762  17.374  0.3716  0.0396  0.5318
13359TIP3    H161492   5.018   4.706  17.365  1.1083  1.0495  0.3991
13359TIP3    H261493   4.975   4.851  17.376 -0.8860  0.6146 -0.9742
13360TIP3   OH261494   0.834   5.828   4.292 -0.4799  0.2270  0.1824
13360TIP3    H161495   0.795   5.914   4.310 -1.0089 -0.0002  0.1633
13360TIP3    H261496   0.911   5.823   4.349  0.0685  1.0752 -0.4745
13361TIP3   OH261497   4.072   1.801  16.583 -0.6474  0.4361  0.0142
13361TIP3    H161498   4.142   1.741  16.610  1.4201  2.5348 -0.3376
13361TIP3    H261499   4.045   1.769  16.497 -2.1138 -1.9606  1.2371
13362TIP3   OH261500   4.694   0.210  12.042 -0.4114 -0.4677  0.5690
13362TIP3    H161501   4.748   0.132  12.051  0.4595  0.0629  0.1109
13362TIP3    H261502   4.713   0.262  12.120 -0.3934 -0.3585  0.4913
13363TIP3   OH261503   0.651   2.651   5.707  0.6341 -0.3589  0.0201
13363TIP3    H161504   0.700   2.649   5.789  0.8868 -1.4541 -0.1410
13363TIP3    H261505   0.715   2.674   5.640  0.4944  0.2224  0.0843
13364TIP3   OH261506   4.752   1.963  11.787 -0.2383  0.2589 -0.4264
13364TIP3    H161507   4.671   2.001  11.751  0.8646  1.9617 -1.2339
13364TIP3    H261508   4.731   1.945  11.878 -1.8978 -0.4604 -0.9052
13365TIP3   OH261509   4.322   2.471  11.446  0.0820 -0.1625  0.3593
13365TIP3    H161510   4.260   2.433  11.508 -0.0310 -0.6183 -0.0226
13365TIP3    H261511   4.396   2.500  11.500 -0.9989  1.5791  0.9869
13366TIP3   OH261512   0.929   4.117  11.358 -0.3634 -0.3674 -0.5282
13366TIP3    H161513   1.023   4.107  11.376  0.1292  1.8111 -1.6069
13366TIP3    H261514   0.898   4.178  11.424 -1.0095 -0.9469 -0.2825
13367TIP3   OH261515   0.193   0.484  11.271  0.2413  0.0688  0.4893
13367TIP3    H161516   0.181   0.456  11.362  0.2175 -1.0369  0.1594
13367TIP3    H261517   0.141   0.422  11.220  0.4651  0.5202 -0.3032
13368TIP3   OH261518   3.499   4.987  13.992  0.4331  0.3814  0.3178
13368TIP3    H161519   3.488   5.031  13.907  1.1960  0.0371  0.0297
13368TIP3    H261520   3.537   5.054  14.049  0.5794  0.4142  0.1835
13369TIP3   OH261521   4.823   4.744  16.208 -0.2771 -0.0988 -0.2990
13369TIP3    H161522   4.753   4.808  16.225  0.6884  0.6172  1.1471
13369TIP3    H261523   4.778   4.660  16.209 -1.5174  0.5023 -1.8808
13370TIP3   OH261524   4.015   5.410  13.843 -0.1129 -0.3196 -0.3395
13370TIP3    H161525   4.034   5.450  13.758  1.9018 -1.0918 -0.3223
13370TIP3    H261526   4.057   5.468  13.907  0.5914 -1.0565 -0.1095
13371TIP3   OH261527   0.286   0.005  12.068  0.3253  0.1398 -0.6257
13371TIP3    H161528   0.194   0.027  12.050 -0.4259 -2.1689  0.1139
13371TIP3    H261529   0.309   0.060  12.143 -0.2097  1.2199 -1.2134
13372TIP3   OH261530   0.230   1.510   4.054  0.2830  0.0946 -0.1142
13372TIP3    H161531   0.326   1.506   4.045  0.2693 -2.0599  0.1568
13372TIP3    H261532   0.212   1.601   4.076  2.1990  0.7338 -0.9471
13373TIP3   OH261533   4.975   4.376  13.323 -0.2599  0.0288 -0.0919
13373TIP3    H161534   4.922   4.301  13.350 -0.0105  0.4050  1.5302
13373TIP3    H261535   4.918   4.426  13.264  0.4985 -2.8312 -3.5830
13374TIP3   OH261536   3.293   3.262   3.785 -0.1041 -0.4194 -0.5059
13374TIP3    H161537   3.235   3.222   3.721  0.4333 -1.1636 -0.5386
13374TIP3    H261538   3.357   3.194   3.806  1.0179  0.5128 -0.7848
13375TIP3   OH261539   5.455   3.115   2.052 -0.2101  0.0933 -0.8585
13375TIP3    H161540   5.487   3.048   1.993  2.4354 -1.6602  2.2482
13375TIP3    H261541   5.529   3.174   2.065 -0.3312 -0.1598  1.4035
13376TIP3   OH261542   5.174   2.840   3.650 -0.0766  0.2588  0.1226
13376TIP3    H161543   5.205   2.911   3.594  1.6093  0.5005  1.2987
13376TIP3    H261544   5.097   2.877   3.695  0.5554  1.2355  0.4366
13377TIP3   OH261545   2.844   3.960   5.427  0.1849  0.3363  1.0155
13377TIP3    H161546   2.761   3.970   5.474  0.2635  0.3265  1.1585
13377TIP3    H261547   2.900   3.910   5.488  0.6639  1.2759  1.3738
13378TIP3   OH261548   2.253   3.119  12.282  0.1308  0.5775 -0.6680
13378TIP3    H161549   2.231   3.042  12.335  1.3104 -0.4084 -1.5531
13378TIP3    H261550   2.332   3.093  12.234  0.2231  2.1479 -1.4141
13379TIP3   OH261551   5.651   5.784  14.402 -0.4132  0.0328 -0.6291
13379TIP3    H161552   5.606   5.716  14.452  1.8477  0.6814  2.6247
13379TIP3    H261553   5.611   5.866  14.431 -0.5294  0.3291 -1.5920
13380TIP3   OH261554   3.434   2.960   0.548  0.2713 -0.3446  0.8724
13380TIP3    H161555   3.422   2.989   0.639  2.0489  0.1488  0.9806
13380TIP3    H261556   3.511   2.904   0.550  0.2072 -0.5017 -0.3109
13381TIP3   OH261557   3.103   1.572   2.444  0.3007  0.0853 -0.3144
13381TIP3    H161558   3.091   1.629   2.368  1.7777  0.7442 -0.1071
13381TIP3    H261559   3.176   1.613   2.492  1.0700 -1.6992  0.1086
13382TIP3   OH261560   0.729   6.152   2.101 -0.0542  0.0931  0.4034
13382TIP3    H161561   0.640   6.166   2.068  0.2822  1.1132 -0.1071
13382TIP3    H261562   0.763   6.240   2.115  0.8843 -0.2930  0.5794
13383TIP3   OH261563   3.564   3.892   3.925 -0.5823  0.5134  0.3622
13383TIP3    H161564   3.564   3.813   3.870  0.0543  1.5012 -1.1274
13383TIP3    H261565   3.488   3.881   3.982 -0.9385 -0.8442 -0.3218
13384TIP3   OH261566   0.923   4.201   0.259 -0.1605  0.2585 -0.3515
13384TIP3    H161567   0.936   4.237   0.171 -1.1046 -0.2819 -0.7265
13384TIP3    H261568   0.941   4.107   0.250  1.5279  0.4627  0.4491
13385TIP3   OH261569   4.328   3.927   6.704  0.0023 -0.2287 -0.1113
13385TIP3    H161570   4.401   3.881   6.745  1.9066  0.5957 -2.3941
13385TIP3    H261571   4.267   3.857   6.678  0.6129 -1.0443  0.6000
13386TIP3   OH261572   2.100   4.858  14.663 -0.0135 -0.2864 -0.2385
13386TIP3    H161573   2.175   4.815  14.623  0.6867 -0.3048  1.0454
13386TIP3    H261574   2.096   4.823  14.752 -0.5357  0.9405  0.2468
13387TIP3   OH261575   4.388   0.774  11.942 -0.3433 -0.0488  0.2376
13387TIP3    H161576   4.410   0.804  12.031 -1.5126  1.8870 -0.0690
13387TIP3    H261577   4.302   0.734  11.951 -0.8653  0.9730 -0.1726
13388TIP3   OH261578   1.289   1.100  15.248  0.5441  0.3220  0.2660
13388TIP3    H161579   1.209   1.140  15.213 -0.2154 -1.0749  0.3309
13388TIP3    H261580   1.287   1.010  15.216  1.3939 -0.1214  1.3853
13389TIP3   OH261581   3.868   0.227  12.927  0.1045 -0.0866 -0.2100
13389TIP3    H161582   3.862   0.135  12.952 -0.5175  0.0196  0.0317
13389TIP3    H261583   3.879   0.225  12.832  1.9675 -0.4710 -0.0439
13390TIP3   OH261584   0.602   5.676  14.372  0.4771 -0.0680 -0.1310
13390TIP3    H161585   0.556   5.674  14.456 -0.7555  0.7201 -0.7584
13390TIP3    H261586   0.651   5.759  14.374 -0.9419  0.8281 -0.8634
13391TIP3   OH261587   0.465   0.260   3.739  0.2652 -0.3121 -0.1856
13391TIP3    H161588   0.558   0.260   3.718  0.2431 -2.2700 -0.4475
13391TIP3    H261589   0.421   0.244   3.655 -0.2485 -0.5245  0.1200
13392TIP3   OH261590   2.147   2.991   4.997 -0.0972 -0.8175  0.6972
13392TIP3    H161591   2.201   3.053   5.046  0.7498 -1.9853  1.2578
13392TIP3    H261592   2.198   2.910   4.995 -0.5560 -1.1068 -1.2399
13393TIP3   OH261593   5.088   6.574  15.645 -0.0025  0.1111  0.2077
13393TIP3    H161594   5.105   6.590  15.738 -1.3741  1.0623  0.3267
13393TIP3    H261595   5.026   6.501  15.645  0.8348 -0.6165 -0.0300
13394TIP3   OH261596   4.313   1.756  14.303  0.7097 -0.2427  0.3928
13394TIP3    H161597   4.246   1.817  14.333  0.9744 -0.6636  1.9342
13394TIP3    H261598   4.267   1.674  14.288  1.0124 -0.9241  2.7620
13395TIP3   OH261599   4.823   4.519  14.208  0.1494 -0.3685 -0.3310
13395TIP3    H161600   4.814   4.567  14.291  0.3394  1.1176 -1.1398
13395TIP3    H261601   4.826   4.427  14.234  2.8203  0.1356  1.5620
13396TIP3   OH261602   5.707   4.619   4.272 -0.2825  0.2077  0.4217
13396TIP3    H161603   5.720   4.550   4.338 -1.2976  1.1172  1.6307
13396TIP3    H261604   5.624   4.659   4.297  0.1247  1.6496 -0.4726
13397TIP3   OH261605   1.860   0.647   0.264 -0.5856 -0.5938 -0.1966
13397TIP3    H161606   1.798   0.712   0.295  0.0325  0.6290 -1.4214
13397TIP3    H261607   1.923   0.638   0.335 -1.0784 -0.3977  0.2684
13398TIP3   OH261608   1.586   5.631   4.221 -0.4033  0.2346  0.1227
13398TIP3    H161609   1.673   5.641   4.182  0.0837  3.2865  1.7106
13398TIP3    H261610   1.528   5.681   4.163 -0.6980  0.1432  0.3375
13399TIP3   OH261611   1.838   4.753  13.312  0.1943 -0.3499  0.0212
13399TIP3    H161612   1.762   4.698  13.295  1.2426 -1.7331 -0.3486
13399TIP3    H261613   1.848   4.752  13.408  0.2620 -0.8858  0.0089
13400TIP3   OH261614   6.232   1.024   3.796 -0.1998  0.2038  0.0890
13400TIP3    H161615   6.223   1.020   3.701 -1.8533  2.9503  0.0119
13400TIP3    H261616   6.205   0.937   3.826 -0.9436 -0.3120 -1.8984
13401TIP3   OH261617   5.879   5.567  11.998  0.7863 -0.2445 -0.3549
13401TIP3    H161618   5.852   5.529  12.082 -2.5496  0.4200 -0.9652
13401TIP3    H261619   5.887   5.492  11.939  1.3592 -0.5693  0.1317
13402TIP3   OH261620   5.445   4.165   2.604 -0.0861  0.2849  0.5066
13402TIP3    H161621   5.463   4.235   2.542  0.4307 -0.0769  0.2432
13402TIP3    H261622   5.388   4.104   2.556 -0.8511  0.7070  0.8605
13403TIP3   OH261623   0.262   1.843   1.240 -0.4700  0.0502  0.2893
13403TIP3    H161624   0.199   1.911   1.260 -0.1915  0.6741 -0.8560
13403TIP3    H261625   0.334   1.857   1.302  0.1655  1.6258 -0.7357
13404TIP3   OH261626   6.108   4.817   3.903  0.8440  0.3798  0.2981
13404TIP3    H161627   6.124   4.730   3.867  0.3580  0.7812 -0.9408
13404TIP3    H261628   6.116   4.806   3.998 -3.4630 -1.9916  0.6238
13405TIP3   OH261629   0.886   5.253   4.580  0.1448  0.4375 -0.3601
13405TIP3    H161630   0.884   5.335   4.630  0.6235  1.1706 -1.5060
13405TIP3    H261631   0.810   5.204   4.610  0.8366  0.4965  1.6519
13406TIP3   OH261632   4.406   4.309  16.457  0.2512  0.2020 -0.0408
13406TIP3    H161633   4.313   4.326  16.470  0.1244  1.5208 -2.1058
13406TIP3    H261634   4.408   4.231  16.402  0.3444  0.2520 -0.1085
13407TIP3   OH261635   1.672   4.526   4.053 -0.1075  0.2143 -0.6835
13407TIP3    H161636   1.727   4.448   4.042 -1.2021 -0.6973  0.1262
13407TIP3    H261637   1.613   4.504   4.125 -0.2843  1.8908 -0.2772
13408TIP3   OH261638   3.913   4.165  14.807  0.2173 -0.0844  0.9157
13408TIP3    H161639   3.862   4.219  14.746  1.7365  1.1652  0.7037
13408TIP3    H261640   3.886   4.197  14.894  0.3505  0.3108  0.8157
13409TIP3   OH261641   4.145   1.793   5.406  0.0333 -0.0387  0.4501
13409TIP3    H161642   4.234   1.773   5.435  0.3903 -1.3149 -1.3517
13409TIP3    H261643   4.117   1.865   5.462  2.9882  1.8591 -0.2658
13410TIP3   OH261644   6.130   5.802   1.182  0.0457 -0.5565  0.5219
13410TIP3    H161645   6.044   5.818   1.221  1.1012  0.8061  2.4387
13410TIP3    H261646   6.179   5.757   1.251  1.5820  0.7880  0.3628
13411TIP3   OH261647   3.251   6.354   1.715 -0.3942 -0.4346 -0.5037
13411TIP3    H161648   3.308   6.286   1.753  0.3026  0.5273  0.2494
13411TIP3    H261649   3.178   6.306   1.677 -0.2065 -1.5745  0.5109
13412TIP3   OH261650   0.806   0.976   1.908  0.1539  0.0713  0.1044
13412TIP3    H161651   0.727   0.961   1.959  1.0318 -0.9208  1.2353
13412TIP3    H261652   0.876   0.939   1.962  1.1878 -0.5684 -1.6235
13413TIP3   OH261653   2.022   0.713   2.157  0.3215  0.3783  0.4502
13413TIP3    H161654   2.047   0.804   2.174 -0.1342  0.2157  2.2553
13413TIP3    H261655   1.928   0.718   2.136  0.2456  0.3289  0.7607
13414TIP3   OH261656   4.345   0.835  11.612 -0.2971 -0.3627  0.2227
13414TIP3    H161657   4.263   0.871  11.579 -0.2892 -0.8240 -0.3302
13414TIP3    H261658   4.331   0.740  11.609 -0.6566 -0.4476  2.4906
13415TIP3   OH261659   3.069   4.029   0.405 -0.7591 -0.2893  0.5798
13415TIP3    H161660   3.013   4.088   0.353 -0.2021  2.1611  2.5829
13415TIP3    H261661   3.136   3.999   0.343 -1.1300  1.0765 -0.5385
13416TIP3   OH261662   1.341   3.037   5.794  0.3693  0.3419 -0.2601
13416TIP3    H161663   1.425   3.020   5.838  1.5230  2.0927 -1.6554
13416TIP3    H261664   1.299   2.951   5.791  2.1274 -0.6055  0.4540
13417TIP3   OH261665   1.211   6.731   5.357  0.1456 -0.3526  0.1111
13417TIP3    H161666   1.233   6.638   5.368  0.2225 -0.5158 -1.2563
13417TIP3    H261667   1.244   6.753   5.270 -0.7199  0.7121  0.0403
13418TIP3   OH261668   4.565   0.506   2.524 -0.4040  0.5600 -0.2952
13418TIP3    H161669   4.608   0.588   2.549  0.6157  1.0031 -3.1687
13418TIP3    H261670   4.637   0.442   2.518 -0.6236  0.4053 -1.6160
13419TIP3   OH261671   0.838   3.341   5.585 -0.3803 -0.2289  0.1442
13419TIP3    H161672   0.892   3.383   5.653 -0.7955  0.6773 -0.0699
13419TIP3    H261673   0.761   3.311   5.632 -0.3999 -0.1235  0.1807
13420TIP3   OH261674   2.420   4.888   0.533 -0.1256 -0.0619 -0.1943
13420TIP3    H161675   2.353   4.843   0.482 -1.1999  1.2745 -0.0055
13420TIP3    H261676   2.390   4.883   0.623  0.0141  0.5631 -0.1077
13421TIP3   OH261677   5.579   0.771  11.340 -0.2455 -0.2221  0.7156
13421TIP3    H161678   5.511   0.789  11.405 -0.5597  1.2031  0.0264
13421TIP3    H261679   5.532   0.731  11.267 -0.6334  2.0297 -0.3358
13422TIP3   OH261680   0.380   5.266   2.268 -0.4412  0.2656 -0.1482
13422TIP3    H161681   0.425   5.344   2.234 -0.9796  0.2878 -0.8172
13422TIP3    H261682   0.439   5.233   2.337 -0.3872  1.4802  0.4123
13423TIP3   OH261683   1.015   5.894   2.935  0.1498 -0.4843  0.2087
13423TIP3    H161684   0.947   5.935   2.988 -0.0012  0.8316 -0.9279
13423TIP3    H261685   1.000   5.929   2.847  1.4866 -1.2080 -0.3296
13424TIP3   OH261686   6.242   1.648   0.687 -0.2372  0.1710  0.2553
13424TIP3    H161687   6.275   1.719   0.743  0.6531 -0.9014  1.1475
13424TIP3    H261688   6.318   1.620   0.636 -0.3982 -0.5719  0.4062
13425TIP3   OH261689   6.250   5.765   6.255  0.4925 -0.3106 -0.2650
13425TIP3    H161690   6.335   5.723   6.270  0.4717 -0.4630 -0.5764
13425TIP3    H261691   6.242   5.828   6.327  0.8441 -0.3365 -0.2006
13426TIP3   OH261692   2.815   2.620   3.091 -0.0653  0.8714  0.1661
13426TIP3    H161693   2.871   2.585   3.161 -1.3633 -0.8834  0.4120
13426TIP3    H261694   2.839   2.568   3.014 -2.5490 -1.3109  0.7101
13427TIP3   OH261695   5.098   3.978   3.962 -0.0762 -0.7112 -0.5487
13427TIP3    H161696   5.027   3.949   3.904  0.5886 -0.0613 -1.7222
13427TIP3    H261697   5.110   3.905   4.022  0.9600 -2.6054 -2.8690
13428TIP3   OH261698   4.683   2.667  12.456 -0.2248 -0.9941 -0.4273
13428TIP3    H161699   4.658   2.724  12.528 -0.5903  0.7584 -1.8792
13428TIP3    H261700   4.648   2.581  12.480  1.8340 -1.1286  2.6494
13429TIP3   OH261701   5.168   3.105   0.780  0.0477  0.1028 -0.2643
13429TIP3    H161702   5.236   3.063   0.833 -0.7764 -0.4441  0.3839
13429TIP3    H261703   5.202   3.193   0.762  0.3826  0.2696  1.1084
13430TIP3   OH261704   4.776   1.658  16.502 -0.2088  0.3454  0.4338
13430TIP3    H161705   4.737   1.578  16.538  0.3267  0.6068  1.6551
13430TIP3    H261706   4.817   1.700  16.577  0.7240  1.0698 -0.4557
13431TIP3   OH261707   1.641   1.033  10.807 -0.1462 -0.2097  0.4373
13431TIP3    H161708   1.600   1.119  10.792 -0.4108 -0.3558  0.3168
13431TIP3    H261709   1.732   1.046  10.781  0.2818  0.5509  2.1661
13432TIP3   OH261710   6.014   0.180   1.071  0.0030  0.5091 -0.0578
13432TIP3    H161711   5.934   0.191   1.020 -0.8119 -0.4159  0.9715
13432TIP3    H261712   6.071   0.251   1.041  0.1583 -0.8136 -3.2764
13433TIP3   OH261713   5.378   6.204   0.033 -0.1330 -0.0636 -0.5319
13433TIP3    H161714   5.432   6.142   0.081 -2.7038 -2.1786 -0.1814
13433TIP3    H261715   5.302   6.219   0.089 -1.2185  0.7034 -2.1190
13434TIP3   OH261716   4.055   3.521   2.292  0.6881 -0.6733 -0.1362
13434TIP3    H161717   4.133   3.539   2.240  0.4661  0.3080 -0.1637
13434TIP3    H261718   3.997   3.473   2.232  1.1634 -1.1663 -0.1989
13435TIP3   OH261719   6.083   2.511  14.453  0.1475  0.3433  0.1669
13435TIP3    H161720   6.041   2.586  14.412  0.5605 -0.2020 -1.3266
13435TIP3    H261721   6.021   2.439  14.442  0.4532  0.0863  0.0937
13436TIP3   OH261722   1.542   5.501  16.776  0.3154  0.3893 -0.2521
13436TIP3    H161723   1.486   5.436  16.735 -0.3656  2.4422 -2.8403
13436TIP3    H261724   1.628   5.459  16.782 -0.7045 -1.6817  0.8496
13437TIP3   OH261725   4.640   2.618   1.849  0.0717 -0.5237 -0.0821
13437TIP3    H161726   4.610   2.624   1.940 -0.3829  0.8569 -0.3120
13437TIP3    H261727   4.727   2.656   1.850  0.9767 -2.4539  0.1420
13438TIP3   OH261728   3.242   0.047   0.570  0.0789  0.0991 -0.1286
13438TIP3    H161729   3.322   0.082   0.609 -0.0233 -0.0826  0.2441
13438TIP3    H261730   3.182   0.036   0.643 -0.4967  0.7894 -0.4842
13439TIP3   OH261731   5.916   0.765   3.907 -0.4454 -0.0216  0.3542
13439TIP3    H161732   5.877   0.707   3.841 -4.0302 -0.8293  2.8616
13439TIP3    H261733   5.912   0.852   3.869  0.6040 -0.7940 -1.6529
13440TIP3   OH261734   5.566   3.160   4.587 -0.3164 -0.1004 -0.0966
13440TIP3    H161735   5.567   3.117   4.672  0.7904 -0.7060 -0.3907
13440TIP3    H261736   5.475   3.155   4.557 -0.2908 -1.9493  0.0256
13441TIP3   OH261737   1.904   0.435   3.088  0.7550 -0.1162 -0.6129
13441TIP3    H161738   1.874   0.376   3.157 -1.5957  2.4592  0.7569
13441TIP3    H261739   1.983   0.475   3.125  0.2163  0.3250  0.0925
13442TIP3   OH261740   4.023   3.743   5.911  0.1354  0.6184 -0.2684
13442TIP3    H161741   3.974   3.668   5.878 -0.6106  2.3786 -3.6182
13442TIP3    H261742   4.101   3.705   5.951 -1.0081 -1.9647 -0.3017
13443TIP3   OH261743   1.761   2.437   5.445 -0.3726 -0.0757  0.1918
13443TIP3    H161744   1.739   2.344   5.456  0.9980 -0.4567 -0.0421
13443TIP3    H261745   1.785   2.445   5.352  0.6758  0.2314  0.4735
13444TIP3   OH261746   4.289   3.169   0.691  0.4637 -0.2898 -0.0399
13444TIP3    H161747   4.304   3.204   0.779  1.7293 -0.1618 -0.2985
13444TIP3    H261748   4.312   3.241   0.632 -0.7966 -0.2244 -0.4817
13445TIP3   OH261749   3.069   5.409   0.262 -0.5040  1.0588 -0.6533
13445TIP3    H161750   3.087   5.325   0.220 -0.5686  0.6281  0.1465
13445TIP3    H261751   2.998   5.390   0.324 -1.6238  2.0498 -1.5648
13446TIP3   OH261752   1.022   1.470   4.468  0.0550 -0.5683  0.1898
13446TIP3    H161753   1.017   1.565   4.479  1.5874 -0.3573 -0.5909
13446TIP3    H261754   1.042   1.458   4.375  0.2745 -1.6247  0.3633
13447TIP3   OH261755   0.395   6.564  14.474  0.2036  0.1720  0.2719
13447TIP3    H161756   0.453   6.586  14.401  0.6217  0.6475  0.7265
13447TIP3    H261757   0.455   6.549  14.548 -0.2375  3.7317  1.5875
13448TIP3   OH261758   2.565   5.306  16.557  0.8768 -0.1366 -0.3046
13448TIP3    H161759   2.631   5.257  16.606  1.7249  1.8651  0.6746
13448TIP3    H261760   2.594   5.303  16.466  0.6449 -1.7834 -0.3527
13449TIP3   OH261761   1.727   1.910   1.124 -0.2272  0.2997 -0.7380
13449TIP3    H161762   1.685   1.995   1.136 -0.6274  0.0427 -0.2781
13449TIP3    H261763   1.754   1.883   1.212  2.5921  1.2771 -1.1970
13450TIP3   OH261764   4.309   5.596   2.185 -0.2245 -0.2516  0.0300
13450TIP3    H161765   4.388   5.543   2.177 -0.0915 -0.0054 -0.3053
13450TIP3    H261766   4.297   5.635   2.098 -0.1673  0.4818  0.3452
13451TIP3   OH261767   2.313   5.268   6.690  0.2158  0.1292  0.6420
13451TIP3    H161768   2.383   5.332   6.705  0.5779  0.1520 -0.9852
13451TIP3    H261769   2.350   5.207   6.626 -0.5761 -0.9885  1.2192
13452TIP3   OH261770   4.677   5.125   6.716  0.0841  0.0381 -0.7224
13452TIP3    H161771   4.629   5.157   6.639 -1.5893  2.0620  1.0279
13452TIP3    H261772   4.617   5.062   6.756  0.6285 -0.4438 -0.6581
13453TIP3   OH261773   5.434   1.914   4.898 -0.0460  0.0190  0.1239
13453TIP3    H161774   5.520   1.886   4.866  0.7747  0.3796  1.9340
13453TIP3    H261775   5.435   1.895   4.991 -1.2480  1.6864  0.5262
13454TIP3   OH261776   3.785   1.769   0.204 -0.3041  0.4385  0.1036
13454TIP3    H161777   3.835   1.832   0.152  0.5847 -0.3466 -0.0090
13454TIP3    H261778   3.731   1.723   0.140  0.3747 -0.1429 -0.0550
13455TIP3   OH261779   6.161   1.856   2.999  0.3562 -0.3488  0.5271
13455TIP3    H161780   6.087   1.797   2.986 -0.8404  1.1335  0.3629
13455TIP3    H261781   6.225   1.804   3.047 -0.5388 -1.8464  0.1599
13456TIP3   OH261782   1.189   4.353  10.579 -0.4611 -0.5193  0.0041
13456TIP3    H161783   1.271   4.357  10.529 -0.4423 -1.7269 -0.0951
13456TIP3    H261784   1.196   4.272  10.630 -1.4253 -0.4320  0.2953
13457TIP3   OH261785   3.392   4.352  14.443 -0.5105 -0.6790 -0.8361
13457TIP3    H161786   3.348   4.400  14.373  0.7165  0.0203 -1.1548
13457TIP3    H261787   3.440   4.282  14.398  2.0999  1.1008 -1.0310
13458TIP3   OH261788   3.674   5.287  15.791 -0.0442  0.0093  0.1151
13458TIP3    H161789   3.693   5.344  15.716 -1.3743 -1.5698 -1.5340
13458TIP3    H261790   3.729   5.320  15.862 -1.1970  3.7312 -0.5219
13459TIP3   OH261791   4.618   4.134   4.657 -0.2576 -0.0376 -0.3659
13459TIP3    H161792   4.688   4.101   4.713  1.0196  1.5086 -0.9554
13459TIP3    H261793   4.612   4.071   4.586  1.6186  0.5505 -1.0981
13460TIP3   OH261794   5.054   5.904  15.037 -0.0037  0.5300  0.2253
13460TIP3    H161795   5.096   5.987  15.015  0.2183 -0.0204 -1.6926
13460TIP3    H261796   5.093   5.879  15.120  1.6995  1.2352 -0.3068
13461TIP3   OH261797   2.702   2.833  16.197 -0.2088 -0.0996 -0.2389
13461TIP3    H161798   2.623   2.852  16.249 -0.0718  1.7885 -0.6774
13461TIP3    H261799   2.712   2.738  16.205 -1.7723 -0.2212  0.9090
13462TIP3   OH261800   3.159   0.745  12.807  0.1542 -0.4843  0.2110
13462TIP3    H161801   3.219   0.683  12.848  1.3443  0.9176  0.7002
13462TIP3    H261802   3.074   0.700  12.806  0.5646 -1.4258  2.1856
13463TIP3   OH261803   3.444   4.296   4.488 -0.3325 -0.0850 -0.1677
13463TIP3    H161804   3.507   4.227   4.469  0.7563  0.2441  1.9858
13463TIP3    H261805   3.496   4.376   4.492 -1.5012  0.8470 -2.1177
13464TIP3   OH261806   4.298   3.611   0.963  0.7016  0.3256  0.0011
13464TIP3    H161807   4.320   3.607   1.056 -0.7290 -0.0419  0.3469
13464TIP3    H261808   4.298   3.704   0.942 -1.3201  0.5967  0.9957
13465TIP3   OH261809   1.916   1.710  15.022  0.0524 -0.3684  0.8630
13465TIP3    H161810   1.973   1.785  15.005 -0.0050 -0.1874  1.4460
13465TIP3    H261811   1.950   1.641  14.966 -0.9673  0.5840 -1.0367
13466TIP3   OH261812   0.293   3.390   3.900 -0.1069 -0.5818 -0.4198
13466TIP3    H161813   0.306   3.395   3.806 -0.7030 -1.9505 -0.6105
13466TIP3    H261814   0.255   3.303   3.914 -0.8007 -0.0904  0.9947
13467TIP3   OH261815   1.670   0.620   0.862 -0.2020 -0.9188  0.2183
13467TIP3    H161816   1.616   0.550   0.826 -0.5928 -0.3116 -0.3952
13467TIP3    H261817   1.607   0.681   0.900  0.1823 -1.3307  1.5710
13468TIP3   OH261818   4.692   2.067  13.137  0.0951 -0.0633  0.2950
13468TIP3    H161819   4.645   2.142  13.173 -0.2396 -0.6352  1.0831
13468TIP3    H261820   4.682   1.998  13.203 -0.5979 -1.1661 -0.8994
13469TIP3   OH261821   2.670   5.310  15.329 -0.7844 -0.2867  0.9284
13469TIP3    H161822   2.736   5.250  15.296 -0.5971  0.6011 -0.4145
13469TIP3    H261823   2.647   5.276  15.415 -0.1559 -1.8345  0.5151
13470TIP3   OH261824   0.138   6.230  13.603 -0.1360  0.5682 -0.5066
13470TIP3    H161825   0.158   6.153  13.656  0.8709 -0.1408 -1.8510
13470TIP3    H261826   0.076   6.280  13.656 -0.7166 -1.0892  0.4520
13471TIP3   OH261827   6.176   3.617  13.358 -0.0604 -0.7560  0.1650
13471TIP3    H161828   6.132   3.591  13.438 -0.2445 -0.5896  0.1211
13471TIP3    H261829   6.257   3.660  13.387 -0.3705 -0.2473  0.2783
13472TIP3   OH261830   2.419   0.752   5.655 -0.0854 -0.4506 -0.1212
13472TIP3    H161831   2.449   0.684   5.715 -0.0288  0.4728  0.9211
13472TIP3    H261832   2.324   0.748   5.661 -0.0846  0.9502  1.6003
13473TIP3   OH261833   0.113   3.042   2.850 -0.1329 -0.1039 -0.4387
13473TIP3    H161834   0.087   2.995   2.771  1.5536 -1.2580 -0.3722
13473TIP3    H261835   0.173   3.110   2.820 -1.1177  0.8197 -0.3446
13474TIP3   OH261836   4.903   3.626  10.336 -0.5015 -0.3099  0.0701
13474TIP3    H161837   4.980   3.588  10.378  0.3906  0.6760 -0.6181
13474TIP3    H261838   4.921   3.720  10.335 -1.4995 -0.1179 -0.5381
13475TIP3   OH261839   4.623   4.078   1.111 -0.9266 -0.0163  0.2150
13475TIP3    H161840   4.540   4.121   1.089 -1.1266 -1.0554 -1.2285
13475TIP3    H261841   4.690   4.144   1.091 -1.3322  0.3085 -0.0914
13476TIP3   OH261842   3.326   5.451  16.966  0.1439  0.0591  0.2999
13476TIP3    H161843   3.233   5.437  16.947 -0.1744 -0.1983  1.8863
13476TIP3    H261844   3.371   5.380  16.920 -0.3290  0.6939 -1.2018
13477TIP3   OH261845   2.772   1.517  12.091 -0.1340  0.8488  0.0636
13477TIP3    H161846   2.810   1.604  12.078  0.6139  0.8294  1.8111
13477TIP3    H261847   2.823   1.479  12.163 -0.4142 -1.0638 -0.6926
13478TIP3   OH261848   1.274   3.583  11.138 -0.7149 -0.3179 -0.0967
13478TIP3    H161849   1.357   3.594  11.092  0.2122  0.3015  1.6362
13478TIP3    H261850   1.216   3.542  11.074  0.2680  1.1631 -2.0352
13479TIP3   OH261851   3.715   0.616  12.187 -0.3049  0.4170 -0.4657
13479TIP3    H161852   3.753   0.628  12.274  1.2424  0.9962 -1.1794
13479TIP3    H261853   3.756   0.684  12.133 -2.2286  0.9415 -1.3710
13480TIP3   OH261854   0.989   2.075   0.852  0.3136  0.1791 -0.1540
13480TIP3    H161855   1.007   2.138   0.921 -3.5935  0.1874  1.1069
13480TIP3    H261856   0.949   2.126   0.782  1.1656 -0.3368 -1.0531
13481TIP3   OH261857   6.539   2.455   4.153  0.3868  0.4004  0.5673
13481TIP3    H161858   6.493   2.376   4.182  1.9330 -0.7280  0.0591
13481TIP3    H261859   6.480   2.494   4.088  0.2072 -1.1493 -0.2540
13482TIP3   OH261860   4.804   4.970  15.996  0.0234 -0.5656  0.2212
13482TIP3    H161861   4.740   4.994  15.929  2.3113  0.5123 -1.7549
13482TIP3    H261862   4.825   5.053  16.039 -0.2281 -0.9935  1.1996
13483TIP3   OH261863   5.732   0.256   1.233 -0.2386  0.0626 -0.0985
13483TIP3    H161864   5.731   0.250   1.137  0.2277 -1.6871 -0.0375
13483TIP3    H261865   5.640   0.248   1.258 -0.5039  1.6896 -0.4050
13484TIP3   OH261866   1.966   4.771  16.235  0.7667 -0.1176 -0.2410
13484TIP3    H161867   1.903   4.830  16.194  0.7506 -0.8308 -1.2724
13484TIP3    H261868   1.941   4.769  16.327 -0.3086  0.1230 -0.5164
13485TIP3   OH261869   3.910   3.359  14.797  0.4610 -0.5480 -0.2174
13485TIP3    H161870   3.841   3.408  14.751 -0.0359 -0.8927  0.1587
13485TIP3    H261871   3.927   3.284  14.740  2.7240  1.0661 -1.9070
13486TIP3   OH261872   1.114   5.572   0.502  0.4700 -0.0138  0.3841
13486TIP3    H161873   1.046   5.554   0.566  0.9844 -0.8482  0.7023
13486TIP3    H261874   1.196   5.558   0.549  0.8735  0.7764 -0.0545
13487TIP3   OH261875   3.992   1.488  13.649 -0.4424  0.8486  0.0956
13487TIP3    H161876   4.010   1.567  13.598  1.6997  0.5439  0.2782
13487TIP3    H261877   4.066   1.431  13.632 -0.9282 -0.2975  1.5682
13488TIP3   OH261878   2.810   4.119  11.691  0.1854 -0.4291  0.5978
13488TIP3    H161879   2.717   4.099  11.689 -0.1387  0.9595  0.6305
13488TIP3    H261880   2.843   4.088  11.607 -0.3578 -0.6816  0.4742
13489TIP3   OH261881   0.816   0.454   5.620 -0.1570 -0.1322 -0.4890
13489TIP3    H161882   0.734   0.488   5.656  1.5653  3.2567  0.6644
13489TIP3    H261883   0.861   0.416   5.696  0.3754  0.3401 -0.5574
13490TIP3   OH261884   3.781   4.426   2.256 -0.5979 -0.8842  0.3587
13490TIP3    H161885   3.799   4.411   2.163  0.2454 -1.2543  0.5737
13490TIP3    H261886   3.690   4.400   2.267 -0.4621 -1.6314 -0.1939
13491TIP3   OH261887   3.191   5.422   5.120 -0.0244 -0.1600  0.0372
13491TIP3    H161888   3.261   5.368   5.085 -0.1337 -0.6515  0.5642
13491TIP3    H261889   3.122   5.360   5.143  0.0450  0.1383  1.1142
13492TIP3   OH261890   1.541   2.875   4.318  0.3212  0.4000 -0.1579
13492TIP3    H161891   1.514   2.957   4.277  0.3115 -0.2249 -1.4653
13492TIP3    H261892   1.634   2.869   4.299  0.7597  1.0362  1.6404
13493TIP3   OH261893   4.730   2.115   2.693  0.1058 -0.1311  0.5203
13493TIP3    H161894   4.727   2.082   2.603  0.0463  0.9066  0.1217
13493TIP3    H261895   4.662   2.066   2.739 -0.0228 -0.5078 -0.0564
13494TIP3   OH261896   3.417   6.723   5.798  0.3320  0.1144  0.1253
13494TIP3    H161897   3.453   6.761   5.878 -0.3285 -1.1709  1.0780
13494TIP3    H261898   3.491   6.718   5.738  0.9537  0.6396  0.8286
13495TIP3   OH261899   2.728   6.073  14.797 -0.3127  0.5204 -0.1032
13495TIP3    H161900   2.673   5.995  14.787 -1.2322  0.9601  1.2396
13495TIP3    H261901   2.680   6.142  14.751  0.7509  0.2436 -1.7434
13496TIP3   OH261902   3.918   2.053   3.331 -0.4265  0.2457  0.4760
13496TIP3    H161903   3.856   2.001   3.382 -1.7874  2.0313  0.7763
13496TIP3    H261904   3.894   2.036   3.240 -0.9504  0.4181  0.5752
13497TIP3   OH261905   3.682   1.995   0.313  0.2632  0.0994 -0.3990
13497TIP3    H161906   3.767   2.024   0.348  0.1413 -0.2109  0.1623
13497TIP3    H261907   3.702   1.914   0.266  0.0866 -0.7189  0.8697
13498TIP3   OH261908   1.425   2.031  11.829  0.0601  0.4038 -0.2840
13498TIP3    H161909   1.497   1.969  11.841  0.1246  0.7561  1.3033
13498TIP3    H261910   1.467   2.115  11.813  0.0298  0.6806  1.0068
13499TIP3   OH261911   5.440   5.737  17.392  0.5636  0.2556 -0.4956
13499TIP3    H161912   5.528   5.749  17.356  1.0901 -0.0357  0.6571
13499TIP3    H261913   5.432   5.643  17.405  0.4727  0.3707  0.3396
13500TIP3   OH261914   0.139   2.112   3.803  0.2076  0.5607  0.3380
13500TIP3    H161915   0.104   2.199   3.786 -0.1877  0.4067  0.3534
13500TIP3    H261916   0.200   2.095   3.731  2.2432  1.8816  1.6552
13501TIP3   OH261917   6.622   4.001   0.384 -0.3374 -0.3453 -0.2110
13501TIP3    H161918   6.711   4.028   0.408 -0.8393  0.7701  0.4651
13501TIP3    H261919   6.626   3.989   0.289  0.9346 -1.9358 -0.0061
13502TIP3   OH261920   1.247   5.908   3.448 -0.5384  0.5682  0.8527
13502TIP3    H161921   1.221   5.894   3.539  2.4400 -1.0462  1.6184
13502TIP3    H261922   1.335   5.947   3.455  0.2657 -0.7153 -1.2824
13503TIP3   OH261923   2.437   1.253   4.332  0.9165 -0.7474 -0.5901
13503TIP3    H161924   2.411   1.249   4.240  0.4091 -0.6500 -0.4505
13503TIP3    H261925   2.381   1.189   4.376  0.0799  0.3043 -0.0962
13504TIP3   OH261926   0.028   0.096   5.120 -0.1535  0.4454  0.4901
13504TIP3    H161927  -0.067   0.109   5.112 -0.0944  0.9484  0.5716
13504TIP3    H261928   0.040   0.057   5.207 -0.4322 -1.2361 -0.1862
13505TIP3   OH261929   5.866   4.548  13.315  0.3934 -0.3048 -0.1554
13505TIP3    H161930   5.899   4.584  13.233  0.8171 -0.2031  0.0583
13505TIP3    H261931   5.909   4.462  13.322 -1.5571 -1.4669 -1.2971
13506TIP3   OH261932   0.372   0.061   2.422 -0.1536 -0.4911  0.2687
13506TIP3    H161933   0.359   0.121   2.349  0.7697  1.1238  1.3589
13506TIP3    H261934   0.316  -0.014   2.403 -0.9051  0.4642 -1.4369
13507TIP3   OH261935   3.164   4.083   5.973  0.2390  0.2414  0.2214
13507TIP3    H161936   3.197   4.046   6.055  0.2300  0.3874  0.2911
13507TIP3    H261937   3.241   4.120   5.930  0.5409 -1.2365 -0.5935
13508TIP3   OH261938   1.994   6.436   2.263  0.2648 -0.5968 -0.2737
13508TIP3    H161939   1.968   6.470   2.177 -1.6709  0.2109  0.5821
13508TIP3    H261940   1.929   6.369   2.283  1.9332 -2.3151 -0.3130
13509TIP3   OH261941   4.865   5.898  16.054 -0.7290 -0.0955  0.2484
13509TIP3    H161942   4.828   5.985  16.043 -0.0465  0.0145 -1.5145
13509TIP3    H261943   4.927   5.906  16.127 -2.9986  0.0587  2.2652
13510TIP3   OH261944   6.725   2.022  16.955  0.0423  0.4521  0.0485
13510TIP3    H161945   6.734   1.949  17.015  1.9105  0.1692 -0.5183
13510TIP3    H261946   6.768   1.993  16.875  0.7421  2.1222 -0.2287
13511TIP3   OH261947   5.844   4.918   3.296 -0.5389 -0.2035  0.1342
13511TIP3    H161948   5.874   4.831   3.322  0.9561 -0.1865 -1.3678
13511TIP3    H261949   5.755   4.924   3.331 -1.1147 -2.8024 -0.6535
13512TIP3   OH261950   1.144   4.018  14.982  0.0390 -0.0443 -1.0389
13512TIP3    H161951   1.190   4.071  14.917  0.1086  0.1006 -0.8725
13512TIP3    H261952   1.150   4.069  15.063 -0.3276 -0.0687 -0.9930
13513TIP3   OH261953   5.261   0.051  15.625 -0.4004 -0.7263  0.5974
13513TIP3    H161954   5.205  -0.025  15.610 -0.7481 -0.5291  0.8920
13513TIP3    H261955   5.205   0.114  15.670  0.3491 -0.9223  1.8397
13514TIP3   OH261956   0.109   5.164  14.794 -0.2941  0.3005  0.2003
13514TIP3    H161957   0.072   5.244  14.759  0.9247  0.1204 -1.6170
13514TIP3    H261958   0.172   5.135  14.728  1.6625 -0.4253  2.2276
13515TIP3   OH261959   2.827   2.393  13.579 -0.1286 -0.1092 -0.3751
13515TIP3    H161960   2.906   2.369  13.531 -0.0650 -0.2217 -0.2137
13515TIP3    H261961   2.848   2.477  13.620  0.2049 -0.5323  0.3490
13516TIP3   OH261962   6.523   5.764  11.634 -0.7294  1.0509 -0.0756
13516TIP3    H161963   6.445   5.782  11.581 -1.0938  0.7021  0.3272
13516TIP3    H261964   6.588   5.734  11.571 -1.4607 -0.2895 -0.2389
13517TIP3   OH261965   2.239   2.335  11.588 -0.1482 -0.0063  0.1932
13517TIP3    H161966   2.272   2.400  11.526 -1.1084  0.6720  0.3806
13517TIP3    H261967   2.154   2.309  11.553 -0.6517  0.3043  1.1760
13518TIP3   OH261968   5.334   4.337  15.373 -0.6401  0.0561 -0.2116
13518TIP3    H161969   5.403   4.366  15.313 -0.1979 -2.0156 -0.7827
13518TIP3    H261970   5.256   4.329  15.319 -1.1771  1.6284  0.2741
13519TIP3   OH261971   3.444   1.826   4.086  0.0598  0.2139 -0.3057
13519TIP3    H161972   3.397   1.881   4.148  0.8658  0.3119  0.2364
13519TIP3    H261973   3.468   1.885   4.015  0.0084  0.3270 -0.2302
13520TIP3   OH261974   4.732   0.389  14.090 -0.1739  0.3731  0.4364
13520TIP3    H161975   4.697   0.478  14.090 -1.4831 -0.1048  1.6726
13520TIP3    H261976   4.705   0.353  14.006 -1.0849  0.6280  0.6062
13521TIP3   OH261977   1.232   1.863  11.924 -0.3877 -0.5083 -0.2743
13521TIP3    H161978   1.265   1.846  12.012  0.1577  0.5982 -0.2464
13521TIP3    H261979   1.276   1.944  11.897 -3.2873  1.2875 -0.1154
13522TIP3   OH261980   0.040   3.996   1.467  0.4117 -0.0825 -0.5443
13522TIP3    H161981   0.084   4.077   1.492 -2.0779  1.6544 -1.3312
13522TIP3    H261982   0.081   3.970   1.385  1.4619  0.1757 -0.1074
13523TIP3   OH261983   0.943   6.243   4.666  0.9431  0.3923 -0.0103
13523TIP3    H161984   0.888   6.321   4.676 -0.4040 -0.4495 -0.6125
13523TIP3    H261985   0.993   6.259   4.586  0.9676  0.7840  0.0763
13524TIP3   OH261986   6.104   5.330   1.719  0.8501  0.2171  0.5279
13524TIP3    H161987   6.109   5.241   1.687 -1.8882  0.6594 -1.4486
13524TIP3    H261988   6.174   5.377   1.672  0.3210 -0.2741 -0.7875
13525TIP3   OH261989   0.886   0.751   4.261 -0.1468 -0.1391 -0.1001
13525TIP3    H161990   0.967   0.714   4.226  0.3170  1.4588 -0.8152
13525TIP3    H261991   0.856   0.688   4.326  2.4636 -0.0887  1.2539
13526TIP3   OH261992   2.682   2.214  12.916 -0.3411  0.8013 -0.0631
13526TIP3    H161993   2.700   2.237  13.007 -0.0993 -0.4170  0.2144
13526TIP3    H261994   2.588   2.196  12.915  0.1074 -2.0985  0.6781
13527TIP3   OH261995   2.092   4.833   1.737 -0.2212  0.5357  0.3048
13527TIP3    H161996   2.183   4.816   1.710 -0.0142 -0.5242  1.5112
13527TIP3    H261997   2.040   4.771   1.687 -0.3021  1.1669 -0.4130
13528TIP3   OH261998   3.249   5.277  16.378 -0.2940  0.1129  0.3672
13528TIP3    H161999   3.277   5.367  16.395  2.0814 -0.5832  0.5773
13528TIP3    H262000   3.299   5.224  16.440 -2.4120 -1.3036  0.9551
13529TIP3   OH262001   1.060   5.991  12.624  0.2126 -0.4354  0.2822
13529TIP3    H162002   0.985   6.012  12.680 -1.7671 -0.5569 -2.1693
13529TIP3    H262003   1.068   6.066  12.565  2.0068 -0.4718  0.4293
13530TIP3   OH262004   0.109   4.115   3.578 -0.9395 -0.1566 -0.3170
13530TIP3    H162005   0.080   4.024   3.591  0.2959 -0.6413 -0.7762
13530TIP3    H262006   0.205   4.109   3.575 -0.8813  1.0071 -1.4580
13531TIP3   OH262007   2.990   3.627  17.264  0.7165 -0.3084 -0.2409
13531TIP3    H162008   2.964   3.621  17.172 -1.6869  1.3068  0.2230
13531TIP3    H262009   2.950   3.550  17.305 -2.5510  1.4186  0.1970
13532TIP3   OH262010   4.439   6.208   4.824  0.2449  0.2989  0.4290
13532TIP3    H162011   4.506   6.220   4.891 -0.7335  1.6789  1.2169
13532TIP3    H262012   4.357   6.227   4.868 -0.5156  0.3399 -0.9346
13533TIP3   OH262013   6.717   1.656   0.386  0.2865  0.1410 -0.6122
13533TIP3    H162014   6.711   1.749   0.406  1.3320  0.0598  0.1949
13533TIP3    H262015   6.801   1.647   0.341 -0.5208 -0.1919 -2.0972
13534TIP3   OH262016   5.808   4.598  17.284  0.0885 -0.2805 -0.3776
13534TIP3    H162017   5.740   4.546  17.326  1.7731 -2.3629 -0.0100
13534TIP3    H262018   5.805   4.572  17.192 -0.1053  0.2086 -0.5127
13535TIP3   OH262019   5.211   1.596  10.713 -0.1654  0.5008 -0.2289
13535TIP3    H162020   5.146   1.663  10.692 -0.1408  0.1204 -1.6465
13535TIP3    H262021   5.295   1.643  10.714 -0.3539  0.8516  0.8638
13536TIP3   OH262022   3.488   6.472   1.200  0.0287 -0.1889  0.0871
13536TIP3    H162023   3.417   6.425   1.156  0.7211 -0.5764 -0.6521
13536TIP3    H262024   3.444   6.535   1.256 -0.9033  0.3725 -1.2260
13537TIP3   OH262025   6.173   6.091  15.675 -0.1035 -0.4080  0.6674
13537TIP3    H162026   6.181   6.104  15.770  0.7566  1.0377  0.4330
13537TIP3    H262027   6.083   6.062  15.662 -0.2832 -0.4699  1.9087
13538TIP3   OH262028   1.029   3.647   2.731 -0.3408  0.7233 -0.3013
13538TIP3    H162029   1.116   3.686   2.720  0.6435 -1.3434 -0.2055
13538TIP3    H262030   1.034   3.562   2.687 -2.3306  0.5394 -0.2842
13539TIP3   OH262031   3.934   1.220  17.083 -0.1713 -0.1148  0.4000
13539TIP3    H162032   3.980   1.296  17.046  0.6207  0.0918  1.7543
13539TIP3    H262033   3.962   1.217  17.175  0.1911 -2.3217  0.2816
13540TIP3   OH262034   0.668   4.655  16.082 -0.3319 -0.2337 -0.5097
13540TIP3    H162035   0.677   4.675  15.988 -0.4603  1.1086 -0.2518
13540TIP3    H262036   0.576   4.676  16.101 -0.7726 -2.0616 -0.4160
13541TIP3   OH262037   0.261   1.532  14.375 -0.7660  0.4048 -0.2932
13541TIP3    H162038   0.244   1.524  14.281 -2.6249 -1.0269  0.1099
13541TIP3    H262039   0.295   1.621  14.385 -2.3174  1.2854 -2.1041
13542TIP3   OH262040   1.637   1.230   6.406 -0.0040 -0.2427  0.0623
13542TIP3    H162041   1.627   1.156   6.466 -1.7272 -1.1790 -1.3032
13542TIP3    H262042   1.704   1.202   6.344  0.9758  0.2842  0.8523
13543TIP3   OH262043   6.631   1.572  14.261 -0.0115 -0.6088 -0.1652
13543TIP3    H162044   6.644   1.477  14.260  1.4390 -0.4409  0.5101
13543TIP3    H262045   6.643   1.599  14.170  0.2941 -0.9760 -0.2338
13544TIP3   OH262046   1.112   1.280   5.784 -0.5077 -0.7165 -0.5552
13544TIP3    H162047   1.021   1.307   5.801 -0.5484  0.5374 -2.3709
13544TIP3    H262048   1.115   1.267   5.689  1.3316 -0.2338 -0.6018
13545TIP3   OH262049   3.930   3.751  16.222 -0.1803 -0.0265 -0.6738
13545TIP3    H162050   3.973   3.731  16.305 -2.4156  0.5266  0.7238
13545TIP3    H262051   3.972   3.693  16.159 -0.4817 -2.8384  1.4724
13546TIP3   OH262052   6.639   5.989  16.715  0.2252 -0.2408 -0.2144
13546TIP3    H162053   6.732   5.969  16.727 -0.1263 -1.8098  0.0118
13546TIP3    H262054   6.593   5.919  16.761 -1.0882 -0.1893 -1.3822
13547TIP3   OH262055   6.138   1.910  15.922 -0.3992 -0.1261  0.5384
13547TIP3    H162056   6.190   1.875  15.995 -0.6266  1.4033  1.4587
13547TIP3    H262057   6.048   1.884  15.941 -0.6028  1.1046  1.3481
13548TIP3   OH262058   0.062   4.075   1.895 -0.0862  0.6712 -0.5070
13548TIP3    H162059  -0.001   4.003   1.895  0.8199 -0.1927 -2.1241
13548TIP3    H262060   0.030   4.135   1.827  0.8380  0.1833 -1.4020
13549TIP3   OH262061   4.575   2.451   4.420 -0.2488 -0.7067  0.0852
13549TIP3    H162062   4.551   2.433   4.329 -0.3185 -2.8934  0.4909
13549TIP3    H262063   4.650   2.394   4.437 -1.2566 -1.5766  1.8668
13550TIP3   OH262064   3.693   1.121  11.991  0.8331  0.0113  0.7499
13550TIP3    H162065   3.642   1.181  11.936 -0.4489  0.8438  2.7533
13550TIP3    H262066   3.778   1.165  12.001  0.8113  0.2166  0.0930
13551TIP3   OH262067   5.601   1.579   4.663  0.2903 -0.5989  0.3701
13551TIP3    H162068   5.590   1.502   4.718 -0.5637 -0.1093  0.9222
13551TIP3    H262069   5.636   1.546   4.580  0.0480 -1.5533  0.6434
13552TIP3   OH262070   1.237   3.918   5.833  0.0950 -0.5709 -0.2796
13552TIP3    H162071   1.243   3.981   5.904 -1.0209 -0.7993  0.0348
13552TIP3    H262072   1.285   3.842   5.863 -0.6364 -0.7850  0.3792
13553TIP3   OH262073   2.778   4.523  14.204 -1.0614 -0.2139 -0.0877
13553TIP3    H162074   2.871   4.534  14.181 -1.2155 -1.1979 -1.2559
13553TIP3    H262075   2.752   4.609  14.238  0.5421 -0.2222  1.3062
13554TIP3   OH262076   1.146   1.611   2.659 -0.0185  0.4339 -0.0955
13554TIP3    H162077   1.097   1.529   2.662  0.5779  0.0996  1.7038
13554TIP3    H262078   1.089   1.675   2.703  0.2345  0.5578  0.0564
13555TIP3   OH262079   3.687   2.444   1.159 -0.4134 -0.0087  0.0540
13555TIP3    H162080   3.744   2.383   1.207 -0.7730  0.3352  0.9533
13555TIP3    H262081   3.600   2.429   1.197 -0.3775  1.5784  0.8320
13556TIP3   OH262082   1.206   3.089  13.320 -0.1835 -0.5143 -0.2345
13556TIP3    H162083   1.219   3.170  13.270 -1.7625 -0.5075 -0.6710
13556TIP3    H262084   1.295   3.054  13.332  0.4731  1.0077 -0.4825
13557TIP3   OH262085   2.397   3.249  12.703 -0.5295 -0.3355  0.1687
13557TIP3    H162086   2.466   3.284  12.759  0.0627  1.2465 -1.4566
13557TIP3    H262087   2.436   3.245  12.615 -2.1580 -0.4432 -0.5971
13558TIP3   OH262088   3.691   6.119  16.359 -0.1755  0.1007 -0.5495
13558TIP3    H162089   3.596   6.113  16.347 -0.4746  0.0413  1.4857
13558TIP3    H262090   3.710   6.213  16.355 -0.5262  0.2143  0.2494
13559TIP3   OH262091   4.239   5.426  15.114 -0.2514  0.1796 -0.4778
13559TIP3    H162092   4.290   5.346  15.110  0.3675  0.5970 -1.1253
13559TIP3    H262093   4.159   5.402  15.161  1.5750  0.0818  2.8277
13560TIP3   OH262094   6.043   3.970  13.437  0.3319  0.1935  0.3078
13560TIP3    H162095   6.107   4.014  13.380  0.2990 -0.0046  0.1141
13560TIP3    H262096   5.975   3.941  13.377 -0.5188  1.4028  0.6453
13561TIP3   OH262097   3.858   6.578  16.149 -0.6148  0.1365  0.2092
13561TIP3    H162098   3.810   6.535  16.077  0.1443  0.2977 -0.4111
13561TIP3    H262099   3.915   6.509  16.183 -0.6741  0.1750  0.3869
13562TIP3   OH262100   0.180   6.701  13.265 -0.5416 -0.1750 -0.0076
13562TIP3    H162101   0.131   6.776  13.232 -1.7429 -1.0779 -0.3533
13562TIP3    H262102   0.130   6.671  13.341  0.7666  0.2800  1.0747
13563TIP3   OH262103   0.955   3.451   5.818 -0.4038 -0.3124 -0.2956
13563TIP3    H162104   0.962   3.437   5.912 -0.2449  0.6817 -0.1461
13563TIP3    H262105   1.012   3.526   5.800 -0.8670 -0.1296 -1.0896
13564TIP3   OH262106   6.364   2.307  14.826 -0.2027  0.7095 -0.3436
13564TIP3    H162107   6.280   2.353  14.836 -0.2920  0.8183 -1.4210
13564TIP3    H262108   6.407   2.315  14.911 -0.3628  2.5027 -0.4061
13565TIP3   OH262109   3.644   0.551  15.836  0.3434  0.0814 -0.7416
13565TIP3    H162110   3.654   0.493  15.761 -1.0055 -0.2581 -0.6823
13565TIP3    H262111   3.656   0.494  15.912  0.4228  0.1677 -0.6887
13566TIP3   OH262112   0.097   5.067  14.404  0.2232  0.1704  0.3063
13566TIP3    H162113   0.149   5.066  14.323  1.1686  1.0442  0.8768
13566TIP3    H262114   0.157   5.035  14.471 -0.9370 -1.7417  0.4750
13567TIP3   OH262115   3.310   6.082   4.560 -0.0066 -0.1097  0.0925
13567TIP3    H162116   3.403   6.059   4.570 -0.3711 -1.4432  0.7324
13567TIP3    H262117   3.303   6.169   4.600  1.0357  0.1811 -0.3181
13568TIP3   OH262118   6.197   1.484   2.455  0.2801  0.5755 -0.1161
13568TIP3    H162119   6.222   1.459   2.366 -0.2838  1.2146 -0.4639
13568TIP3    H262120   6.274   1.528   2.491  1.0101 -0.9288  0.2292
13569TIP3   OH262121   5.302   0.455   1.732 -0.2354  0.6358 -0.5159
13569TIP3    H162122   5.330   0.503   1.655 -0.6716  1.7430 -0.0119
13569TIP3    H262123   5.383   0.421   1.771  0.1412  1.4808 -0.5584
13570TIP3   OH262124   2.543   3.036  12.932  0.0631 -0.8084  0.8255
13570TIP3    H162125   2.514   3.017  12.842 -1.0788 -0.3359  1.0789
13570TIP3    H262126   2.509   2.962  12.983  2.2408 -2.0365  0.6360
13571TIP3   OH262127   0.434   3.996  16.255 -0.4428 -0.3256 -0.4692
13571TIP3    H162128   0.346   4.018  16.225 -0.7039 -0.7460 -0.0210
13571TIP3    H262129   0.488   4.071  16.229 -0.9235 -0.0867 -0.7820
13572TIP3   OH262130   2.397   4.899   3.521 -0.7881 -0.0162  0.7760
13572TIP3    H162131   2.315   4.874   3.565 -1.3000  0.9098  0.3667
13572TIP3    H262132   2.461   4.903   3.592 -1.7295  2.0011  1.5866
13573TIP3   OH262133   6.318   6.431  16.023 -0.0384  0.1270  0.5091
13573TIP3    H162134   6.266   6.510  16.031  1.6513  1.2740  0.6696
13573TIP3    H262135   6.380   6.449  15.952 -0.2922 -1.4648 -0.1765
13574TIP3   OH262136   1.154   0.346   5.630  0.2181 -0.3408  0.0110
13574TIP3    H162137   1.142   0.430   5.675  0.2036 -0.4952  0.2927
13574TIP3    H262138   1.248   0.329   5.636  0.0043 -1.1471  1.3877
13575TIP3   OH262139   4.625   1.011  11.634  0.2389  0.5745  0.5436
13575TIP3    H162140   4.690   1.066  11.591  0.2023 -0.2955 -0.6734
13575TIP3    H262141   4.562   0.990  11.565 -1.2133  1.1915  1.6385
13576TIP3   OH262142   2.249   3.020   1.540 -0.3960 -0.6372  0.0583
13576TIP3    H162143   2.182   3.031   1.608 -1.0759  1.4237 -0.8680
13576TIP3    H262144   2.221   2.943   1.491 -2.0375  0.0999 -0.2276
13577TIP3   OH262145   5.079   4.695  14.626 -0.0958  0.4408 -0.0224
13577TIP3    H162146   5.104   4.605  14.648 -0.5688  0.6004  1.2402
13577TIP3    H262147   5.084   4.742  14.709 -1.5716  1.1845 -0.3270
13578TIP3   OH262148   4.971   3.753  15.491 -0.0870  0.2222 -0.0887
13578TIP3    H162149   4.923   3.804  15.426 -1.4411 -1.1742 -0.2430
13578TIP3    H262150   5.041   3.710  15.442  0.0772  0.6609 -0.2437
13579TIP3   OH262151   2.807   6.304   2.364 -0.1982 -0.0246 -0.3980
13579TIP3    H162152   2.867   6.369   2.401 -1.2674  1.0922 -0.5541
13579TIP3    H262153   2.823   6.225   2.415  1.0151  0.3965 -0.0901
13580TIP3   OH262154   6.729   4.875   4.598  0.4402 -0.6187  0.1012
13580TIP3    H162155   6.672   4.837   4.665 -0.7571  0.2940 -0.3603
13580TIP3    H262156   6.669   4.905   4.529  1.5379 -0.3155 -0.7579
13581TIP3   OH262157   3.817   5.039  12.466  0.0039  0.4905 -0.1058
13581TIP3    H162158   3.839   5.121  12.422  0.2880  0.7449  0.5030
13581TIP3    H262159   3.826   4.972  12.398  2.2537  0.6290 -0.0250
13582TIP3   OH262160   5.776   0.755   3.119  0.3249  0.0581  0.3340
13582TIP3    H162161   5.686   0.755   3.087 -0.5094 -2.0776  2.4304
13582TIP3    H262162   5.801   0.848   3.118 -2.2123  0.8262  0.5298
13583TIP3   OH262163   4.419   3.039   5.582  0.4616  0.1979  0.0223
13583TIP3    H162164   4.340   3.028   5.635  0.9369  0.3009  0.7565
13583TIP3    H262165   4.424   3.133   5.565  1.4098  0.4465  1.5276
13584TIP3   OH262166   3.083   3.604  13.592 -0.3444  0.4662  0.7916
13584TIP3    H162167   3.038   3.519  13.591  0.4339  0.0484  0.4859
13584TIP3    H262168   3.173   3.584  13.567 -0.3254  1.4878 -0.0363
13585TIP3   OH262169   0.157   5.968   5.793  0.2385 -0.2541  0.4822
13585TIP3    H162170   0.248   5.952   5.818  0.5020 -0.6223 -0.6435
13585TIP3    H262171   0.151   6.063   5.781  0.5673 -0.2671  0.2202
13586TIP3   OH262172   1.453   4.992   1.076  0.1933  0.1559  0.5702
13586TIP3    H162173   1.544   4.965   1.090  0.5126  1.0840  0.3109
13586TIP3    H262174   1.402   4.915   1.103  1.0907 -0.9283 -0.6664
13587TIP3   OH262175   2.442   5.556  15.334  0.3294  0.3107  0.0058
13587TIP3    H162176   2.512   5.497  15.362  0.0584 -0.1828 -0.3583
13587TIP3    H262177   2.477   5.644  15.351  0.8204  0.0533  0.3363
13588TIP3   OH262178   0.143   1.495  14.115  0.0530 -0.3428  0.1901
13588TIP3    H162179   0.171   1.446  14.038 -0.2663  0.1252 -0.2311
13588TIP3    H262180   0.096   1.571  14.080  1.7795  1.0574  0.7674
13589TIP3   OH262181   4.341   3.596  15.745 -0.8293  0.0901  0.6346
13589TIP3    H162182   4.288   3.643  15.809 -0.2538  2.2962 -0.4338
13589TIP3    H262183   4.285   3.524  15.716 -1.7222  0.0506  2.3465
13590TIP3   OH262184   1.694   2.495  12.656 -0.2037  0.0290 -0.2713
13590TIP3    H162185   1.787   2.492  12.631  0.5752  1.4502  2.0889
13590TIP3    H262186   1.647   2.488  12.573  2.0785  1.9712 -1.8879
13591TIP3   OH262187   3.728   3.945  11.666  0.1000  0.4298  0.2321
13591TIP3    H162188   3.799   3.881  11.672  1.1596  1.3291 -1.6790
13591TIP3    H262189   3.683   3.924  11.584 -1.8960 -0.1007  1.3889
13592TIP3   OH262190   3.458   0.164  13.213  0.2663 -0.5294  0.5378
13592TIP3    H162191   3.438   0.165  13.307  0.9959 -1.1443  0.7057
13592TIP3    H262192   3.462   0.071  13.190 -2.6203 -0.4508 -0.7092
13593TIP3   OH262193   0.365   2.202  14.115  0.1192  0.2970 -0.0838
13593TIP3    H162194   0.404   2.116  14.126 -1.6217 -0.5384 -0.0612
13593TIP3    H262195   0.353   2.211  14.020 -0.5813  0.0693 -0.0270
13594TIP3   OH262196   1.402   0.102   0.113 -0.1065 -0.5243 -0.0913
13594TIP3    H162197   1.421   0.134   0.201  0.4847 -0.8901 -0.0859
13594TIP3    H262198   1.487   0.082   0.075 -0.3622 -0.4207 -0.7285
13595TIP3   OH262199   0.923   5.139   2.624 -0.2745  0.3538  0.5361
13595TIP3    H162200   0.941   5.129   2.718 -0.8764 -0.4961  0.5715
13595TIP3    H262201   1.007   5.120   2.582  0.0340  0.8741  0.9082
13596TIP3   OH262202   0.741   4.822   1.074 -0.1483 -0.2329 -0.5904
13596TIP3    H162203   0.647   4.828   1.060 -0.1341 -1.0321 -1.0711
13596TIP3    H262204   0.754   4.745   1.128  0.1111  0.8446  0.9577
13597TIP3   OH262205   1.598   5.159   2.585  0.0889 -0.0557  0.1650
13597TIP3    H162206   1.555   5.149   2.669 -1.7714 -0.8221 -0.8239
13597TIP3    H262207   1.559   5.236   2.545  0.2360 -0.2607 -0.3980
13598TIP3   OH262208   2.565   0.516   5.506  0.6134  0.0289  0.1441
13598TIP3    H162209   2.604   0.443   5.555 -1.0607 -0.9264  0.1197
13598TIP3    H262210   2.586   0.594   5.558  0.2592 -0.7807  1.5309
13599TIP3   OH262211   4.902   2.171  14.624 -0.0716  0.2959  0.2697
13599TIP3    H162212   4.915   2.254  14.578  2.4256 -0.4205 -0.4750
13599TIP3    H262213   4.877   2.109  14.555 -1.7901  0.3559  0.7989
13600TIP3   OH262214   2.840   1.255   0.704  0.1988 -0.6923  0.2132
13600TIP3    H162215   2.914   1.278   0.648  0.5149 -0.0013  0.8979
13600TIP3    H262216   2.817   1.166   0.678  1.1406 -0.8416 -0.1411
13601TIP3   OH262217   1.991   0.120  11.515  0.4238  0.1558  0.1437
13601TIP3    H162218   2.079   0.095  11.486  0.8101  0.6880  0.8214
13601TIP3    H262219   1.935   0.049  11.486  1.1658 -0.4517  0.1723
13602TIP3   OH262220   3.314   5.602   0.616 -0.1785  0.0642 -0.6787
13602TIP3    H162221   3.367   5.670   0.574 -2.1466  0.0390 -3.4705
13602TIP3    H262222   3.308   5.532   0.551  1.0912 -2.5421  1.7890
13603TIP3   OH262223   6.277   2.979  14.548 -0.5396 -0.3074  0.1237
13603TIP3    H162224   6.314   3.038  14.614 -2.4071  1.7330 -0.5556
13603TIP3    H262225   6.276   3.030  14.467  1.7059 -2.7477 -1.6184
13604TIP3   OH262226   3.352   6.699   0.968  0.2587  0.4852  0.0002
13604TIP3    H162227   3.316   6.616   0.937 -0.0030  0.9597 -1.0191
13604TIP3    H262228   3.281   6.739   1.019 -0.3720  0.9982 -1.2300
13605TIP3   OH262229   3.643   1.781  13.457 -0.1757  0.6508  0.4804
13605TIP3    H162230   3.718   1.806  13.403 -2.1663  1.9814 -1.8867
13605TIP3    H262231   3.613   1.864  13.494 -0.4433  0.1183  1.4848
13606TIP3   OH262232   4.107   3.642  13.044 -0.0326 -0.2447 -0.5178
13606TIP3    H162233   4.016   3.630  13.018  0.6037  0.3231 -3.3534
13606TIP3    H262234   4.117   3.737  13.054  0.0161 -0.3782  0.8579
13607TIP3   OH262235   0.480   5.154   5.894  0.6573 -0.2617  0.0528
13607TIP3    H162236   0.563   5.114   5.922 -0.0730 -1.1757  0.9899
13607TIP3    H262237   0.445   5.195   5.973 -0.0648 -0.3995 -0.1935
13608TIP3   OH262238   4.303   5.978   2.588  0.1917 -0.0674 -0.1069
13608TIP3    H162239   4.395   6.005   2.592 -0.0727  0.7554  1.0423
13608TIP3    H262240   4.302   5.891   2.627  0.5667 -0.3305 -0.6767
13609TIP3   OH262241   2.780   1.671  11.534  0.2214  0.8581 -0.0862
13609TIP3    H162242   2.690   1.679  11.564 -0.2343  1.0867 -1.4494
13609TIP3    H262243   2.785   1.582  11.498  1.1809  0.0298  1.9283
13610TIP3   OH262244   5.552   2.304  11.076  0.4458 -0.0062  0.5590
13610TIP3    H162245   5.592   2.219  11.057 -0.5135 -0.2502 -0.4694
13610TIP3    H262246   5.475   2.307  11.020  1.3118  2.2151 -0.6080
13611TIP3   OH262247   6.703   4.554   0.997  0.1966  0.1574 -0.2140
13611TIP3    H162248   6.700   4.565   1.092 -1.2880 -0.2993 -0.1908
13611TIP3    H262249   6.745   4.634   0.965  0.8722  0.2363  0.8238
13612TIP3   OH262250   1.830   4.447  15.043  0.5114 -0.0682  0.3562
13612TIP3    H162251   1.780   4.387  14.988  0.6720  0.6684 -0.6236
13612TIP3    H262252   1.807   4.423  15.133 -1.8464  0.4627 -0.0486
13613TIP3   OH262253   2.889   6.208  14.016  0.2908 -0.2787  0.4231
13613TIP3    H162254   2.911   6.294  13.980 -0.5008  0.0497  0.7015
13613TIP3    H262255   2.970   6.177  14.056  1.3249 -0.8018 -1.9118
13614TIP3   OH262256   3.091   3.542   5.761  0.4756 -0.1568  0.2155
13614TIP3    H162257   3.097   3.637   5.752  1.3853 -0.2345 -0.0893
13614TIP3    H262258   3.131   3.522   5.845  1.1263 -0.3470 -0.1328
13615TIP3   OH262259   2.743   3.431  12.326  0.0534 -0.3497  0.4649
13615TIP3    H162260   2.835   3.407  12.317  0.4455 -0.1918  3.1188
13615TIP3    H262261   2.735   3.514  12.280  0.9269 -0.9542 -0.8269
13616TIP3   OH262262   0.833   1.324  14.791  0.1080  0.1629  0.1118
13616TIP3    H162263   0.785   1.352  14.713 -0.1544 -1.8495 -0.5164
13616TIP3    H262264   0.789   1.244  14.819  1.0779  0.0685  1.4904
13617TIP3   OH262265   4.516   2.918   5.352  0.0423  0.3806 -0.0349
13617TIP3    H162266   4.501   2.909   5.446 -1.3100 -0.7092 -0.3382
13617TIP3    H262267   4.429   2.920   5.314  0.5219  2.3762 -1.1682
13618TIP3   OH262268   6.285   0.633   3.366  0.0459 -0.6895 -0.4688
13618TIP3    H162269   6.232   0.607   3.442  0.1857  3.2038  1.2005
13618TIP3    H262270   6.228   0.690   3.315  2.0051  2.8040  0.8561
13619TIP3   OH262271   2.701   5.810   5.719 -0.2191 -0.4285  0.4931
13619TIP3    H162272   2.736   5.861   5.792  0.1518  3.1550 -1.9634
13619TIP3    H262273   2.682   5.874   5.651  0.9794 -3.6385 -3.2493
13620TIP3   OH262274   0.270   4.763   5.374 -0.8484 -0.0792 -0.4326
13620TIP3    H162275   0.347   4.780   5.320  2.3047 -4.1751  2.1089
13620TIP3    H262276   0.287   4.810   5.456 -0.2585 -1.9179  0.5759
13621TIP3   OH262277   4.864   4.970  13.585 -0.4673 -0.9602  0.6393
13621TIP3    H162278   4.922   5.039  13.553  2.0366 -3.0886  0.2705
13621TIP3    H262279   4.780   4.988  13.543  0.3369  1.2999 -0.1495
13622TIP3   OH262280   1.917   1.016   1.356  0.0397 -0.3862 -0.2198
13622TIP3    H162281   1.890   0.998   1.266  0.2582 -2.4069  0.0707
13622TIP3    H262282   1.840   0.993   1.409  0.7513 -1.7685  0.2694
13623TIP3   OH262283   2.950   4.639  17.125 -0.4110  0.2037 -0.0390
13623TIP3    H162284   2.908   4.554  17.142 -1.4234  0.8235  0.6509
13623TIP3    H262285   2.878   4.697  17.102  0.2319  0.9660 -0.1557
13624TIP3   OH262286   1.785   2.657   5.973 -0.6648  0.1621 -0.5917
13624TIP3    H162287   1.785   2.732   5.913 -1.3058 -0.0145 -0.8119
13624TIP3    H262288   1.859   2.604   5.943  0.7147  1.3999  0.4549
13625TIP3   OH262289   4.278   0.763   4.355 -0.2753  0.3134  0.9334
13625TIP3    H162290   4.276   0.740   4.447 -2.5705  0.8629  1.0692
13625TIP3    H262291   4.281   0.859   4.354 -2.0843  0.3900  0.4855
13626TIP3   OH262292   0.321   2.748  15.371  0.3688  0.6457 -0.3888
13626TIP3    H162293   0.338   2.786  15.285 -1.5013  0.6252 -0.8011
13626TIP3    H262294   0.272   2.815  15.418 -1.0431 -0.3858 -0.3374
13627TIP3   OH262295   2.090   3.184  10.879 -0.2073  0.0599  0.2949
13627TIP3    H162296   2.061   3.152  10.794 -2.7870  1.6465  0.4825
13627TIP3    H262297   2.017   3.235  10.912  1.6304  1.5044  2.4301
13628TIP3   OH262298   5.849   5.592  12.660  0.0344 -0.0285  1.0713
13628TIP3    H162299   5.938   5.580  12.626 -0.2318 -1.3156  0.7776
13628TIP3    H262300   5.796   5.609  12.582 -0.2445 -0.9847  1.0364
13629TIP3   OH262301   2.001   2.446  16.839  0.0944 -0.0728  0.0811
13629TIP3    H162302   1.939   2.416  16.773  2.3291 -2.9318 -0.9253
13629TIP3    H262303   1.979   2.395  16.917 -0.0242  0.3099  0.2965
13630TIP3   OH262304   4.696   4.979  13.852 -0.2193  0.7637  0.3119
13630TIP3    H162305   4.717   4.961  13.761  0.0506 -1.3564  0.7434
13630TIP3    H262306   4.782   4.984  13.896 -0.3727 -0.1846  0.7528
13631TIP3   OH262307   2.188   1.546  16.697  0.6512  0.0891  0.5258
13631TIP3    H162308   2.218   1.580  16.781  1.4934 -0.9496  0.6631
13631TIP3    H262309   2.258   1.568  16.635 -0.4214  1.7871 -0.1751
13632TIP3   OH262310   1.118   1.546   0.764  0.6672 -0.1225  0.4210
13632TIP3    H162311   1.197   1.600   0.760  0.7043 -0.2148 -0.2512
13632TIP3    H262312   1.047   1.609   0.771  0.8294 -0.0565  1.6090
13633TIP3   OH262313   5.568   3.142   3.493 -0.0054 -0.2462 -0.8308
13633TIP3    H162314   5.567   3.234   3.466  1.0651 -0.1428 -0.5353
13633TIP3    H262315   5.631   3.138   3.565  1.8229 -1.6415 -2.4023
13634TIP3   OH262316   1.729   5.139   5.809 -0.3336  0.5480 -0.6102
13634TIP3    H162317   1.645   5.160   5.770 -1.4220 -1.7605  0.2663
13634TIP3    H262318   1.716   5.153   5.903  0.0437 -0.4101 -0.4011
13635TIP3   OH262319   2.477   2.385  15.781 -0.0315  0.1638  0.4310
13635TIP3    H162320   2.475   2.300  15.825 -2.4055 -0.4790 -0.7723
13635TIP3    H262321   2.566   2.416  15.795  0.4022 -1.7007  2.4120
13636TIP3   OH262322   4.913   1.254   4.560  0.2612 -0.5918  0.2292
13636TIP3    H162323   4.898   1.166   4.525 -0.7092  0.7171 -2.9133
13636TIP3    H262324   4.889   1.313   4.489  1.1530  2.2543  2.1329
13637TIP3   OH262325   3.894   6.552  11.601 -0.3495 -0.0804 -0.0777
13637TIP3    H162326   3.821   6.495  11.575 -1.8024  1.7040 -0.0901
13637TIP3    H262327   3.940   6.571  11.519 -0.2179 -0.7229 -0.1592
13638TIP3   OH262328   3.244   6.613  11.451 -0.4721 -0.2835  0.2527
13638TIP3    H162329   3.176   6.656  11.398  0.3649  1.5943  0.6002
13638TIP3    H262330   3.197   6.577  11.525 -1.1627  0.6956  0.3146
13639TIP3   OH262331   1.101   0.815   3.698  0.2940 -0.3401  0.5945
13639TIP3    H162332   1.009   0.804   3.676  0.1290 -2.5618  2.0353
13639TIP3    H262333   1.143   0.842   3.617 -1.4132 -0.6619 -0.4353
13640TIP3   OH262334   0.473   5.276   6.215  0.2985  0.1669  0.3636
13640TIP3    H162335   0.429   5.234   6.288  0.2752 -0.3180  0.0738
13640TIP3    H262336   0.419   5.351   6.194 -0.7743 -0.8012 -0.4352
13641TIP3   OH262337   2.437   2.871   5.510  0.0577  0.3883 -0.3128
13641TIP3    H162338   2.463   2.798   5.454  0.4636  0.7486 -0.5995
13641TIP3    H262339   2.516   2.924   5.519 -0.3484  1.0364 -0.4847
13642TIP3   OH262340   1.418   0.550   4.364 -0.6522 -0.2577 -0.2891
13642TIP3    H162341   1.490   0.579   4.309  0.4044 -0.0427  1.1463
13642TIP3    H262342   1.366   0.492   4.308  2.1382 -2.6439 -0.6214
13643TIP3   OH262343   4.834   1.992   0.981 -0.1407  0.2470  0.2184
13643TIP3    H162344   4.870   1.938   1.051 -1.3611 -3.1081 -1.5014
13643TIP3    H262345   4.888   1.970   0.904 -1.3430  0.6651 -0.7720
13644TIP3   OH262346   1.855   1.401  11.730 -0.0346  0.1256  0.0208
13644TIP3    H162347   1.836   1.399  11.824 -1.3620 -0.3584 -0.2420
13644TIP3    H262348   1.839   1.312  11.700  0.5063  0.2459 -0.6486
13645TIP3   OH262349   5.448   3.617   0.895  0.0780 -0.7087  0.2196
13645TIP3    H162350   5.406   3.636   0.978  0.6345 -0.0919  0.3606
13645TIP3    H262351   5.459   3.522   0.895  0.5272 -0.6554  1.0595
13646TIP3   OH262352   1.736   2.193  15.020 -0.4996 -0.0048  0.3734
13646TIP3    H162353   1.698   2.225  14.939 -0.3158 -0.3994  0.1271
13646TIP3    H262354   1.662   2.181  15.079 -0.5015  1.6174  0.7495
13647TIP3   OH262355   6.593   6.116   5.227  0.0658  0.0600 -1.0840
13647TIP3    H162356   6.614   6.208   5.215  0.0793  0.2305  0.1519
13647TIP3    H262357   6.669   6.069   5.192 -0.1005  0.4996 -2.0414
13648TIP3   OH262358   0.978   6.727   1.055  0.2539  0.2473  0.0170
13648TIP3    H162359   1.062   6.699   1.092 -0.3438  0.7172  1.8525
13648TIP3    H262360   0.917   6.724   1.129 -0.8917  1.8554 -0.8006
13649TIP3   OH262361   3.078   0.155   5.996  0.7180  0.7929 -0.0130
13649TIP3    H162362   3.026   0.186   6.070  0.7276  0.4840  0.1244
13649TIP3    H262363   3.143   0.096   6.035 -1.1797 -1.8259 -0.5533
13650TIP3   OH262364   6.668   6.721   4.860 -0.3735 -0.0123 -0.2145
13650TIP3    H162365   6.704   6.699   4.946 -0.1423  0.3332 -0.2178
13650TIP3    H262366   6.574   6.732   4.875 -1.0291 -3.7642 -0.7518
13651TIP3   OH262367   0.539   2.861  15.139  0.1873 -0.6118  0.0705
13651TIP3    H162368   0.466   2.912  15.103  1.1098 -0.3085 -1.4952
13651TIP3    H262369   0.551   2.790  15.076  1.3880 -0.5113  0.1675
13652TIP3   OH262370   2.833   4.048  14.869  0.0502  0.7226  0.4797
13652TIP3    H162371   2.830   4.026  14.963 -2.1450  0.2182  0.3490
13652TIP3    H262372   2.912   4.005  14.838  0.4794  0.3477  1.9801
13653TIP3   OH262373   4.733   1.883   0.658  0.0959 -0.0546 -0.2323
13653TIP3    H162374   4.803   1.828   0.623  2.3871  2.2113  0.5121
13653TIP3    H262375   4.722   1.854   0.748 -2.1109 -2.3521 -1.1132
13654TIP3   OH262376   1.571   1.147  16.425  0.1402 -0.1679  0.1720
13654TIP3    H162377   1.568   1.242  16.414  0.0881 -0.0369  1.1763
13654TIP3    H262378   1.600   1.113  16.340 -2.6774  0.5305 -1.1888
13655TIP3   OH262379   4.007   2.123  16.394 -0.2623 -0.1265  0.0996
13655TIP3    H162380   3.933   2.150  16.449  0.4008  0.7796  0.5742
13655TIP3    H262381   4.009   2.187  16.323  0.1942 -0.0100  0.2109
13656TIP3   OH262382   2.824   4.951   0.745 -0.1058 -0.0628 -0.1869
13656TIP3    H162383   2.780   4.866   0.754  0.0876  0.0217  1.8654
13656TIP3    H262384   2.754   5.012   0.721 -1.0073 -0.1272  2.0224
13657TIP3   OH262385   1.846   0.361  13.011  0.3365  0.3729 -0.1313
13657TIP3    H162386   1.912   0.292  13.009 -0.3678 -0.3046 -0.8368
13657TIP3    H262387   1.883   0.431  12.956  0.4616 -0.0144 -0.5487
13658TIP3   OH262388   2.674   2.821  14.388  0.1623  0.2251  0.0194
13658TIP3    H162389   2.726   2.901  14.388  2.3328 -1.0986  0.6370
13658TIP3    H262390   2.687   2.784  14.475 -0.6734 -0.8797 -0.2984
13659TIP3   OH262391   3.112   1.144   0.138  0.1188  0.0309  0.3206
13659TIP3    H162392   3.127   1.157   0.232  0.3032 -0.3620  0.3484
13659TIP3    H262393   3.066   1.060   0.132 -0.0617  0.1462  0.0730
13660TIP3   OH262394   4.028   6.071   1.483 -0.4488 -0.4862  0.1916
13660TIP3    H162395   4.110   6.042   1.523 -0.5027  0.6385  1.1719
13660TIP3    H262396   4.007   6.153   1.528 -1.5669 -0.2119 -0.7796
13661TIP3   OH262397   0.222   6.453   1.327 -0.1709 -0.0670 -0.1152
13661TIP3    H162398   0.240   6.431   1.236 -0.5135 -2.5876  0.3354
13661TIP3    H262399   0.218   6.548   1.329  1.6392  0.1526 -2.3721
13662TIP3   OH262400   5.887   2.788  11.459 -0.7251  0.3381  0.0781
13662TIP3    H162401   5.885   2.875  11.418 -0.6692 -0.3912 -1.5884
13662TIP3    H262402   5.930   2.801  11.543 -1.3518  2.0401  0.1688
13663TIP3   OH262403   3.957   6.393   3.209  0.7024 -0.4872  0.7894
13663TIP3    H162404   4.047   6.379   3.179  0.7423  2.1830 -0.6076
13663TIP3    H262405   3.903   6.343   3.147  1.1488 -0.7430  0.6064
13664TIP3   OH262406   2.689   1.275   3.565  0.3464  0.3347  0.0007
13664TIP3    H162407   2.651   1.344   3.511  1.6370  1.6488  0.7052
13664TIP3    H262408   2.773   1.256   3.522  0.2175 -0.4533  0.0903
13665TIP3   OH262409   3.927   6.308  14.721 -0.3330  1.0948  0.3441
13665TIP3    H162410   3.927   6.404  14.718  0.5806  1.1336  1.0264
13665TIP3    H262411   4.019   6.284  14.710 -0.7484  0.2150 -1.5454
13666TIP3   OH262412   6.495   4.160   4.157  0.4921 -0.4783 -0.1602
13666TIP3    H162413   6.444   4.079   4.165  0.5159 -0.7043 -1.9718
13666TIP3    H262414   6.529   4.159   4.068  2.9916  0.0961  0.7121
13667TIP3   OH262415   2.980   5.294  16.419 -0.4712  0.0072 -0.1747
13667TIP3    H162416   2.968   5.291  16.514 -0.2167  1.6127 -0.0609
13667TIP3    H262417   3.074   5.305  16.407 -0.5062 -0.1454 -0.6118
13668TIP3   OH262418   5.441   0.434  17.273  0.0817 -0.0536 -0.7351
13668TIP3    H162419   5.406   0.386  17.347  2.7420  0.8720  1.2679
13668TIP3    H262420   5.368   0.487  17.242 -1.1795 -0.6638  1.0504
13669TIP3   OH262421   0.388   3.690  12.356 -0.2913  0.1137  0.0051
13669TIP3    H162422   0.317   3.718  12.415 -1.9406 -2.4712 -0.5710
13669TIP3    H262423   0.418   3.607  12.393 -1.3906 -1.6131 -2.6790
13670TIP3   OH262424   6.450   1.831   4.443  0.1652 -0.1541 -0.0848
13670TIP3    H162425   6.422   1.818   4.353  0.5464  0.2819 -0.2671
13670TIP3    H262426   6.436   1.746   4.485 -0.1514 -0.3148 -0.5150
13671TIP3   OH262427   5.512   3.964  13.216 -0.3101  0.1826 -0.4880
13671TIP3    H162428   5.526   3.930  13.128 -0.8191  1.2566 -1.0069
13671TIP3    H262429   5.569   4.041  13.221 -0.7958  0.5262 -0.1314
13672TIP3   OH262430   1.491   3.696  13.388 -0.2488  0.4176 -0.2677
13672TIP3    H162431   1.550   3.744  13.330 -1.4081 -0.3229 -2.1383
13672TIP3    H262432   1.523   3.716  13.476  0.8730  2.5031 -1.0811
13673TIP3   OH262433   5.738   1.268  17.301 -0.0689 -0.0629 -0.0092
13673TIP3    H162434   5.831   1.287  17.286  0.2850 -0.2756  1.7923
13673TIP3    H262435   5.736   1.177  17.327 -0.9886 -0.5093 -1.4840
13674TIP3   OH262436   6.040   6.219   4.572 -0.1988  0.7943 -0.1340
13674TIP3    H162437   6.136   6.208   4.573 -0.0938  1.6247 -0.1260
13674TIP3    H262438   6.016   6.228   4.664 -0.3966 -0.1959 -0.0746
13675TIP3   OH262439   2.637   6.464  13.913  0.1618  0.8188  0.1121
13675TIP3    H162440   2.551   6.465  13.956  0.6072  1.6409  1.0111
13675TIP3    H262441   2.650   6.372  13.889 -0.8416  0.6323  0.2126
13676TIP3   OH262442   3.849   1.113  13.736 -0.9405 -0.2691  0.7966
13676TIP3    H162443   3.853   1.101  13.641 -3.0266  2.5425  0.2237
13676TIP3    H262444   3.778   1.056  13.764 -0.5095 -0.8880  0.6516
13677TIP3   OH262445   4.218   0.339   3.172 -0.0037 -0.1981  0.9625
13677TIP3    H162446   4.146   0.401   3.159  0.8611  0.7335  0.5091
13677TIP3    H262447   4.180   0.254   3.150 -0.4754  0.4992 -1.1027
13678TIP3   OH262448   2.855   2.980   2.039  0.5248  0.3438  0.5950
13678TIP3    H162449   2.796   2.910   2.012  1.6857 -0.8665  1.0616
13678TIP3    H262450   2.800   3.040   2.088 -0.9193  0.8323 -1.4743
13679TIP3   OH262451   3.601   3.402  15.986  0.1509  0.1416  0.1396
13679TIP3    H162452   3.616   3.379  15.894 -2.6836  0.4259 -0.4878
13679TIP3    H262453   3.656   3.478  16.001  1.6542 -0.6924 -0.9108
13680TIP3   OH262454   6.492   1.308  16.247 -0.3597  0.1142 -0.6633
13680TIP3    H162455   6.568   1.351  16.286 -0.9552  1.6050 -1.0772
13680TIP3    H262456   6.521   1.218  16.230  0.8568  0.2703  0.4260
13681TIP3   OH262457   5.669   3.819   3.532 -0.4932 -0.3701 -0.0511
13681TIP3    H162458   5.661   3.741   3.587  1.9791 -1.0826 -0.5979
13681TIP3    H262459   5.733   3.795   3.465 -1.2146  1.4709 -1.4799
13682TIP3   OH262460   0.610   5.797  11.946 -0.0168 -0.2816  0.4352
13682TIP3    H162461   0.704   5.793  11.929  0.7411  0.7008  3.6843
13682TIP3    H262462   0.590   5.714  11.989  0.3357  1.0613  3.3909
13683TIP3   OH262463   3.517   0.756   3.709  0.0450 -0.0746  0.0646
13683TIP3    H162464   3.546   0.684   3.653 -2.8547 -0.3827 -1.2212
13683TIP3    H262465   3.491   0.714   3.791 -2.2224 -0.6774 -0.8982
13684TIP3   OH262466   0.355   3.941  14.190 -0.0884  0.1046 -0.5598
13684TIP3    H162467   0.349   3.890  14.109  1.1691 -0.6769 -0.1980
13684TIP3    H262468   0.444   3.977  14.188  1.0105 -2.1385  1.6898
13685TIP3   OH262469   3.183   1.584  16.687 -0.2539  0.7235  0.1080
13685TIP3    H162470   3.245   1.557  16.755  0.0773  2.9257  0.7563
13685TIP3    H262471   3.097   1.568  16.725 -0.0650  1.4548  0.8736
13686TIP3   OH262472   5.803   3.447   0.770 -0.4430 -0.2996  0.0765
13686TIP3    H162473   5.875   3.476   0.825 -0.5796 -0.6912  0.4628
13686TIP3    H262474   5.781   3.524   0.717 -1.0685  0.4233  1.3660
13687TIP3   OH262475   2.486   4.148  17.302 -0.5796 -0.2201 -0.0559
13687TIP3    H162476   2.423   4.168  17.233 -1.6581  2.8477  1.6153
13687TIP3    H262477   2.571   4.164  17.262 -1.0101 -1.0438 -1.3707
13688TIP3   OH262478   5.941   2.722   4.395 -0.3272 -0.2719 -0.2797
13688TIP3    H162479   5.888   2.702   4.318  0.1627 -0.8107 -0.4855
13688TIP3    H262480   5.887   2.781   4.447 -0.5277  0.3734 -1.1995
13689TIP3   OH262481   4.771   6.565  13.183  0.1892  0.6888  0.4382
13689TIP3    H162482   4.750   6.471  13.175  1.3503  0.4874 -0.5442
13689TIP3    H262483   4.826   6.570  13.261  1.2108  0.3177 -0.2274
13690TIP3   OH262484   2.416   0.805   5.360  0.0353 -0.0806  0.7354
13690TIP3    H162485   2.490   0.750   5.335 -0.5920 -1.2636  1.3678
13690TIP3    H262486   2.414   0.801   5.456 -0.8571 -0.1012  0.7230
13691TIP3   OH262487   1.322   4.335   2.117  0.1891  0.1607 -0.3122
13691TIP3    H162488   1.282   4.420   2.098  0.7927  0.5270  0.0131
13691TIP3    H262489   1.316   4.327   2.213 -0.0282 -0.2473 -0.3586
13692TIP3   OH262490   5.773   6.099  14.745  0.4417  0.0132 -0.4945
13692TIP3    H162491   5.699   6.080  14.803 -0.9050  3.8138 -0.7011
13692TIP3    H262492   5.848   6.111  14.804 -0.3162  1.1802  0.2692
13693TIP3   OH262493   3.024   3.752  11.560  0.2269 -0.0757 -0.0711
13693TIP3    H162494   2.929   3.750  11.548  0.1350  0.2707  0.5885
13693TIP3    H262495   3.056   3.679  11.507 -0.4234 -0.3189 -0.1389
13694TIP3   OH262496   1.746   2.741   0.583 -0.3834 -0.3727 -0.9589
13694TIP3    H162497   1.814   2.808   0.578 -0.4117 -0.2461  0.0361
13694TIP3    H262498   1.791   2.660   0.558  0.4850 -0.5020  0.8467
13695TIP3   OH262499   4.982   6.083  12.357  0.1178 -0.0815  0.0871
13695TIP3    H162500   4.888   6.073  12.369  0.3969 -1.1913  1.6282
13695TIP3    H262501   5.019   5.999  12.385  1.5925  0.4311 -0.2263
13696TIP3   OH262502   2.099   2.293   4.432 -0.2131 -0.1996 -0.2461
13696TIP3    H162503   2.185   2.267   4.400  1.0880  3.2002  0.1328
13696TIP3    H262504   2.089   2.384   4.405 -2.8979  0.1032  1.3616
13697TIP3   OH262505   4.113   4.635  14.312 -0.1631  0.1697 -0.1085
13697TIP3    H162506   4.076   4.548  14.304  2.3865 -0.9460 -0.7160
13697TIP3    H262507   4.123   4.649  14.406 -0.5474 -0.1984 -0.0131
13698TIP3   OH262508   1.175   5.080  15.157 -0.2903 -0.1544 -0.2654
13698TIP3    H162509   1.127   5.149  15.112  0.6303 -0.0252 -1.0992
13698TIP3    H262510   1.223   5.036  15.087  0.2226 -0.7375  0.4449
13699TIP3   OH262511   3.675   1.815   4.233  0.3187  0.1223  0.4247
13699TIP3    H162512   3.636   1.796   4.319  0.5189  1.2978  0.7911
13699TIP3    H262513   3.601   1.812   4.172 -0.6368  3.3015  1.2482
13700TIP3   OH262514   3.908   4.959   4.894  0.0920 -0.6498 -0.4400
13700TIP3    H162515   3.816   4.953   4.920 -0.8205  1.7138 -2.6478
13700TIP3    H262516   3.913   4.911   4.812  0.5674  0.0451 -0.8271
13701TIP3   OH262517   4.283   3.665  11.390  0.5737  0.2189 -0.5756
13701TIP3    H162518   4.253   3.719  11.317  1.6772 -0.2685 -1.4080
13701TIP3    H262519   4.252   3.577  11.369  0.4895  0.1548 -0.2053
13702TIP3   OH262520   5.088   3.323  12.243  0.6709 -0.2256 -0.2981
13702TIP3    H162521   5.045   3.278  12.170  1.5335 -1.1236 -0.2669
13702TIP3    H262522   5.181   3.301  12.234  0.8953  0.2830  0.6329
13703TIP3   OH262523   3.651   1.915  13.888 -1.1218 -0.2729  0.0640
13703TIP3    H162524   3.593   1.940  13.816 -2.9444 -2.3070  0.6932
13703TIP3    H262525   3.680   1.826  13.865 -0.2503 -0.2414  0.9674
13704TIP3   OH262526   4.182   2.420   4.241 -0.3067  0.2469 -0.2316
13704TIP3    H162527   4.269   2.448   4.213 -0.5250  1.7578  0.5148
13704TIP3    H262528   4.157   2.353   4.178  0.7842  0.8632 -1.3612
13705TIP3   OH262529   5.411   3.898   1.487  0.0431 -0.4117 -0.0086
13705TIP3    H162530   5.459   3.836   1.432  0.3246 -0.6846  0.5273
13705TIP3    H262531   5.334   3.850   1.516 -0.1436 -0.2433 -0.2242
13706TIP3   OH262532   6.643   2.650  14.481  0.5863  0.0378 -0.3116
13706TIP3    H162533   6.599   2.573  14.516  0.8724  0.0781  0.1406
13706TIP3    H262534   6.645   2.712  14.554 -0.4815  0.8425 -0.9357
13707TIP3   OH262535   4.680   6.126   3.533 -0.5674  0.0298 -0.3494
13707TIP3    H162536   4.642   6.166   3.612 -0.0184  3.0045 -1.4642
13707TIP3    H262537   4.604   6.090   3.486 -1.1639  0.1837  0.4639
13708TIP3   OH262538   0.159   0.103  12.309  0.3068  0.6724 -0.1822
13708TIP3    H162539   0.181   0.196  12.308 -3.4155  1.6965 -0.0955
13708TIP3    H262540   0.064   0.100  12.320  0.2735 -3.1789  0.0373
13709TIP3   OH262541   4.362   3.690  15.279 -0.5699 -0.0413 -0.0865
13709TIP3    H162542   4.386   3.642  15.199 -0.1652  0.7687 -0.4618
13709TIP3    H262543   4.271   3.665  15.294 -0.5444 -0.4811 -0.6036
13710TIP3   OH262544   1.214   1.287   0.865 -0.5555  0.1050  0.6238
13710TIP3    H162545   1.167   1.370   0.852 -0.1173  0.1044 -1.4527
13710TIP3    H262546   1.147   1.226   0.895 -2.0238  0.0740 -2.3262
13711TIP3   OH262547   6.088   5.544   4.230  0.6395  0.0619  0.0652
13711TIP3    H162548   6.056   5.573   4.144  2.0712  1.3444 -0.0673
13711TIP3    H262549   6.049   5.604   4.292 -0.5238 -0.9648  0.3650
13712TIP3   OH262550   2.203   3.309  11.199 -0.3739  0.1213 -0.0238
13712TIP3    H162551   2.205   3.288  11.293  0.8884 -0.9834 -0.2695
13712TIP3    H262552   2.293   3.295  11.170 -0.4187  1.8285 -1.1313
13713TIP3   OH262553   5.400   5.394   1.301  0.2037 -0.2178  0.0104
13713TIP3    H162554   5.323   5.443   1.270 -0.1311 -1.1688 -0.7111
13713TIP3    H262555   5.370   5.351   1.381 -0.0185 -0.5754 -0.2618
13714TIP3   OH262556   3.051   1.332  17.107  0.1858  0.0195  0.3073
13714TIP3    H162557   3.110   1.391  17.154 -0.1284 -0.8195  1.8101
13714TIP3    H262558   3.002   1.288  17.176 -0.5045 -1.0499 -0.8398
13715TIP3   OH262559   0.366   3.412  15.553 -0.2711 -0.3514 -0.1133
13715TIP3    H162560   0.309   3.341  15.583  1.1994 -1.2659  0.5929
13715TIP3    H262561   0.371   3.401  15.458 -1.1578 -0.3378 -0.1691
13716TIP3   OH262562   0.279   5.248   4.466  0.1678  0.6556 -0.1214
13716TIP3    H162563   0.288   5.341   4.491 -0.9403  0.9578 -0.7956
13716TIP3    H262564   0.219   5.212   4.531  2.5548 -0.2877  1.7354
13717TIP3   OH262565   3.265   2.866   3.247  0.3930 -0.3724 -0.1701
13717TIP3    H162566   3.223   2.904   3.324  0.8048  0.1611 -0.2018
13717TIP3    H262567   3.250   2.772   3.256 -0.0984 -0.2618  0.2374
13718TIP3   OH262568   0.729   5.853  12.870 -0.0679 -0.0386  0.0132
13718TIP3    H162569   0.764   5.933  12.831  1.1700  0.1881  1.4520
13718TIP3    H262570   0.728   5.789  12.799  0.6540  0.7698 -0.7419
13719TIP3   OH262571   3.036   4.759   5.254 -0.1295  0.2663 -0.4714
13719TIP3    H162572   3.018   4.702   5.328 -0.7031  1.5465  0.4137
13719TIP3    H262573   3.127   4.787   5.267 -0.0077 -0.0406 -0.6394
13720TIP3   OH262574   4.402   1.442   5.432  0.4511 -0.3398 -0.3137
13720TIP3    H162575   4.394   1.347   5.443  0.6524 -0.4041 -0.7014
13720TIP3    H262576   4.462   1.469   5.501 -0.9913 -0.2341  0.9252
13721TIP3   OH262577   0.289   1.025   1.965  0.6756 -0.1147 -0.2014
13721TIP3    H162578   0.267   0.959   1.900 -0.1379  0.7669 -0.8534
13721TIP3    H262579   0.220   1.091   1.957  2.6260  1.9378 -1.1370
13722TIP3   OH262580   4.565   1.043  11.961  0.3573  0.1822  0.0564
13722TIP3    H162581   4.563   1.052  12.056 -0.9783  1.4590 -0.0633
13722TIP3    H262582   4.529   1.125  11.928 -1.9418 -1.3047 -1.4565
13723TIP3   OH262583   1.157   3.329  12.628  0.7328  0.1172 -0.2514
13723TIP3    H162584   1.093   3.377  12.574  0.4386 -0.2114 -0.1977
13723TIP3    H262585   1.177   3.251  12.577  0.8876  0.0848 -0.1415
13724TIP3   OH262586   5.281   0.662   3.026  0.4830 -0.3599 -0.4036
13724TIP3    H162587   5.330   0.648   3.107 -0.7380 -1.4268  0.1955
13724TIP3    H262588   5.203   0.711   3.053 -1.8541 -3.8523 -0.1328
13725TIP3   OH262589   4.904   4.587  11.887  0.0436 -0.4167  0.1479
13725TIP3    H162590   4.911   4.520  11.954  0.4070 -0.0246  0.5058
13725TIP3    H262591   4.811   4.612  11.887 -0.2524 -1.4577 -0.5247
13726TIP3   OH262592   6.167   3.543   0.502 -0.2187  0.0806 -0.1230
13726TIP3    H162593   6.256   3.533   0.467 -0.6272 -2.5703 -0.6037
13726TIP3    H262594   6.180   3.577   0.591  1.2964 -0.4151 -0.1248
13727TIP3   OH262595   4.267   6.634   6.459 -0.0220  0.1969 -0.0450
13727TIP3    H162596   4.276   6.575   6.533 -0.1692  0.3882  0.1289
13727TIP3    H262597   4.216   6.585   6.394  0.1597  0.0081 -0.0458
13728TIP3   OH262598   4.872   0.590   0.046 -0.3282 -0.9274  0.9351
13728TIP3    H162599   4.781   0.598   0.076 -0.0912 -0.4133  1.5431
13728TIP3    H262600   4.922   0.643   0.108  0.1838  0.1455 -0.3536
13729TIP3   OH262601   0.745   2.798  15.290  0.2074 -0.6197  0.4701
13729TIP3    H162602   0.681   2.827  15.226  0.9540 -2.0881 -1.0201
13729TIP3    H262603   0.821   2.855  15.275 -0.5243  0.8700  1.9854
13730TIP3   OH262604   4.210   5.131  13.520  0.5432  0.1558  0.0692
13730TIP3    H162605   4.184   5.046  13.557  0.9181  0.2411  0.5388
13730TIP3    H262606   4.239   5.182  13.595  0.0137  0.8255 -0.1692
13731TIP3   OH262607   1.489   1.923  14.371 -0.1433 -0.4463  0.4564
13731TIP3    H162608   1.471   1.868  14.295  2.7948 -0.6762 -0.1969
13731TIP3    H262609   1.429   1.997  14.362  1.3213  0.4930 -3.1977
13732TIP3   OH262610   4.486   1.635   2.429 -0.2261 -0.0738  0.0795
13732TIP3    H162611   4.458   1.549   2.460 -1.8984 -0.0597 -1.2956
13732TIP3    H262612   4.441   1.647   2.346  2.5182  0.7687 -1.4145
13733TIP3   OH262613   5.204   0.880  17.320 -0.1734 -0.1809 -0.9391
13733TIP3    H162614   5.261   0.856  17.393  0.4669  0.8323 -1.0859
13733TIP3    H262615   5.221   0.973  17.305 -1.6646  0.0828 -1.1818
13734TIP3   OH262616   1.083   2.086   0.134 -0.2506 -0.5885  0.1967
13734TIP3    H162617   1.085   2.052   0.224  0.2588  0.7273  0.7192
13734TIP3    H262618   1.050   2.175   0.143  0.6889 -0.1090 -0.7992
13735TIP3   OH262619   1.611   3.148  12.843 -0.1620  0.9783  0.2318
13735TIP3    H162620   1.690   3.094  12.850 -0.7188  0.1768  0.5299
13735TIP3    H262621   1.612   3.181  12.753 -0.0924  0.0101 -0.1319
13736TIP3   OH262622   0.841   3.568  15.549  0.0720 -0.0469  0.0132
13736TIP3    H162623   0.839   3.564  15.453 -0.7796 -0.1278  0.0309
13736TIP3    H262624   0.750   3.559  15.576  0.4577 -1.7504  0.9099
13737TIP3   OH262625   5.888   0.357  12.753  0.0913 -0.3006 -0.3250
13737TIP3    H162626   5.875   0.316  12.667  0.9744 -0.5944 -0.3287
13737TIP3    H262627   5.880   0.284  12.815 -2.4377  0.1821  0.0481
13738TIP3   OH262628   0.709   6.121  15.026 -0.0159  0.0633  0.0981
13738TIP3    H162629   0.617   6.118  15.052 -0.1522 -0.6123 -0.4468
13738TIP3    H262630   0.726   6.214  15.010  0.0292  0.4874  2.3601
13739TIP3   OH262631   5.782   0.806   5.641  0.0609 -0.1305 -0.0961
13739TIP3    H162632   5.784   0.716   5.609  0.1492  0.2133 -1.1200
13739TIP3    H262633   5.778   0.859   5.561  1.9342  0.8468  0.4085
13740TIP3   OH262634   5.229   3.145   2.533 -0.6138  0.8441 -0.0763
13740TIP3    H162635   5.272   3.068   2.494 -0.4997  0.5569  0.5983
13740TIP3    H262636   5.253   3.218   2.476 -0.4926  0.4263 -0.5675
13741TIP3   OH262637   6.119   1.887   2.058 -0.0839 -0.0750 -0.5297
13741TIP3    H162638   6.127   1.862   1.967 -0.0854 -1.3244 -0.2031
13741TIP3    H262639   6.191   1.842   2.102 -0.1031  0.4831  0.0970
13742TIP3   OH262640   4.426   1.690   5.233 -0.1743  0.6622 -0.4987
13742TIP3    H162641   4.434   1.594   5.238 -0.6811  0.6739  2.0595
13742TIP3    H262642   4.494   1.722   5.292 -0.9815  1.7841 -0.1419
13743TIP3   OH262643   2.708   4.136  12.431 -0.5392 -0.1150 -0.2899
13743TIP3    H162644   2.779   4.151  12.368  1.1734  0.0615  1.5884
13743TIP3    H262645   2.687   4.224  12.463  1.1984 -0.4341  2.0018
13744TIP3   OH262646   1.466   1.711  17.160 -0.2676 -0.7860 -0.0789
13744TIP3    H162647   1.549   1.727  17.206 -0.6689 -0.7451  0.6455
13744TIP3    H262648   1.492   1.693  17.070  0.4217  1.3194 -0.3763
13745TIP3   OH262649   1.471   2.920  16.271 -0.7500 -0.1055  0.2704
13745TIP3    H162650   1.490   2.933  16.178  1.6346 -1.0404  0.5684
13745TIP3    H262651   1.427   2.835  16.275  0.1366 -0.5792  0.0859
13746TIP3   OH262652   1.420   3.850   0.770 -0.3126  0.0309  0.2755
13746TIP3    H162653   1.365   3.835   0.847  0.0343 -0.3688  0.4514
13746TIP3    H262654   1.370   3.813   0.698 -0.2072 -0.4920  0.4618
13747TIP3   OH262655   0.470   1.750   0.256  0.0914 -0.4938 -0.5108
13747TIP3    H162656   0.550   1.744   0.309  0.6683  2.0540 -1.0009
13747TIP3    H262657   0.465   1.665   0.212  1.9820 -1.0777  0.2723
13748TIP3   OH262658   2.865   4.434  12.699 -0.0970 -0.0356  0.3055
13748TIP3    H162659   2.782   4.425  12.651  0.5542  2.5450 -1.5229
13748TIP3    H262660   2.850   4.506  12.760  0.6277  0.0418  0.3976
13749TIP3   OH262661   1.219   1.743  14.429 -0.6082  0.8157  0.0921
13749TIP3    H162662   1.150   1.735  14.364 -0.8270 -0.7072  0.4784
13749TIP3    H262663   1.301   1.735  14.379 -0.7781 -1.0500  0.0406
13750TIP3   OH262664   5.100   5.198  15.474  0.6536 -0.4829 -0.3947
13750TIP3    H162665   5.043   5.125  15.499  0.3668 -0.2379 -0.3195
13750TIP3    H262666   5.113   5.188  15.380 -1.3161  0.6920 -0.8374
13751TIP3   OH262667   6.331   4.739  17.102 -0.1763  0.1769 -0.7215
13751TIP3    H162668   6.331   4.695  17.017 -0.1518 -3.5449  0.9986
13751TIP3    H262669   6.239   4.745  17.126 -0.1314 -2.2433  0.4306
13752TIP3   OH262670   5.466   2.736  15.382 -0.0462  0.3342 -0.0210
13752TIP3    H162671   5.538   2.673  15.384  1.8836  2.3598 -1.1884
13752TIP3    H262672   5.433   2.734  15.292 -0.3155  0.6142  0.0666
13753TIP3   OH262673   3.803   0.528  17.122  0.1449  0.0279  0.4360
13753TIP3    H162674   3.732   0.470  17.151 -0.4921  1.1274  1.1718
13753TIP3    H262675   3.867   0.469  17.082 -1.0691 -1.0313 -0.0395
13754TIP3   OH262676   3.117   2.073   4.054 -0.0846  0.2430  0.2651
13754TIP3    H162677   3.140   2.075   3.961 -1.9107  0.1588 -0.2256
13754TIP3    H262678   3.181   2.013   4.093  0.7855  0.3670 -0.8908
13755TIP3   OH262679   5.528   3.421   1.266 -0.1994 -0.3787  0.2688
13755TIP3    H162680   5.469   3.352   1.295  1.1103 -1.7797 -0.2457
13755TIP3    H262681   5.615   3.381   1.267  0.6826  1.4134  0.3909
13756TIP3   OH262682   4.124   0.178  13.508  0.5058  0.0808 -0.4924
13756TIP3    H162683   4.104   0.105  13.566  0.6133  1.3040  1.1520
13756TIP3    H262684   4.201   0.220  13.547  0.4170  1.1160 -1.3605
13757TIP3   OH262685   1.108   1.593   2.363 -0.3195  0.4312  0.1733
13757TIP3    H162686   1.156   1.616   2.442  0.9132  0.9981 -0.6954
13757TIP3    H262687   1.018   1.577   2.392 -0.0321  1.2421  1.5801
13758TIP3   OH262688   5.836   4.005  11.698 -0.2972  0.4428 -0.1432
13758TIP3    H162689   5.786   3.982  11.620 -0.6144  2.7059 -0.6769
13758TIP3    H262690   5.927   3.991  11.674 -0.4677 -0.0165 -0.5134
13759TIP3   OH262691   2.680   4.137  14.642 -0.1834 -0.0194 -0.0301
13759TIP3    H162692   2.754   4.135  14.703  0.3549  2.2742 -0.4906
13759TIP3    H262693   2.604   4.160  14.696 -0.1880 -0.4408  0.1441
13760TIP3   OH262694   5.186   2.776   2.815 -0.1096 -0.2347 -0.1468
13760TIP3    H162695   5.144   2.786   2.730 -0.5914  0.2345  0.1400
13760TIP3    H262696   5.263   2.832   2.810  0.5265 -1.1276 -0.6870
13761TIP3   OH262697   1.896   5.570  16.287 -0.4416  0.1105 -0.2487
13761TIP3    H162698   1.811   5.587  16.246 -1.6554 -0.0926  1.9949
13761TIP3    H262699   1.929   5.492  16.244 -1.4947  0.0697 -1.0210
13762TIP3   OH262700   1.597   3.346   1.487  0.2046  0.6064 -0.3906
13762TIP3    H162701   1.677   3.390   1.516 -0.3429  1.6882 -0.4867
13762TIP3    H262702   1.537   3.354   1.562  1.0056 -2.5460  0.7739
13763TIP3   OH262703   3.820   0.675  13.790  0.4329 -0.5148  0.2144
13763TIP3    H162704   3.814   0.582  13.769 -1.1354 -0.4977  0.4617
13763TIP3    H262705   3.902   0.683  13.839  0.5277 -1.7863  0.3054
13764TIP3   OH262706   6.600   1.429   2.524 -0.1769  0.0433 -0.4039
13764TIP3    H162707   6.641   1.464   2.603 -0.5298  0.6134 -0.4675
13764TIP3    H262708   6.661   1.361   2.494  0.6996  0.8262 -0.4555
13765TIP3   OH262709   6.632   4.230   1.726 -0.4084 -0.5128  0.2369
13765TIP3    H162710   6.564   4.182   1.678 -0.6768  1.3534 -1.3806
13765TIP3    H262711   6.676   4.282   1.659  0.3059  0.9715  1.7840
13766TIP3   OH262712   3.045   0.806  11.699  0.4402 -0.4154 -0.1178
13766TIP3    H162713   3.055   0.840  11.788  2.3848 -1.1004 -0.0302
13766TIP3    H262714   3.068   0.713  11.707 -1.0933 -0.9059 -1.0305
13767TIP3   OH262715   4.320   5.335  12.027  0.4596  0.1512 -0.1333
13767TIP3    H162716   4.230   5.305  12.038 -0.2319  0.8876 -3.0076
13767TIP3    H262717   4.371   5.254  12.016  0.2328 -0.2709  1.6050
13768TIP3   OH262718   1.281   4.810  15.990 -0.2632  0.3203  0.1396
13768TIP3    H162719   1.292   4.859  15.908  1.3904 -1.7104 -0.9573
13768TIP3    H262720   1.199   4.762  15.979 -0.2189  0.3204 -0.1933
13769TIP3   OH262721   3.007   2.785   5.852  0.0955  0.0232 -0.0550
13769TIP3    H162722   2.947   2.852   5.886  0.6397  0.4790  0.0288
13769TIP3    H262723   3.083   2.790   5.909  0.0015 -0.9235  0.1655
13770TIP3   OH262724   5.296   0.383   4.177  0.5099 -0.5463  0.2673
13770TIP3    H162725   5.371   0.433   4.210 -1.0550  0.6968  2.1613
13770TIP3    H262726   5.299   0.300   4.224  0.4871 -0.3579  0.5997
13771TIP3   OH262727   2.221   0.896   3.182  0.3790  0.7912  0.3331
13771TIP3    H162728   2.208   0.991   3.185  0.5675  0.8632 -0.6693
13771TIP3    H262729   2.139   0.862   3.146  0.9549  0.7588 -1.0126
13772TIP3   OH262730   2.473   3.749  12.308  0.4123 -0.7153 -0.1750
13772TIP3    H162731   2.540   3.737  12.376  3.0314  1.6781 -2.1053
13772TIP3    H262732   2.509   3.707  12.230  0.0961  1.2445 -1.4481
13773TIP3   OH262733   6.681   4.492   5.331  0.3064  0.0978 -0.1132
13773TIP3    H162734   6.690   4.449   5.416 -0.6282  0.9914  0.4703
13773TIP3    H262735   6.669   4.421   5.269  2.0426 -0.6350  0.3248
13774TIP3   OH262736   3.286   5.565   4.249 -0.2126 -0.0531  0.4597
13774TIP3    H162737   3.297   5.470   4.252  0.1588  0.0010  0.7561
13774TIP3    H262738   3.226   5.579   4.176  0.1238 -0.4813  0.0931
13775TIP3   OH262739   3.684   1.820  12.136 -0.3573  0.1490  0.1363
13775TIP3    H162740   3.744   1.752  12.108  0.7647  1.2224 -0.1454
13775TIP3    H262741   3.620   1.826  12.064 -0.5669 -0.7116  0.2465
13776TIP3   OH262742   4.942   1.650   0.253  0.3172 -0.1011 -0.1265
13776TIP3    H162743   4.917   1.739   0.278  0.5332 -0.4853  1.6237
13776TIP3    H262744   4.919   1.643   0.161 -2.0215  0.9693  0.2945
13777TIP3   OH262745   6.443   4.146   1.918 -0.1090  0.0646 -0.1334
13777TIP3    H162746   6.393   4.087   1.861  1.0598 -0.6697 -0.4274
13777TIP3    H262747   6.501   4.193   1.858 -0.9492  1.4788  0.1086
13778TIP3   OH262748   1.612   4.571  13.256  0.3090  0.3503 -0.3188
13778TIP3    H162749   1.521   4.598  13.265  0.2779 -0.4598  2.9108
13778TIP3    H262750   1.613   4.478  13.279  1.7931  0.0037 -1.5878
13779TIP3   OH262751   2.985   3.311   6.162 -0.8647 -0.3352 -0.4012
13779TIP3    H162752   2.967   3.399   6.196  0.9226  0.3260 -1.0874
13779TIP3    H262753   2.937   3.253   6.221 -3.4110  1.1300 -0.8682
13780TIP3   OH262754   1.796   3.734   1.974 -0.0477  0.1280  0.0693
13780TIP3    H162755   1.849   3.655   1.983 -1.5365 -0.8429  0.8044
13780TIP3    H262756   1.769   3.755   2.064 -1.4069  0.2020 -0.3258
13781TIP3   OH262757   0.849   1.293  17.257 -0.0219 -0.1313 -0.0065
13781TIP3    H162758   0.806   1.320  17.176  1.8418 -0.0372 -1.0187
13781TIP3    H262759   0.943   1.302  17.239  0.4507  0.0818  2.2339
13782TIP3   OH262760   0.656   2.454  13.374 -0.2858  0.7036 -0.7631
13782TIP3    H162761   0.713   2.509  13.321  1.3495  1.0162  1.1942
13782TIP3    H262762   0.602   2.517  13.423  0.1653  0.5386 -0.0345
13783TIP3   OH262763   0.317   2.715  15.986  0.3851  0.2024  0.2219
13783TIP3    H162764   0.393   2.657  15.980  0.0859 -0.1206 -0.6977
13783TIP3    H262765   0.299   2.722  16.080  1.1042 -0.3009  0.4052
13784TIP3   OH262766   0.542   1.477   1.081  0.1415 -0.0350  0.1884
13784TIP3    H162767   0.493   1.421   1.021 -0.8464  1.2544 -0.2708
13784TIP3    H262768   0.481   1.493   1.154  0.3553  0.5186  0.2561
13785TIP3   OH262769   2.220   5.883  17.065  0.1487  0.4987 -0.1522
13785TIP3    H162770   2.196   5.974  17.084  1.5875  0.8262  0.1823
13785TIP3    H262771   2.167   5.832  17.126  0.6122  1.2236  0.8812
13786TIP3   OH262772   6.591   3.375  10.660  0.2225  0.4272  0.1198
13786TIP3    H162773   6.522   3.340  10.716 -0.2418  0.1815 -0.6010
13786TIP3    H262774   6.569   3.467  10.648  0.5636  0.5889  0.6921
13787TIP3   OH262775   6.686   3.465  13.346 -0.1943  0.2390 -0.1874
13787TIP3    H162776   6.729   3.411  13.413  0.3295  1.8344  0.8033
13787TIP3    H262777   6.603   3.491  13.385 -0.4563  0.1382 -0.6711
13788TIP3   OH262778   0.056   0.517  16.086  0.3435 -0.3371  0.3304
13788TIP3    H162779   0.020   0.602  16.060 -1.1866 -1.1211 -0.2346
13788TIP3    H262780   0.120   0.496  16.018  0.9625  0.4671  0.6345
13789TIP3   OH262781   2.649   4.478  15.333 -0.1704 -0.1569 -0.0580
13789TIP3    H162782   2.742   4.493  15.319  0.1640 -0.8153  1.2651
13789TIP3    H262783   2.624   4.543  15.400 -1.0277  1.0077 -1.4551
13790TIP3   OH262784   4.781   0.189  13.711 -0.4027  0.6409 -0.1007
13790TIP3    H162785   4.766   0.102  13.748 -3.0473  1.6640  1.4939
13790TIP3    H262786   4.797   0.245  13.786  3.0315  1.3883 -1.1899
13791TIP3   OH262787   0.315   4.247  12.778 -0.3701 -0.5431  0.7148
13791TIP3    H162788   0.358   4.214  12.856 -0.7934 -1.3468  0.6163
13791TIP3    H262789   0.385   4.289  12.728  0.5132 -2.5775  0.1301
13792TIP3   OH262790   1.392   1.887  11.259 -0.0795 -0.4807 -0.2279
13792TIP3    H162791   1.468   1.829  11.257 -1.0964 -1.8319 -0.7331
13792TIP3    H262792   1.430   1.975  11.267  1.5016 -1.1726  0.3164
13793TIP3   OH262793   3.882   3.501  14.095 -0.1245  1.0319  0.4703
13793TIP3    H162794   3.889   3.435  14.164  0.6455  1.9041  1.2517
13793TIP3    H262795   3.843   3.454  14.022  0.3919 -0.2982  1.0019
13794TIP3   OH262796   2.635   4.923   1.622 -0.0710  0.3646  0.1451
13794TIP3    H162797   2.609   5.007   1.583  2.1584  0.8881 -0.3534
13794TIP3    H262798   2.711   4.944   1.676 -1.3718 -0.8503  2.6151
13795TIP3   OH262799   0.502   4.017   5.976  0.2713 -0.6047 -0.3288
13795TIP3    H162800   0.570   3.964   6.017  1.9151  1.1832 -0.6098
13795TIP3    H262801   0.548   4.070   5.911 -1.4145  0.5665 -0.6436
13796TIP3   OH262802   2.839   5.812  15.627 -0.0480 -0.2147  0.0384
13796TIP3    H162803   2.831   5.813  15.722 -0.4482 -1.8282  0.0556
13796TIP3    H262804   2.757   5.849  15.595  0.2970  0.8056  0.3074
13797TIP3   OH262805   5.210   4.450   0.881  0.0555  0.2693  0.1152
13797TIP3    H162806   5.266   4.515   0.841  0.2047 -0.9335 -1.7754
13797TIP3    H262807   5.154   4.499   0.941  0.7809  1.9734 -0.5577
13798TIP3   OH262808   3.127   3.993  13.860  0.4516 -0.0059  0.4290
13798TIP3    H162809   3.095   4.082  13.873  1.7350  0.7569 -1.1707
13798TIP3    H262810   3.049   3.942  13.839 -0.9224 -0.2135  5.0398
13799TIP3   OH262811   4.581   4.215   2.834 -0.3064  0.2225  0.6607
13799TIP3    H162812   4.674   4.192   2.826  0.4169  2.7470  1.0092
13799TIP3    H262813   4.551   4.226   2.744 -0.5079 -1.2662  0.5127
13800TIP3   OH262814   3.168   4.783   1.874 -0.0777  0.4936 -0.4999
13800TIP3    H162815   3.080   4.770   1.910 -0.1536  2.2058 -0.0038
13800TIP3    H262816   3.199   4.694   1.854 -1.4672 -0.2184  0.3742
13801TIP3   OH262817   2.496   2.984  14.077  0.8007 -0.1715  0.2210
13801TIP3    H162818   2.548   2.942  14.145 -0.3384 -1.0025  0.6027
13801TIP3    H262819   2.430   3.033  14.124 -1.5482 -2.6960 -0.2008
13802TIP3   OH262820   5.700   5.556   5.705  0.9655 -0.1427 -1.1444
13802TIP3    H162821   5.794   5.572   5.709  0.8067  0.7499 -0.7906
13802TIP3    H262822   5.683   5.491   5.774  1.0345  1.1850  0.1650
13803TIP3   OH262823   1.759   4.178   2.458 -0.4792  0.4075 -0.6474
13803TIP3    H162824   1.786   4.259   2.415  0.2406  0.3253 -0.3567
13803TIP3    H262825   1.826   4.114   2.434  0.2200  0.4836  0.9984
13804TIP3   OH262826   0.748   1.916   3.739  0.0103  0.4572  0.1966
13804TIP3    H162827   0.781   1.838   3.785  0.9369  0.6418 -0.1474
13804TIP3    H262828   0.696   1.961   3.805  3.2368  1.9889  1.9325
13805TIP3   OH262829   4.707   3.823  11.313 -0.0878  0.3074  0.2464
13805TIP3    H162830   4.640   3.890  11.295  1.7751  2.5454  1.1510
13805TIP3    H262831   4.788   3.860  11.277  0.9352 -1.7119  0.3690
13806TIP3   OH262832   4.180   4.318   4.008  0.2020  0.4637 -0.3714
13806TIP3    H162833   4.131   4.236   3.999  1.7515 -0.6321  0.5865
13806TIP3    H262834   4.217   4.315   4.096  1.3695  1.5717 -0.7819
13807TIP3   OH262835   1.098   1.327  12.211 -0.6368 -0.1138 -0.5333
13807TIP3    H162836   1.174   1.269  12.213 -0.6621 -0.1317  0.0890
13807TIP3    H262837   1.123   1.398  12.152 -0.7101 -0.8913 -1.5395
13808TIP3   OH262838   2.530   4.118   1.258 -0.1182  0.2756  0.5627
13808TIP3    H162839   2.584   4.093   1.183  0.2894  1.2618  0.5096
13808TIP3    H262840   2.584   4.181   1.306 -1.0898  1.0212  0.7011
13809TIP3   OH262841   2.758   5.083  14.328 -0.2457 -0.2250  0.2811
13809TIP3    H162842   2.827   5.141  14.295 -0.8259 -0.3514 -1.2258
13809TIP3    H262843   2.804   5.022  14.385  0.5797  0.8997  0.8766
13810TIP3   OH262844   6.199   1.242   5.273  0.3604  0.1528  0.2607
13810TIP3    H162845   6.157   1.239   5.359 -1.6345  1.2250 -0.6283
13810TIP3    H262846   6.130   1.220   5.211  1.6316 -0.0836 -1.1244
13811TIP3   OH262847   5.753   4.219  17.322 -0.6362 -0.6427 -0.7710
13811TIP3    H162848   5.733   4.280  17.393  1.8459 -0.8893  0.2385
13811TIP3    H262849   5.708   4.138  17.347 -3.2286  0.4120 -1.6814
13812TIP3   OH262850   4.277   5.173   0.325  0.0442 -0.8197 -0.1455
13812TIP3    H162851   4.356   5.156   0.377  0.5565 -0.7285 -0.8830
13812TIP3    H262852   4.299   5.144   0.237 -0.4732 -0.0801 -0.5344
13813TIP3   OH262853   2.880   2.188  11.747 -0.0186  0.2091 -0.3319
13813TIP3    H162854   2.787   2.199  11.767  0.3403  0.5222  1.3120
13813TIP3    H262855   2.882   2.128  11.673 -1.5183  0.0536 -0.2718
13814TIP3   OH262856   3.614   6.610   1.489  0.1847  0.3873  0.0310
13814TIP3    H162857   3.640   6.681   1.547 -1.6736 -0.4302  2.0273
13814TIP3    H262858   3.519   6.619   1.481  0.2403 -0.1989 -2.0567
13815TIP3   OH262859   0.732   1.216  15.590 -0.1481 -0.3509  0.1663
13815TIP3    H162860   0.666   1.154  15.557 -0.9953 -0.8707  2.6530
13815TIP3    H262861   0.812   1.164  15.596 -0.2218 -0.5052 -0.1190
13816TIP3   OH262862   6.450   1.607   2.913  0.5447 -0.1419  0.2399
13816TIP3    H162863   6.410   1.656   2.842 -0.9474  0.5500  1.4897
13816TIP3    H262864   6.512   1.668   2.953  1.7001 -0.6709 -0.6849
13817TIP3   OH262865   5.018   5.778  13.381 -0.4563  0.2751  0.4702
13817TIP3    H162866   5.062   5.847  13.330 -0.2204  0.5776  1.0788
13817TIP3    H262867   5.001   5.818  13.466 -1.9037  0.1561  0.2624
13818TIP3   OH262868   6.547   2.769  17.037 -0.5415 -0.1188 -0.1954
13818TIP3    H162869   6.484   2.697  17.046  1.5388 -1.7882  2.4936
13818TIP3    H262870   6.594   2.750  16.955 -1.0680 -0.9219 -0.3245
13819TIP3   OH262871   4.945   0.245  11.275 -0.1929 -0.2053  0.2296
13819TIP3    H162872   4.998   0.218  11.350 -1.1151 -1.0202  0.5963
13819TIP3    H262873   4.993   0.214  11.199  1.0411  1.1123  0.4211
13820TIP3   OH262874   2.951   3.302   2.195  0.2990 -0.6386  0.3153
13820TIP3    H162875   2.909   3.325   2.278 -0.3120 -1.5097  0.2696
13820TIP3    H262876   3.044   3.298   2.215  0.5604  2.3856  0.1833
13821TIP3   OH262877   1.190   3.595  14.470  0.2729  0.3962 -0.0111
13821TIP3    H162878   1.282   3.605  14.446  0.3190  1.4874  0.5667
13821TIP3    H262879   1.162   3.514  14.427  0.9242  1.1557 -1.9239
13822TIP3   OH262880   2.083   0.367  16.655  0.0652  0.0531 -0.5410
13822TIP3    H162881   2.165   0.401  16.690  1.0393 -0.9187 -1.7584
13822TIP3    H262882   2.061   0.292  16.710  0.8537 -0.6292 -1.1209
13823TIP3   OH262883   5.534   0.648  11.711 -0.4053  0.0159  0.5125
13823TIP3    H162884   5.525   0.727  11.659  1.0741  0.3672  0.7691
13823TIP3    H262885   5.531   0.678  11.802 -0.3593 -0.2854  0.6162
13824TIP3   OH262886   4.817   0.674  12.994  0.4594  0.6385  0.6536
13824TIP3    H162887   4.829   0.642  13.083  0.4525  0.8322  0.7252
13824TIP3    H262888   4.905   0.682  12.958  0.4078 -2.5414 -0.4888
13825TIP3   OH262889   6.684   1.384  12.859  0.3978  0.2416 -0.0744
13825TIP3    H162890   6.734   1.462  12.836 -0.2228  0.3643 -1.0641
13825TIP3    H262891   6.748   1.313  12.855  0.7068  0.5332 -0.3580
13826TIP3   OH262892   2.756   2.044  16.517  0.2649 -0.1187  0.1828
13826TIP3    H162893   2.791   2.080  16.436  1.6442  1.0435  1.2441
13826TIP3    H262894   2.807   1.966  16.533 -1.8167 -1.9523 -1.3990
13827TIP3   OH262895   4.933   0.283  16.328  0.0706 -0.0707 -0.8582
13827TIP3    H162896   4.877   0.339  16.381 -1.0317 -1.0722 -0.9190
13827TIP3    H262897   4.988   0.343  16.279  0.8324  0.9100  1.0776
13828TIP3   OH262898   2.738   1.643  13.072 -0.0935  0.2953 -0.3654
13828TIP3    H162899   2.714   1.736  13.074 -0.0321  0.3139  1.2051
13828TIP3    H262900   2.738   1.617  13.164  2.7699 -0.5154 -0.5119
13829TIP3   OH262901   4.378   2.888  14.596 -0.7258  0.0890 -0.0072
13829TIP3    H162902   4.343   2.927  14.677  0.3160 -0.5571  0.7741
13829TIP3    H262903   4.300   2.856  14.550 -1.3176  0.1939  0.8872
13830TIP3   OH262904   0.483   2.724   1.814 -0.6780  0.2549  0.2599
13830TIP3    H162905   0.547   2.794   1.829  0.0778 -0.7797  2.3922
13830TIP3    H262906   0.401   2.770   1.798 -0.0311  1.6349  0.7073
13831TIP3   OH262907   2.030   1.726   1.092  0.3345  0.3321 -0.0537
13831TIP3    H162908   1.981   1.651   1.127 -0.5426  1.1151  0.4478
13831TIP3    H262909   2.050   1.779   1.169  0.0225  1.1435 -0.5208
13832TIP3   OH262910   6.518   2.957  16.539  0.4594  0.9064 -0.3485
13832TIP3    H162911   6.509   2.997  16.453  3.1202 -0.1410 -1.2473
13832TIP3    H262912   6.600   2.992  16.573  0.0237  0.4370  1.2762
13833TIP3   OH262913   5.598   1.915  15.854 -0.2870 -0.1490 -0.1672
13833TIP3    H162914   5.572   1.996  15.810 -2.1504  0.2846  1.5604
13833TIP3    H262915   5.516   1.878  15.887  0.7178 -1.8689  0.5408
13834TIP3   OH262916   6.289   3.863   0.311 -0.1722  0.5559 -0.6847
13834TIP3    H162917   6.334   3.828   0.389 -1.3239  0.7481  0.0850
13834TIP3    H262918   6.316   3.805   0.240 -2.0025 -1.9743  0.5421
13835TIP3   OH262919   4.288   6.065  17.282 -0.1993 -0.1978  0.1919
13835TIP3    H162920   4.207   6.114  17.264 -1.6429 -2.0373  1.3464
13835TIP3    H262921   4.342   6.078  17.204 -1.9580  0.4037 -0.9725
13836TIP3   OH262922   2.056   3.188   1.078  0.8560  0.4729  0.2174
13836TIP3    H162923   2.047   3.282   1.062  2.2805  0.3469 -1.5422
13836TIP3    H262924   2.007   3.147   1.007  1.4642 -0.1191  0.1381
13837TIP3   OH262925   3.139   0.824   3.160 -0.1443  0.4226  0.4476
13837TIP3    H162926   3.203   0.827   3.089 -0.2043 -0.6031  0.3343
13837TIP3    H262927   3.121   0.730   3.172 -1.0917  0.6565  0.9465
13838TIP3   OH262928   2.995   1.107  16.228  0.5790 -0.2387 -0.2147
13838TIP3    H162929   3.084   1.075  16.241  1.4464  1.0470 -2.3404
13838TIP3    H262930   2.999   1.153  16.144 -1.9003  0.5895  0.0519
13839TIP3   OH262931   5.270   5.037  12.002 -0.0344  0.2239  0.1383
13839TIP3    H162932   5.204   5.093  12.042 -0.0516  0.4897 -0.2501
13839TIP3    H262933   5.266   4.955  12.051 -1.6657 -0.2952 -0.7979
13840TIP3   OH262934   3.925   5.835  13.095  0.2428 -0.0223  0.3901
13840TIP3    H162935   3.918   5.858  13.003  0.6292 -1.0126  0.1096
13840TIP3    H262936   3.847   5.781  13.112 -0.5927  1.3251  1.0136
13841TIP3   OH262937   3.414   2.778  14.688  0.4500  0.0214 -0.8559
13841TIP3    H162938   3.346   2.710  14.680  0.0168  0.1247  1.3101
13841TIP3    H262939   3.368   2.860  14.668  0.3616 -0.0817 -1.0762
13842TIP3   OH262940   0.224   2.881   3.930  0.2068  0.3694 -0.2234
13842TIP3    H162941   0.314   2.879   3.900  0.3260  0.7290  0.0978
13842TIP3    H262942   0.180   2.811   3.881  0.8305 -0.3246  0.1956
13843TIP3   OH262943   0.744   4.644   3.089 -0.1860 -0.3147  0.3010
13843TIP3    H162944   0.727   4.647   3.183  2.2706 -0.3531  0.8133
13843TIP3    H262945   0.839   4.636   3.082 -0.2974 -0.2524 -2.2014
13844TIP3   OH262946   2.191   4.119   3.344  0.2554 -0.5686 -0.0766
13844TIP3    H162947   2.263   4.110   3.406  1.0319 -1.2449 -1.0524
13844TIP3    H262948   2.219   4.070   3.267 -1.3395 -1.0391 -0.4039
13845TIP3   OH262949   5.310   4.368   5.593 -0.0177 -0.0813  0.4836
13845TIP3    H162950   5.254   4.392   5.667 -0.6354 -0.5120  0.1677
13845TIP3    H262951   5.250   4.330   5.529  0.3607  1.0306 -0.5933
13846TIP3   OH262952   0.333   4.392   2.042 -0.0257 -0.2831  0.1542
13846TIP3    H162953   0.386   4.372   1.965 -1.3863  0.7365 -1.1043
13846TIP3    H262954   0.244   4.402   2.008 -0.6915  0.0370  1.8888
13847TIP3   OH262955   6.570   2.933  12.876 -0.4533 -0.0169 -0.0181
13847TIP3    H162956   6.645   2.896  12.924 -0.5417  0.9878  0.9211
13847TIP3    H262957   6.517   2.975  12.943  0.8441  3.9217 -1.1951
13848TIP3   OH262958   6.436   6.308   5.883 -0.6550 -0.4072 -0.2284
13848TIP3    H162959   6.406   6.290   5.794 -0.4849 -0.0718 -0.3556
13848TIP3    H262960   6.511   6.250   5.895 -1.2908 -1.1814  0.0593
13849TIP3   OH262961   5.499   4.514  15.176 -0.4238 -0.1912 -0.2275
13849TIP3    H162962   5.558   4.587  15.160 -0.7118 -0.0339 -0.5796
13849TIP3    H262963   5.495   4.468  15.092 -0.2262 -0.6268 -0.0034
13850TIP3   OH262964   2.063   5.633   6.081 -0.0264  0.0651  0.5183
13850TIP3    H162965   2.001   5.652   6.152  0.5403  3.8301  0.2045
13850TIP3    H262966   2.030   5.685   6.007  1.1055 -1.3531 -1.0414
13851TIP3   OH262967   6.543   3.064  16.965  0.5244  0.4979 -0.2044
13851TIP3    H162968   6.522   3.127  17.034 -0.4604  1.8354 -1.6466
13851TIP3    H262969   6.492   2.986  16.986  0.7025  0.6692  0.8808
13852TIP3   OH262970   0.273   0.963  14.875 -0.4212 -0.1096  0.1818
13852TIP3    H162971   0.184   0.998  14.868  0.1932  1.3375 -0.7378
13852TIP3    H262972   0.298   0.979  14.966 -0.4367  1.1838 -0.0286
13853TIP3   OH262973   0.353   3.970  12.475  0.4709 -0.9853 -0.2238
13853TIP3    H162974   0.300   3.923  12.410  2.0231 -2.7915 -0.2684
13853TIP3    H262975   0.303   3.962  12.556 -0.9668  0.3666 -0.9284
13854TIP3   OH262976   1.151   5.648  16.183 -0.1073  0.1994 -0.2464
13854TIP3    H162977   1.057   5.663  16.171 -0.2409  0.1818  0.6436
13854TIP3    H262978   1.178   5.717  16.244  0.3510 -0.0811 -0.1275
13855TIP3   OH262979   1.759   6.704  14.928  0.3518 -0.0814 -0.1818
13855TIP3    H162980   1.821   6.739  14.992 -0.0479  0.1053  0.1130
13855TIP3    H262981   1.676   6.701  14.976  0.0876 -0.1110 -0.6418
13856TIP3   OH262982   2.510   5.871   6.516 -0.3964  0.8152 -0.2986
13856TIP3    H162983   2.530   5.963   6.496  0.1142  1.1809  1.7307
13856TIP3    H262984   2.455   5.875   6.594  3.0066 -0.6475  2.4196
13857TIP3   OH262985   3.857   1.483  14.157  0.0092 -0.1939 -0.4523
13857TIP3    H162986   3.915   1.536  14.101 -0.2803 -0.8556 -1.4155
13857TIP3    H262987   3.875   1.392  14.130 -1.3192 -0.4208 -0.6241
13858TIP3   OH262988   3.961   3.116   2.564 -0.0694  0.2388 -0.3489
13858TIP3    H162989   3.919   3.115   2.650 -1.2390 -1.1507 -0.9044
13858TIP3    H262990   4.002   3.203   2.559 -0.8673  0.7460  1.1745
13859TIP3   OH262991   6.478   4.064  15.145  0.2907 -0.0547  0.7491
13859TIP3    H162992   6.451   3.986  15.194 -3.2613  0.2848 -0.3737
13859TIP3    H262993   6.471   4.038  15.053  0.6052  1.1222  0.3725
13860TIP3   OH262994   0.844   0.610  16.945 -0.6790  0.6591 -0.1520
13860TIP3    H162995   0.903   0.619  16.871 -1.0506  0.7364 -0.4412
13860TIP3    H262996   0.821   0.517  16.946 -1.3565  0.8119 -0.6702
13861TIP3   OH262997   1.752   2.817   0.245 -0.5809  0.4172  0.1839
13861TIP3    H162998   1.665   2.778   0.240 -0.6395  0.2857  1.6557
13861TIP3    H262999   1.813   2.744   0.236 -0.6231  0.4522 -0.4141
13862TIP3   OH263000   0.817   1.768  16.258  0.7693  0.1671 -0.0222
13862TIP3    H163001   0.810   1.784  16.164  0.4297 -1.5024 -0.3160
13862TIP3    H263002   0.735   1.724  16.281  1.9414 -1.9376  0.4612
13863TIP3   OH263003   1.207   6.168  15.413 -0.0519  0.4953  0.6453
13863TIP3    H163004   1.227   6.096  15.353  1.6571  0.6360  0.9978
13863TIP3    H263005   1.111   6.168  15.418 -0.1837 -0.4348 -0.9460
13864TIP3   OH263006   0.361   0.480  11.592 -0.0137 -0.3960 -0.0965
13864TIP3    H163007   0.287   0.419  11.585 -0.3807 -0.7744  4.3154
13864TIP3    H263008   0.433   0.426  11.626  0.9330  0.8461 -0.0621
13865TIP3   OH263009   5.912   1.399   3.480  0.6304 -0.1542  0.0701
13865TIP3    H163010   5.821   1.425   3.470  1.0341  1.4089  0.1153
13865TIP3    H263011   5.925   1.329   3.417 -0.9853 -1.4599  1.1297
13866TIP3   OH263012   2.438   0.530  17.104 -0.0860  0.1274 -0.6609
13866TIP3    H163013   2.508   0.531  17.170 -0.0660  0.3266 -0.6858
13866TIP3    H263014   2.383   0.604  17.128 -0.1880  0.0791 -0.7508
13867TIP3   OH263015   0.739   5.842  15.827  0.0682 -0.0198  0.3109
13867TIP3    H163016   0.823   5.804  15.801  1.0254  2.3129 -0.2684
13867TIP3    H263017   0.689   5.849  15.746 -1.2473 -2.5037  0.8218
13868TIP3   OH263018   5.730   2.341   0.564 -0.1384 -0.9943  0.3056
13868TIP3    H163019   5.740   2.247   0.550 -0.2127 -0.9534 -0.0272
13868TIP3    H263020   5.814   2.378   0.536 -0.0604 -0.9769  0.5656
13869TIP3   OH263021   5.687   1.289   3.226 -0.1490  0.5401 -0.1993
13869TIP3    H163022   5.599   1.265   3.197  0.2523 -0.5873 -0.5207
13869TIP3    H263023   5.695   1.382   3.205 -1.6346  0.9318  0.7740
13870TIP3   OH263024   3.859   3.113  14.673  0.1311  0.0194 -0.2028
13870TIP3    H163025   3.925   3.048  14.651 -1.4681 -2.0136  0.6895
13870TIP3    H263026   3.805   3.071  14.741 -1.7696  1.7509 -0.5425
13871TIP3   OH263027   4.451   3.431   6.100  0.1320  0.3348 -0.8521
13871TIP3    H163028   4.544   3.431   6.077  0.1136 -0.9989 -1.0244
13871TIP3    H263029   4.432   3.339   6.120 -1.3828  0.4235 -1.7505
13872TIP3   OH263030   3.143   1.942   2.101 -0.3280  0.2458 -0.0917
13872TIP3    H163031   3.218   1.888   2.075 -0.7249 -0.3409 -0.0363
13872TIP3    H263032   3.180   2.029   2.116  0.1695  0.2182 -1.0779
13873TIP3   OH263033   3.764   6.719  12.072  0.1143 -0.2819 -0.6813
13873TIP3    H163034   3.682   6.677  12.099  0.5819 -1.2911 -0.8085
13873TIP3    H263035   3.756   6.729  11.977  0.8439 -1.9592 -0.9367
13874TIP3   OH263036   4.117   4.870   4.445 -0.0501  0.3709  0.1563
13874TIP3    H163037   4.156   4.794   4.400  0.3252  0.1107  0.9016
13874TIP3    H263038   4.061   4.831   4.512 -2.4003  0.7188 -1.4873
13875TIP3   OH263039   1.364   1.515   0.308  0.2145 -0.3921 -0.1347
13875TIP3    H163040   1.290   1.572   0.289  0.3067 -0.2801 -0.1599
13875TIP3    H263041   1.440   1.573   0.307  0.2033 -0.3480  0.7933
13876TIP3   OH263042   4.226   1.258   4.803  0.2316  0.0459  0.3795
13876TIP3    H163043   4.149   1.278   4.750 -0.6771 -1.2790  1.1397
13876TIP3    H263044   4.296   1.244   4.740 -0.5739 -0.4479 -0.4229
13877TIP3   OH263045   6.238   6.701   4.106 -0.1437  0.2343 -0.9241
13877TIP3    H163046   6.215   6.646   4.031  1.5336 -0.7345 -0.7917
13877TIP3    H263047   6.325   6.735   4.084 -0.2036  1.0141  0.0052
13878TIP3   OH263048   5.363   4.313   2.356  0.4523  0.3130  0.2773
13878TIP3    H163049   5.299   4.260   2.308  0.3680  0.9628 -0.3502
13878TIP3    H263050   5.344   4.403   2.329  1.3634  0.5539  0.4102
13879TIP3   OH263051   0.862   5.650  12.259  0.2002  0.3776 -0.3060
13879TIP3    H163052   0.802   5.598  12.313 -2.1924  1.1750 -2.0501
13879TIP3    H263053   0.925   5.685  12.322 -1.7824  0.4049  1.8350
13880TIP3   OH263054   0.129   3.079   2.336  0.0976  0.0428  0.3675
13880TIP3    H163055   0.061   3.099   2.400 -1.3473 -2.0965 -0.3947
13880TIP3    H263056   0.087   3.019   2.274  2.4830 -0.8070 -0.5510
13881TIP3   OH263057   1.267   2.737  14.003  0.4101  0.3163 -0.2042
13881TIP3    H163058   1.224   2.656  13.977 -0.7545  1.1575 -0.9644
13881TIP3    H263059   1.288   2.781  13.921  1.8027  0.4296  0.1774
13882TIP3   OH263060   0.802   3.852  13.451  0.1265  0.6396  0.1681
13882TIP3    H163061   0.890   3.877  13.423 -0.5628  1.5557 -1.3412
13882TIP3    H263062   0.803   3.756  13.451  0.6562  0.6101 -1.5331
13883TIP3   OH263063   2.892   5.501  10.811 -0.0872 -0.4807  0.3565
13883TIP3    H163064   2.831   5.428  10.823 -1.9181  0.8400 -0.4195
13883TIP3    H263065   2.950   5.472  10.741 -0.3175 -1.4719  0.5571
13884TIP3   OH263066   2.875   5.681  13.346 -0.6601 -0.7884  0.2640
13884TIP3    H163067   2.802   5.713  13.293  0.6952  0.0212 -1.1851
13884TIP3    H263068   2.839   5.677  13.435 -2.1187  0.7668 -0.1935
13885TIP3   OH263069   1.867   3.507   5.661 -0.2813  0.0520  0.6606
13885TIP3    H163070   1.807   3.455   5.713 -1.5841  0.5218 -0.3298
13885TIP3    H263071   1.954   3.474   5.685 -0.9313 -0.8067  1.9301
13886TIP3   OH263072   3.930   1.407   3.150  0.1104  0.2820 -0.0358
13886TIP3    H163073   3.979   1.459   3.086 -0.3005  0.9595  0.1796
13886TIP3    H263074   3.982   1.413   3.230  0.5087 -0.3779 -0.2354
13887TIP3   OH263075   2.710   2.113  14.171 -0.1918  0.2365  0.1313
13887TIP3    H163076   2.796   2.084  14.201  0.2821  0.3928 -1.0409
13887TIP3    H263077   2.649   2.077  14.236  0.6897 -0.4823  0.5824
13888TIP3   OH263078   0.266   4.299   2.985 -0.0099 -0.4077  0.2443
13888TIP3    H163079   0.287   4.377   3.035 -0.2158 -0.6076  0.6497
13888TIP3    H263080   0.347   4.276   2.940 -0.3564  0.9541 -1.1743
13889TIP3   OH263081   5.269   2.803   5.440  0.2142  0.1133  0.5120
13889TIP3    H163082   5.295   2.799   5.532  0.1345 -0.9120  0.5019
13889TIP3    H263083   5.189   2.751   5.436  1.0505 -1.1845 -0.3981
13890TIP3   OH263084   0.406   5.977   0.621  0.0903 -0.0854 -0.1798
13890TIP3    H163085   0.403   5.994   0.715  1.5374  0.3951 -0.1952
13890TIP3    H263086   0.335   6.030   0.584 -0.7454 -0.5908  0.6671
13891TIP3   OH263087   6.418   6.704   0.151 -0.6651  0.0956  0.1753
13891TIP3    H163088   6.469   6.773   0.109 -0.2057 -0.3892 -0.0805
13891TIP3    H263089   6.333   6.745   0.169 -0.0910  1.0102  0.8975
13892TIP3   OH263090   3.417   6.674   4.634 -0.7088 -0.4192  0.2635
13892TIP3    H163091   3.367   6.751   4.662 -0.3215  0.3485 -1.0900
13892TIP3    H263092   3.509   6.703   4.638 -0.5312 -0.9614  0.1663
13893TIP3   OH263093   1.483   6.545   3.277  0.0011  0.1598  0.4448
13893TIP3    H163094   1.403   6.593   3.298 -0.0020  0.3174  0.0814
13893TIP3    H263095   1.554   6.602   3.305  0.0195 -1.2008  3.5577
13894TIP3   OH263096   5.181   4.021   4.724 -0.7882 -0.0543 -0.2829
13894TIP3    H163097   5.154   4.063   4.642  0.7429 -1.5120 -1.6197
13894TIP3    H263098   5.119   3.950   4.737 -0.5588 -0.3226 -0.6356
13895TIP3   OH263099   5.811   4.941   1.645  0.2529 -0.4229  0.3195
13895TIP3    H163100   5.880   4.990   1.600 -1.2670  1.2645 -0.2924
13895TIP3    H263101   5.796   4.989   1.726 -0.2006 -0.7628  0.4391
13896TIP3   OH263102   5.070   6.108   0.097 -0.1543  0.2225 -0.2346
13896TIP3    H163103   5.024   6.128   0.178 -0.2919 -0.7957 -0.0561
13896TIP3    H263104   5.015   6.146   0.028 -1.7638 -1.7460 -0.1042
13897TIP3   OH263105   5.890   1.245  12.252 -0.0497 -0.3555  0.0136
13897TIP3    H163106   5.889   1.224  12.158  2.2080  1.9114 -0.6382
13897TIP3    H263107   5.888   1.159  12.295  0.3799 -1.5466 -2.1488
13898TIP3   OH263108   5.067   3.547   4.153 -0.1800 -0.4161 -0.3640
13898TIP3    H163109   4.998   3.595   4.106  0.7204  0.7382 -0.5424
13898TIP3    H263110   5.107   3.491   4.087 -0.0534 -0.0732 -0.5802
13899TIP3   OH263111   1.352   5.064  12.620 -0.0364 -0.0458 -0.4322
13899TIP3    H163112   1.262   5.094  12.607 -0.0988 -0.8187 -1.9610
13899TIP3    H263113   1.401   5.145  12.638 -0.6777  0.6561 -1.7111
13900TIP3   OH263114   5.837   1.296   1.932  0.1433 -0.1406 -0.2708
13900TIP3    H163115   5.742   1.300   1.942  0.0863  0.0199 -0.8116
13900TIP3    H263116   5.863   1.388   1.922  0.7865  0.2090  3.3191
13901TIP3   OH263117   0.686   5.410   4.404  0.5981 -0.4270 -0.2713
13901TIP3    H163118   0.777   5.390   4.423  1.1142 -0.1671 -2.1877
13901TIP3    H263119   0.666   5.359   4.325 -0.1711  1.2299 -1.2249
13902TIP3   OH263120   2.634   0.191  13.924 -0.0043 -0.0572 -0.2608
13902TIP3    H163121   2.691   0.232  13.858  0.6718 -2.9250 -1.6078
13902TIP3    H263122   2.555   0.168  13.875  0.0971 -1.3147  0.1298
13903TIP3   OH263123   1.987   4.219  17.026 -0.0622 -0.2747 -0.5421
13903TIP3    H163124   1.899   4.195  16.998 -0.1222  0.7840 -1.3400
13903TIP3    H263125   2.004   4.303  16.983  1.1979 -0.2798 -0.1095
13904TIP3   OH263126   0.835   5.418  13.744 -0.2140 -0.2059 -0.1658
13904TIP3    H163127   0.740   5.427  13.751 -0.1956 -0.7051  0.8985
13904TIP3    H263128   0.849   5.385  13.655 -1.1904 -1.8032  0.2178
13905TIP3   OH263129   4.272   4.841   1.273  0.1933 -0.3182 -0.0791
13905TIP3    H163130   4.291   4.832   1.366 -2.7105  0.1067  0.6764
13905TIP3    H263131   4.283   4.753   1.237 -3.0506 -1.6454  1.7420
13906TIP3   OH263132   1.490   6.695  14.670  0.0767  0.0961  0.5444
13906TIP3    H163133   1.468   6.627  14.734 -0.7908 -0.4245 -0.2822
13906TIP3    H263134   1.579   6.674  14.643 -0.0291 -0.4597  0.6138
13907TIP3   OH263135   3.259   4.846  12.392 -0.4209 -0.2130 -0.4511
13907TIP3    H163136   3.321   4.913  12.423 -0.4560 -1.0597  1.6176
13907TIP3    H263137   3.304   4.804  12.319  1.8739 -1.2870  1.4387
13908TIP3   OH263138   0.173   0.441   5.942  0.0195 -0.2733 -0.6473
13908TIP3    H163139   0.225   0.520   5.930 -1.4824  1.1639  1.5785
13908TIP3    H263140   0.090   0.461   5.900  0.7098 -2.0653 -3.0757
13909TIP3   OH263141   5.330   0.248  14.170  0.3960  0.5508 -0.1671
13909TIP3    H163142   5.247   0.224  14.130 -0.5308 -0.5546  2.2468
13909TIP3    H263143   5.395   0.196  14.123 -0.1762  1.5888 -2.2311
13910TIP3   OH263144   1.499   5.235   5.712  0.5788  0.1855  0.0621
13910TIP3    H163145   1.519   5.326   5.732 -0.0291  0.8746 -2.1664
13910TIP3    H263146   1.405   5.227   5.725  0.3840  0.3141 -1.0941
13911TIP3   OH263147   1.689   5.079  14.543  0.4943 -0.2377  0.2444
13911TIP3    H163148   1.739   5.005  14.509  1.0136 -0.8438  2.2013
13911TIP3    H263149   1.752   5.127  14.598 -0.6582 -0.1611  1.5381
13912TIP3   OH263150   0.437   4.145  16.729 -0.1284 -0.2179 -0.0966
13912TIP3    H163151   0.342   4.132  16.736 -0.2949  1.1961  0.5127
13912TIP3    H263152   0.475   4.077  16.785 -0.8426  0.0482  0.7349
13913TIP3   OH263153   5.172   3.235  16.948  0.4007 -0.3077 -0.0586
13913TIP3    H163154   5.114   3.160  16.933 -0.9331  0.5710  0.5329
13913TIP3    H263155   5.207   3.220  17.035 -0.7311  0.2778  0.5218
13914TIP3   OH263156   4.078   4.607   3.581 -0.1471 -0.1211  0.4201
13914TIP3    H163157   4.131   4.686   3.588 -0.1072 -0.3241  3.6535
13914TIP3    H263158   4.141   4.535   3.590 -0.4633 -0.5015 -0.2716
13915TIP3   OH263159   1.810   4.631   0.004  0.9502  0.8129 -0.6740
13915TIP3    H163160   1.824   4.546  -0.038  0.4844  0.6193 -0.4370
13915TIP3    H263161   1.816   4.614   0.098  0.0798  0.8946 -0.5968
13916TIP3   OH263162   1.055   4.588  10.689  0.6782  0.3622  0.0118
13916TIP3    H163163   1.082   4.515  10.633  0.5670  0.1942  0.1758
13916TIP3    H263164   1.016   4.546  10.766  0.1354  0.6003 -0.1332
13917TIP3   OH263165   0.557   4.988  14.325  0.2704  0.2844  0.2455
13917TIP3    H163166   0.550   5.081  14.300 -3.1599 -0.2524 -1.3483
13917TIP3    H263167   0.630   4.955  14.273 -0.5934  1.4102 -1.8058
13918TIP3   OH263168   0.713   0.200   0.604 -0.0061  0.0239 -0.2801
13918TIP3    H163169   0.657   0.199   0.526  0.0249 -1.4682 -0.3176
13918TIP3    H263170   0.657   0.235   0.673 -1.1537 -1.7909 -0.2251
13919TIP3   OH263171   1.839   3.769   5.617 -0.4769  0.5608 -0.4692
13919TIP3    H163172   1.918   3.779   5.564  0.8918  0.3153  1.4189
13919TIP3    H263173   1.830   3.675   5.630 -1.7116  0.5067 -1.5177
13920TIP3   OH263174   2.323   2.539   0.576 -0.3980 -0.1804 -0.1145
13920TIP3    H163175   2.401   2.506   0.531 -0.0411  0.4190  0.0453
13920TIP3    H263176   2.296   2.466   0.633  0.3121 -0.2451  0.1557
13921TIP3   OH263177   2.100   5.217  17.111 -0.0342 -0.1856 -0.3786
13921TIP3    H163178   2.028   5.246  17.054  0.9347 -0.7618 -1.9750
13921TIP3    H263179   2.176   5.267  17.081  0.7498 -1.3464 -0.3755
13922TIP3   OH263180   5.814   6.248  15.308  0.1160 -0.0657 -0.1138
13922TIP3    H163181   5.775   6.272  15.392  1.1826 -1.1988  0.7544
13922TIP3    H263182   5.907   6.238  15.328  0.7783  1.7878 -1.9339
13923TIP3   OH263183   1.077   3.277  12.301  0.6671  0.2976 -0.3573
13923TIP3    H163184   1.083   3.236  12.215 -1.4056  0.0664 -0.4445
13923TIP3    H263185   1.080   3.204  12.363  2.8605  0.5133 -0.1518
13924TIP3   OH263186   0.654   1.190   0.597  0.2653 -0.1804  0.4440
13924TIP3    H163187   0.723   1.175   0.532 -0.5809 -1.1900 -0.2508
13924TIP3    H263188   0.692   1.157   0.679  0.8749 -0.0576  0.2220
13925TIP3   OH263189   4.077   0.305   5.704 -0.5203 -0.0506 -0.0605
13925TIP3    H163190   3.982   0.314   5.715 -0.6850 -0.2178 -1.1701
13925TIP3    H263191   4.096   0.216   5.734 -1.1306 -0.9231 -2.0914
13926TIP3   OH263192   0.360   1.393   4.249  0.5364  0.0449  0.3941
13926TIP3    H163193   0.323   1.481   4.263  0.4587  0.0985 -0.1251
13926TIP3    H263194   0.454   1.407   4.246  0.4661  0.4252 -1.6440
13927TIP3   OH263195   1.540   5.044   3.468 -0.0939  0.3413 -0.9901
13927TIP3    H163196   1.462   5.050   3.412  1.2281  0.5068 -2.8967
13927TIP3    H263197   1.518   4.975   3.531 -1.0860 -0.9882 -2.6974
13928TIP3   OH263198   1.793   0.310  14.266 -0.5193 -0.4973  0.5663
13928TIP3    H163199   1.885   0.326  14.286 -1.1505  0.5805  2.8723
13928TIP3    H263200   1.777   0.360  14.186  1.1535 -1.7327 -0.6315
13929TIP3   OH263201   4.999   3.216  10.787 -0.1846 -0.3198  0.0898
13929TIP3    H163202   5.093   3.204  10.773 -0.3109 -0.4303 -0.7544
13929TIP3    H263203   4.973   3.146  10.846  0.4166  0.2274  1.0264
13930TIP3   OH263204   1.455   3.492  15.073  0.2351  0.9014  0.2830
13930TIP3    H163205   1.402   3.428  15.120  0.3917  1.9539  1.9666
13930TIP3    H263206   1.524   3.440  15.031  1.0946  0.0190  2.6211
13931TIP3   OH263207   0.474   4.839   0.948  0.5792 -0.4454  0.0309
13931TIP3    H163208   0.425   4.757   0.954 -0.8141  0.4357  4.5664
13931TIP3    H263209   0.406   4.907   0.937  1.2605  0.3868  0.8112
13932TIP3   OH263210   5.813   5.305  13.591  0.5440 -0.2017 -0.5415
13932TIP3    H163211   5.772   5.391  13.597 -0.8813 -0.9068  0.3631
13932TIP3    H263212   5.894   5.321  13.543 -0.0307  1.5150 -1.0282
13933TIP3   OH263213   6.138   5.297  16.161 -0.1469  0.3018 -0.3961
13933TIP3    H163214   6.165   5.379  16.120 -0.7247 -0.2348 -1.9316
13933TIP3    H263215   6.044   5.306  16.176 -0.2352 -0.1007 -0.6712
13934TIP3   OH263216   5.216   1.321   3.299 -0.0558  0.1322  0.7198
13934TIP3    H163217   5.266   1.391   3.343  0.0282  1.0903 -0.8174
13934TIP3    H263218   5.125   1.350   3.304 -0.0252  0.3508  0.1141
13935TIP3   OH263219   1.091   3.640   3.097  0.5996 -0.0306  0.8679
13935TIP3    H163220   1.168   3.689   3.126  0.9771 -0.6662  0.9672
13935TIP3    H263221   1.122   3.586   3.025 -0.4483  1.9202 -1.1816
13936TIP3   OH263222   4.459   4.104   2.023 -0.0121  0.0087 -0.5600
13936TIP3    H163223   4.510   4.116   2.103 -0.0003  0.0932 -0.5801
13936TIP3    H263224   4.382   4.054   2.051  0.5220 -0.9089 -0.6947
13937TIP3   OH263225   4.929   1.218  16.231  0.4715  0.5207 -0.2157
13937TIP3    H163226   4.916   1.143  16.289  0.9029  1.2663  0.8814
13937TIP3    H263227   4.844   1.233  16.191  0.1532  0.0227  0.2669
13938TIP3   OH263228   1.671   5.831  14.703  0.3540 -0.5741  0.3991
13938TIP3    H163229   1.621   5.851  14.623 -0.2594 -1.5491  0.5231
13938TIP3    H263230   1.619   5.869  14.774 -0.7532 -2.4278  0.6236
13939TIP3   OH263231   4.952   4.505  12.835 -1.1093 -0.2281  0.4083
13939TIP3    H163232   4.993   4.540  12.756 -0.5805 -0.3403  0.6331
13939TIP3    H263233   4.997   4.548  12.907 -1.2810 -0.4674  0.6611
13940TIP3   OH263234   2.741   6.220   0.690  0.1386 -0.3896  0.3012
13940TIP3    H163235   2.761   6.220   0.597 -1.4796 -0.3428 -0.0733
13940TIP3    H263236   2.822   6.192   0.732  1.3017  0.8138 -1.0169
13941TIP3   OH263237   4.088   2.216  12.982  0.0778 -0.9674 -0.0054
13941TIP3    H163238   4.132   2.255  12.907 -0.1244  3.4609  1.8920
13941TIP3    H263239   4.005   2.263  12.989 -1.2147 -3.2500  1.4091
13942TIP3   OH263240   2.251   3.395  11.585  0.1747 -0.3578 -0.5471
13942TIP3    H163241   2.287   3.393  11.496  0.4379  0.3056 -0.4641
13942TIP3    H263242   2.216   3.308  11.599 -3.1002  0.4490 -2.6120
13943TIP3   OH263243   2.034   5.037  10.662 -0.0435  0.2022  0.7628
13943TIP3    H163244   1.963   5.089  10.626 -0.4585 -0.1460  1.0665
13943TIP3    H263245   2.093   5.022  10.588 -0.1026  0.7943  0.5929
13944TIP3   OH263246   1.788   2.122  13.570  0.1246 -0.3262 -0.4324
13944TIP3    H163247   1.800   2.135  13.664  3.5669 -0.0911 -0.7651
13944TIP3    H263248   1.710   2.173  13.548 -2.7105 -2.9124  2.6884
13945TIP3   OH263249   5.643   2.113   1.612  0.1931 -0.4777  0.1513
13945TIP3    H163250   5.710   2.171   1.577  0.3380 -0.1302  0.9760
13945TIP3    H263251   5.690   2.034   1.638  0.4152  0.0002  1.2996
13946TIP3   OH263252   4.303   0.759   2.905  0.2142  0.2865 -0.0728
13946TIP3    H163253   4.236   0.693   2.922 -0.6526  1.5411  1.5694
13946TIP3    H263254   4.385   0.710   2.907 -0.5760 -1.3109 -2.3227
13947TIP3   OH263255   4.062   3.175   4.770  0.7432  0.4628  0.0225
13947TIP3    H163256   4.050   3.106   4.835  0.2899 -0.1266 -0.6780
13947TIP3    H263257   4.155   3.198   4.776  1.2119 -1.1746 -0.6951
13948TIP3   OH263258   0.106   3.147   3.923 -0.3227  0.5490  0.1508
13948TIP3    H163259   0.131   3.057   3.902 -1.9634  0.0395  0.2838
13948TIP3    H263260   0.058   3.141   4.005  0.2606  1.6810  0.6097
13949TIP3   OH263261   4.031   2.098  15.783  0.0574  0.0971 -0.6295
13949TIP3    H163262   4.038   2.073  15.691  0.7823  0.7186 -0.7559
13949TIP3    H263263   4.122   2.109  15.812 -0.1756  0.2988  0.0487
13950TIP3   OH263264   0.290   2.835  13.429 -0.1203 -0.7605 -0.7871
13950TIP3    H163265   0.360   2.778  13.459  1.2725  2.0330  1.8469
13950TIP3    H263266   0.334   2.915  13.399 -2.0791  0.5554 -0.3695
13951TIP3   OH263267   6.008   1.302  13.036  0.3642  0.0925 -1.1288
13951TIP3    H163268   6.097   1.328  13.011  0.4090 -0.4519 -1.5726
13951TIP3    H263269   5.957   1.383  13.033  0.5148  0.1711 -2.4211
13952TIP3   OH263270   2.692   3.012   0.321 -0.0161  0.3612  0.4718
13952TIP3    H163271   2.655   3.081   0.377 -2.9247 -1.2918  0.7531
13952TIP3    H263272   2.687   3.049   0.232 -2.4975  0.2418  0.4919
13953TIP3   OH263273   4.644   5.971  11.282  0.1032 -0.2328 -0.1014
13953TIP3    H163274   4.576   5.997  11.221  0.1062  0.5013  0.2042
13953TIP3    H263275   4.597   5.925  11.352  0.1390 -1.4166 -0.8183
13954TIP3   OH263276   5.705   2.179   0.187 -0.4712  0.2140 -0.6413
13954TIP3    H163277   5.665   2.121   0.122 -1.7183 -0.0378  0.3168
13954TIP3    H263278   5.787   2.136   0.210 -1.0197 -0.7996 -0.5065
13955TIP3   OH263279   3.698   0.773   5.495  0.1029 -0.0611 -0.1571
13955TIP3    H163280   3.698   0.775   5.591 -0.2927  2.4878 -0.1312
13955TIP3    H263281   3.735   0.688   5.472 -0.8411 -1.2011  2.2384
13956TIP3   OH263282   5.960   1.634  11.616 -0.2482 -0.3137  0.8907
13956TIP3    H163283   6.037   1.689  11.629 -1.3235  1.2899  0.6712
13956TIP3    H263284   5.930   1.615  11.705 -1.1981  1.4092  0.9670
13957TIP3   OH263285   0.321   0.943  16.046 -0.1659  0.2027 -1.0142
13957TIP3    H163286   0.310   1.028  16.089  0.5058 -0.5923  0.8511
13957TIP3    H263287   0.250   0.889  16.081  0.4538 -0.4895 -0.7812
13958TIP3   OH263288   1.640   5.763   5.118  0.1132  0.0117  0.4230
13958TIP3    H163289   1.701   5.704   5.163 -0.0471 -0.0517  0.5642
13958TIP3    H263290   1.671   5.851   5.138  1.8322 -0.0019 -1.8360
13959TIP3   OH263291   0.735   1.859  11.087  0.4471 -0.6430  0.0951
13959TIP3    H163292   0.792   1.888  11.015 -0.1905  0.4398 -0.0029
13959TIP3    H263293   0.671   1.802  11.045 -0.6844  0.9673 -0.4745
13960TIP3   OH263294   3.038   0.538  11.672 -0.7284 -0.5156 -0.0506
13960TIP3    H163295   3.050   0.479  11.746  3.6848  0.0995 -0.0217
13960TIP3    H263296   3.124   0.543  11.631 -1.9153  2.6792 -2.5858
13961TIP3   OH263297   4.269   1.405  15.628 -0.4861 -0.8479  0.0331
13961TIP3    H163298   4.280   1.401  15.533  0.0601 -1.6225  0.1216
13961TIP3    H263299   4.314   1.485  15.654 -1.3664 -0.1753 -0.4463
13962TIP3   OH263300   5.194   2.614   1.280  0.4961 -0.2334 -0.4332
13962TIP3    H163301   5.273   2.562   1.269  0.5273 -0.0267 -1.2045
13962TIP3    H263302   5.123   2.550   1.274  0.6178 -1.0125  3.5661
13963TIP3   OH263303   5.076   0.664   3.722  0.2331 -0.2715 -0.1065
13963TIP3    H163304   5.142   0.733   3.718  0.1764 -0.1182  1.3897
13963TIP3    H263305   5.107   0.604   3.790 -0.9876 -0.3926  0.3695
13964TIP3   OH263306   5.562   1.637  14.990 -0.0803 -0.2318 -0.0707
13964TIP3    H163307   5.653   1.609  15.003  0.2774  1.0936  0.4589
13964TIP3    H263308   5.510   1.572  15.037  0.5380 -1.3970 -0.9585
13965TIP3   OH263309   3.430   5.387  12.683 -0.2957  0.2976  0.0325
13965TIP3    H163310   3.356   5.354  12.734  1.8040 -0.1686  3.0733
13965TIP3    H263311   3.455   5.468  12.727  0.1279  1.2850 -1.8968
13966TIP3   OH263312   3.332   2.943   5.600  0.1420  0.6284  0.2328
13966TIP3    H163313   3.289   2.967   5.518 -2.2930 -0.0768  1.2068
13966TIP3    H263314   3.314   3.016   5.659 -0.1223  0.1332  0.7800
13967TIP3   OH263315   3.896   2.470   6.030  0.4529  0.2489  0.7844
13967TIP3    H163316   3.837   2.430   6.094 -1.1390  1.0222 -0.1398
13967TIP3    H263317   3.984   2.450   6.063 -0.3016 -0.9663  2.1951
13968TIP3   OH263318   4.697   5.677   1.009 -0.4215  0.0546  0.0887
13968TIP3    H163319   4.636   5.665   0.936  0.3852 -0.7743 -0.4582
13968TIP3    H263320   4.645   5.657   1.087 -0.4718 -2.2861 -0.4655
13969TIP3   OH263321   6.221   0.126   2.735  0.0149 -0.6004  0.1247
13969TIP3    H163322   6.232   0.098   2.644 -3.4546 -0.8380 -0.3854
13969TIP3    H263323   6.137   0.088   2.761  0.2091  0.6747  2.9634
13970TIP3   OH263324   3.493   4.320   0.579 -0.2853  0.2589  0.1121
13970TIP3    H163325   3.586   4.322   0.559 -0.3456 -0.8405 -0.3451
13970TIP3    H263326   3.486   4.268   0.659 -0.4534  0.9029  0.5223
13971TIP3   OH263327   5.196   2.475  16.203 -0.2641  0.7106  0.1696
13971TIP3    H163328   5.103   2.484  16.225  0.3225  3.2347  1.9977
13971TIP3    H263329   5.216   2.554  16.153  0.7967 -0.1060 -0.7366
13972TIP3   OH263330   6.118   3.069  15.010 -0.0321  0.5053  0.5679
13972TIP3    H163331   6.089   2.990  14.964  2.8947 -0.9398  0.9315
13972TIP3    H263332   6.103   3.049  15.103  0.3827  0.4810  0.6340
13973TIP3   OH263333   2.729   0.527  13.848  0.2317  0.1405 -0.0877
13973TIP3    H163334   2.755   0.588  13.916  1.1548  0.6504 -0.8641
13973TIP3    H263335   2.805   0.521  13.790 -0.2198 -0.9303 -0.6127
13974TIP3   OH263336   5.304   0.702  13.696 -0.4877  0.3098  0.2008
13974TIP3    H163337   5.252   0.696  13.777 -2.0671  0.7243 -0.7258
13974TIP3    H263338   5.238   0.709  13.626  0.7642 -2.1657 -1.3500
13975TIP3   OH263339   6.491   2.249  17.244  0.4424 -0.3854  0.3478
13975TIP3    H163340   6.458   2.256  17.154  0.9849  3.3065  0.2840
13975TIP3    H263341   6.584   2.230  17.234 -0.0357 -3.1459  0.3302
13976TIP3   OH263342   4.225   5.310   6.190  0.0629 -0.3164  0.3226
13976TIP3    H163343   4.300   5.253   6.207  1.0572  0.5359 -1.0050
13976TIP3    H263344   4.150   5.259   6.218  1.1457 -1.0966  1.9561
13977TIP3   OH263345   5.669   1.890  12.438 -0.0725  0.1762 -0.6976
13977TIP3    H163346   5.708   1.811  12.475 -0.5781 -0.8006 -2.1714
13977TIP3    H263347   5.742   1.935  12.395  0.2957  0.7384  0.4950
13978TIP3   OH263348   6.501   3.752  16.526  0.4044  0.2489  0.2967
13978TIP3    H163349   6.581   3.713  16.491  0.2042 -0.0613  0.1769
13978TIP3    H263350   6.458   3.680  16.572  1.1844  0.8871  2.1410
13979TIP3   OH263351   0.282   6.666  16.607  0.2542 -0.6482  0.8060
13979TIP3    H163352   0.371   6.658  16.573  0.8619  0.9753  1.9132
13979TIP3    H263353   0.293   6.688  16.699 -1.3132 -1.0379  1.1177
13980TIP3   OH263354   6.641   2.456  14.269 -0.6609  0.0341  0.1970
13980TIP3    H163355   6.578   2.523  14.243  1.5618  1.6859 -1.3238
13980TIP3    H263356   6.690   2.494  14.342  2.6626  1.6063 -2.5737
13981TIP3   OH263357   0.408   2.306   5.152 -0.0444 -0.0944  0.1167
13981TIP3    H163358   0.422   2.303   5.246  0.4930 -1.2430  0.0207
13981TIP3    H263359   0.487   2.265   5.115 -0.7888 -0.7706 -0.7602
13982TIP3   OH263360   2.918   5.264  12.477 -0.5059  0.1213  0.5375
13982TIP3    H163361   2.955   5.182  12.510  0.0240 -0.5574 -1.5733
13982TIP3    H263362   2.841   5.237  12.427  0.5774  0.6766 -1.5419
13983TIP3   OH263363   4.486   4.536  16.314 -0.2161 -0.0536 -0.0894
13983TIP3    H163364   4.453   4.459  16.361 -0.8412  0.2479 -0.0135
13983TIP3    H263365   4.566   4.506  16.271 -0.7045 -0.8812 -0.4559
13984TIP3   OH263366   4.789   3.076   4.855  0.3100 -0.1689  0.2955
13984TIP3    H163367   4.837   3.015   4.800 -1.9636 -1.0581 -0.8300
13984TIP3    H263368   4.857   3.124   4.903  2.2417 -1.8759 -0.5842
13985TIP3   OH263369   3.472   2.280   0.716  0.0049  0.4658 -0.7080
13985TIP3    H163370   3.535   2.348   0.740 -1.5078  1.7637 -0.2365
13985TIP3    H263371   3.497   2.254   0.628  1.9919 -0.0234 -0.0519
13986TIP3   OH263372   1.766   2.210   4.878  0.5353  0.1586 -0.5120
13986TIP3    H163373   1.712   2.152   4.824 -0.9264  2.0347 -1.1796
13986TIP3    H263374   1.840   2.233   4.821  0.4145  0.0000 -0.7345
13987TIP3   OH263375   1.045   2.615  12.726 -0.4876 -0.5810  0.5271
13987TIP3    H163376   1.025   2.598  12.634 -0.8114 -0.3609  0.5553
13987TIP3    H263377   1.055   2.710  12.731 -2.5337 -0.3655  1.1133
13988TIP3   OH263378   4.732   4.792  11.779  0.0701  0.4670  0.6760
13988TIP3    H163379   4.714   4.717  11.723  0.4124  0.4830  0.5439
13988TIP3    H263380   4.811   4.831  11.743 -0.7919  1.6322 -0.0336
13989TIP3   OH263381   0.744   4.864   5.703 -0.1625 -0.0194 -0.1983
13989TIP3    H163382   0.735   4.886   5.610  1.9201  1.0878 -0.2159
13989TIP3    H263383   0.660   4.887   5.742 -1.0848 -0.5263 -1.7938
13990TIP3   OH263384   5.820   2.651   5.768 -0.1767 -0.1620  0.1752
13990TIP3    H163385   5.870   2.728   5.743  1.2416 -0.7612  1.0258
13990TIP3    H263386   5.800   2.664   5.860 -2.1020  0.3006 -0.2570
13991TIP3   OH263387   2.150   1.329  16.928 -0.2434 -0.1881  0.0639
13991TIP3    H163388   2.066   1.313  16.886 -0.3158  3.4557 -1.6066
13991TIP3    H263389   2.131   1.387  17.001  0.7046  0.0246  0.1642
13992TIP3   OH263390   0.257   4.221   1.418 -0.5940  0.2051  0.4511
13992TIP3    H163391   0.283   4.306   1.454 -1.6483  0.0686  1.6044
13992TIP3    H263392   0.247   4.237   1.324 -0.5953  1.3104  0.6251
13993TIP3   OH263393   1.836   3.834  17.004 -0.5975 -0.0590  0.1555
13993TIP3    H163394   1.924   3.804  16.983 -0.2394  2.4547 -2.6880
13993TIP3    H263395   1.778   3.769  16.965 -0.0011 -0.6168  0.1808
13994TIP3   OH263396   4.236   3.992  15.848 -0.0934 -0.1792  0.4473
13994TIP3    H163397   4.193   3.961  15.928 -0.2603 -2.1910 -0.3836
13994TIP3    H263398   4.174   4.055  15.811 -0.9957 -0.8628  0.7722
13995TIP3   OH263399   2.665   0.389   6.278 -0.2692  0.1869  0.3119
13995TIP3    H163400   2.589   0.345   6.316 -2.0538  2.0028 -0.9478
13995TIP3    H263401   2.661   0.478   6.314  1.3291  0.2908  0.2876
13996TIP3   OH263402   3.858   0.765   4.542 -0.3368  0.3828 -0.4351
13996TIP3    H163403   3.790   0.738   4.604  0.0232 -1.1628 -0.6647
13996TIP3    H263404   3.838   0.717   4.462 -0.0175  1.3208 -1.0971
13997TIP3   OH263405   3.438   3.870   5.717 -0.0953 -0.3369 -0.1223
13997TIP3    H163406   3.354   3.866   5.764  0.5715  0.5615  1.2238
13997TIP3    H263407   3.417   3.915   5.635 -0.9550 -0.1988  0.1551
13998TIP3   OH263408   4.767   5.276   6.079 -0.3262  0.0895 -0.1453
13998TIP3    H163409   4.821   5.213   6.126  0.6140  0.8336 -0.1986
13998TIP3    H263410   4.822   5.354   6.073 -1.5618  1.0135  0.1716
13999TIP3   OH263411   1.767   2.924  15.996 -0.0904 -0.5052  0.1568
13999TIP3    H163412   1.804   2.893  15.914 -0.6421  1.8494 -1.0458
13999TIP3    H263413   1.843   2.950  16.048  0.1727  0.5904 -0.7364
14000TIP3   OH263414   4.823   4.090   6.392 -0.2773  0.4928  0.6670
14000TIP3    H163415   4.819   4.176   6.350 -1.6352  0.4923  0.7615
14000TIP3    H263416   4.733   4.071   6.418  0.6207  1.0118  4.6838
14001TIP3   OH263417   5.369   1.175   1.728  0.4041  0.0168 -0.3289
14001TIP3    H163418   5.313   1.120   1.673 -1.1613  0.2067  0.9701
14001TIP3    H263419   5.368   1.261   1.686 -0.7298  0.1461 -0.0888
14002TIP3   OH263420   2.015   2.978   1.331 -0.2346  0.1326  0.2442
14002TIP3    H163421   2.085   2.914   1.318 -0.6753 -0.7029  1.7775
14002TIP3    H263422   1.992   3.006   1.242  1.5608 -0.0666 -0.3276
14003TIP3   OH263423   5.143   6.458  16.168 -0.2988  0.0034 -0.1152
14003TIP3    H163424   5.173   6.371  16.191 -0.2977 -0.5315 -1.9451
14003TIP3    H263425   5.116   6.498  16.251  3.6410 -0.1246  1.4438
14004TIP3   OH263426   3.228   1.686  11.953  0.0140  0.3609 -0.4176
14004TIP3    H163427   3.264   1.671  11.866  0.6963 -1.5177  0.1381
14004TIP3    H263428   3.174   1.610  11.970  0.7383  0.1670  1.2091
14005TIP3   OH263429   0.783   2.886   2.037 -0.1819 -0.4459  0.0442
14005TIP3    H163430   0.748   2.940   1.966 -1.1207 -0.0344  0.7848
14005TIP3    H263431   0.771   2.796   2.007  1.1760 -0.2713 -1.0990
14006TIP3   OH263432   0.392   3.379  16.241 -0.4763 -0.7794  0.2760
14006TIP3    H163433   0.324   3.423  16.292 -1.6111 -0.9371 -1.0551
14006TIP3    H263434   0.432   3.448  16.189 -0.5004 -0.8891  0.1097
14007TIP3   OH263435   1.836   2.398  12.229 -0.4371 -0.0926  0.0020
14007TIP3    H163436   1.760   2.433  12.275 -1.2439 -0.9892 -0.5931
14007TIP3    H263437   1.836   2.305  12.252 -0.0296 -0.2665 -0.6889
14008TIP3   OH263438   1.414   0.252   1.958  0.0813 -0.2773  0.0617
14008TIP3    H163439   1.339   0.221   2.009  1.1817 -0.2728  1.7590
14008TIP3    H263440   1.486   0.259   2.021  0.8633  2.2446 -0.9511
14009TIP3   OH263441   5.437   2.393  14.269  0.0122 -0.4039 -0.2954
14009TIP3    H163442   5.467   2.303  14.261 -1.6856 -0.9650 -0.7349
14009TIP3    H263443   5.489   2.429  14.341  1.3895 -1.4145 -0.7436
14010TIP3   OH263444   2.618   6.126  15.329 -0.3424 -0.0653 -0.4067
14010TIP3    H163445   2.550   6.074  15.286  0.4934 -2.2884  0.7778
14010TIP3    H263446   2.698   6.107  15.279 -0.2823  1.2995 -0.8569
14011TIP3   OH263447   2.281   4.687   6.262 -0.3790 -0.2440 -0.6643
14011TIP3    H163448   2.337   4.647   6.328  0.8987  0.1983 -1.4463
14011TIP3    H263449   2.291   4.631   6.185  0.0636  0.5849 -1.2248
14012TIP3   OH263450   0.257   5.519   4.977 -0.2881 -0.0007  0.0999
14012TIP3    H163451   0.223   5.503   4.889  0.1685 -1.3714  0.1605
14012TIP3    H263452   0.325   5.586   4.965 -0.6762  0.2861 -0.4919
14013TIP3   OH263453   5.571   4.052  17.107 -0.5512  0.5855 -0.3130
14013TIP3    H163454   5.650   4.093  17.071 -1.1301  1.2237 -0.8993
14013TIP3    H263455   5.596   4.027  17.196 -0.1278  2.1461  0.0417
14014TIP3   OH263456   0.247   0.979  12.959 -0.3013  0.2832 -0.0165
14014TIP3    H163457   0.258   1.073  12.945 -0.4379  0.2264 -0.4897
14014TIP3    H263458   0.152   0.965  12.955 -0.4350  0.4016  1.7922
14015TIP3   OH263459   3.929   2.623  12.353 -0.4573  0.1120 -0.0916
14015TIP3    H163460   3.979   2.668  12.285  1.3627  1.3106  1.9212
14015TIP3    H263461   3.928   2.531  12.324  1.6718  0.2927 -0.9772
14016TIP3   OH263462   5.451   1.885   2.531 -0.0897  0.6451 -0.3092
14016TIP3    H163463   5.422   1.803   2.489  2.5521 -0.5170 -0.0907
14016TIP3    H263464   5.407   1.886   2.615 -1.7636  0.5511 -1.1391
14017TIP3   OH263465   6.200   4.771   0.701  1.0359  0.1436  0.8999
14017TIP3    H163466   6.258   4.697   0.686 -0.1457 -0.6350  0.0446
14017TIP3    H263467   6.129   4.760   0.638  0.7944  1.9784  0.7805
14018TIP3   OH263468   5.280   0.619   5.189  0.2329 -0.1116 -0.1260
14018TIP3    H163469   5.191   0.654   5.183  0.7274  1.1169 -0.5628
14018TIP3    H263470   5.333   0.680   5.138  1.5675  0.0325  1.3579
14019TIP3   OH263471   4.503   0.119   4.404  0.4562 -0.3394  0.7367
14019TIP3    H163472   4.412   0.145   4.417  0.6725  1.4654 -0.9439
14019TIP3    H263473   4.532   0.167   4.327  2.4902 -1.8199  0.4683
14020TIP3   OH263474   5.099   6.639   5.890  0.2911  0.2543  0.1325
14020TIP3    H163475   5.082   6.732   5.872  0.3169  0.0657 -0.9105
14020TIP3    H263476   5.168   6.615   5.828 -0.6201 -0.7996 -0.4954
14021TIP3   OH263477   5.881   6.736  15.706  0.1004  0.3820  0.2057
14021TIP3    H163478   5.811   6.769  15.649 -0.0471 -1.4228 -0.7090
14021TIP3    H263479   5.941   6.811  15.715 -0.8669  1.3051 -0.7170
14022TIP3   OH263480   5.469   5.691   4.285  0.3038  0.1538  0.6494
14022TIP3    H163481   5.537   5.659   4.344  0.8346 -0.8428 -0.4557
14022TIP3    H263482   5.517   5.731   4.213 -0.3096  0.3265  0.3331
14023TIP3   OH263483   4.655   0.771  15.315 -0.4754  0.2847  0.4475
14023TIP3    H163484   4.686   0.826  15.387  0.2915  1.1232 -0.5056
14023TIP3    H263485   4.642   0.685  15.356 -1.9857  1.1892  2.0344
14024TIP3   OH263486   2.985   5.327   6.077 -0.0174 -0.3343 -0.3806
14024TIP3    H163487   3.048   5.374   6.022 -1.4175  2.5823  0.2854
14024TIP3    H263488   2.907   5.320   6.022 -0.6392  0.4448  0.3674
14025TIP3   OH263489   2.019   0.900  15.635  0.1138  0.0737  1.1012
14025TIP3    H163490   2.048   0.991  15.630 -0.0724  0.0650 -0.7804
14025TIP3    H263491   1.936   0.904  15.683 -0.4645  1.0582  0.0740
14026TIP3   OH263492   4.159   1.422  15.362 -0.0101  0.2683  0.3664
14026TIP3    H163493   4.122   1.509  15.375 -1.2409  0.0253 -1.2146
14026TIP3    H263494   4.154   1.407  15.268  0.4928 -1.3832  0.5636
14027TIP3   OH263495   3.541   1.083   6.196  0.7701  0.1013  0.5671
14027TIP3    H163496   3.459   1.075   6.244  1.1563  2.3866  1.7456
14027TIP3    H263497   3.609   1.080   6.263  1.5637 -0.2166 -0.2268
14028TIP3   OH263498   4.693   5.812   3.252  0.2675  0.0761 -0.9703
14028TIP3    H163499   4.768   5.754   3.268 -0.1736 -0.7578 -1.8171
14028TIP3    H263500   4.633   5.760   3.198 -1.1026  0.5917  0.0014
14029TIP3   OH263501   0.996   6.610  16.095 -0.0717 -0.0955 -0.0602
14029TIP3    H163502   0.974   6.703  16.102  1.0244  0.2630 -0.9406
14029TIP3    H263503   0.928   6.565  16.145 -3.0162  0.8543 -2.8918
14030TIP3   OH263504   2.468   3.021   1.167  0.3022  0.3462 -0.0878
14030TIP3    H163505   2.456   3.059   1.253  0.4996 -0.4616  0.3122
14030TIP3    H263506   2.413   3.072   1.109  0.7967  1.4217  0.3678
14031TIP3   OH263507   5.193   1.182  14.289  0.3155 -0.3840  0.5041
14031TIP3    H163508   5.286   1.161  14.287  0.5604  0.6562 -0.6730
14031TIP3    H263509   5.190   1.278  14.292 -0.7196 -0.3987  0.5145
14032TIP3   OH263510   0.698   0.015  15.497 -0.1134  0.3447 -0.0037
14032TIP3    H163511   0.662  -0.055  15.552  1.2089 -1.0297 -0.8192
14032TIP3    H263512   0.774   0.047  15.545  0.2182  0.1086 -0.3661
14033TIP3   OH263513   1.284   0.463   0.620  0.6018 -0.2508  0.1330
14033TIP3    H163514   1.358   0.453   0.680  0.6618 -0.6724 -0.0093
14033TIP3    H263515   1.256   0.554   0.631  0.0862 -0.5374  1.4187
14034TIP3   OH263516   3.003   1.654  16.012 -0.3897  0.3074 -0.7907
14034TIP3    H163517   2.969   1.657  16.101  0.1175 -1.6552 -0.4840
14034TIP3    H263518   3.074   1.718  16.010 -0.6823  0.6554  0.1019
14035TIP3   OH263519   3.545   2.864  11.147  0.0321 -0.2988 -0.3610
14035TIP3    H163520   3.597   2.784  11.139  0.5989 -0.0855  1.0151
14035TIP3    H263521   3.555   2.907  11.062  0.7868 -1.0479 -0.6667
14036TIP3   OH263522   5.464   1.700   5.146  0.3330  0.5721  0.0451
14036TIP3    H163523   5.423   1.637   5.086  0.4603 -0.0389  0.5829
14036TIP3    H263524   5.400   1.710   5.217  1.4057 -1.0512  1.3356
14037TIP3   OH263525   1.283   0.078   5.600  0.1382 -0.1687 -0.7054
14037TIP3    H163526   1.298   0.016   5.528  1.5933 -2.6833  1.5890
14037TIP3    H263527   1.358   0.137   5.596  0.7173 -0.8841 -0.7203
14038TIP3   OH263528   0.212   2.690  11.603  0.0591 -0.1285 -0.6199
14038TIP3    H163529   0.153   2.668  11.531 -0.5233 -0.5034 -0.0456
14038TIP3    H263530   0.207   2.615  11.662  1.1187 -0.1624 -0.5561
14039TIP3   OH263531   2.085   4.386   2.525 -0.7063 -0.3401 -0.0025
14039TIP3    H163532   2.015   4.437   2.483  0.2167  2.1841  1.3043
14039TIP3    H263533   2.067   4.394   2.619  2.0779  1.6683  0.4580
14040TIP3   OH263534   1.915   6.573  13.846 -0.8322 -0.4029  0.1299
14040TIP3    H163535   1.913   6.663  13.876  1.8287  0.3576 -1.6053
14040TIP3    H263536   1.836   6.563  13.792 -1.8772  0.3960  1.4571
14041TIP3   OH263537   1.358   6.192  10.798 -0.7054  0.0414  0.1104
14041TIP3    H163538   1.363   6.287  10.789 -0.5142 -0.1108 -1.7789
14041TIP3    H263539   1.448   6.165  10.819 -0.9093  0.3186  1.4162
14042TIP3   OH263540   1.441   2.746   6.820 -0.0058 -0.1013  0.1861
14042TIP3    H163541   1.521   2.797   6.837 -0.0696  1.0986 -2.6347
14042TIP3    H263542   1.444   2.727   6.727 -3.2342  0.3855 -0.1199
14043TIP3   OH263543   2.302   5.769  10.801  0.5237  0.5936  0.7538
14043TIP3    H163544   2.256   5.844  10.838  2.6893  1.2319  2.3921
14043TIP3    H263545   2.393   5.781  10.829  1.4211 -1.3510 -1.0519
14044TIP3   OH263546   1.665   0.387   5.245 -0.0711 -0.2444  0.5720
14044TIP3    H163547   1.744   0.350   5.284 -1.3746 -2.5403  1.2196
14044TIP3    H263548   1.630   0.445   5.312  0.8685  0.5310  0.4090
14045TIP3   OH263549   0.498   3.446   5.324  0.0487  0.4578  0.2119
14045TIP3    H163550   0.569   3.427   5.263  1.6055  0.2855  2.0049
14045TIP3    H263551   0.531   3.519   5.377  0.0438 -1.3252  2.8269
14046TIP3   OH263552   6.539   4.423   1.996  0.1501 -0.3972  0.0475
14046TIP3    H163553   6.524   4.501   2.049  0.5878  0.0456 -0.4674
14046TIP3    H263554   6.528   4.350   2.057 -0.9287  0.0238  0.3902
14047TIP3   OH263555   4.881   1.074   5.194  0.2553  0.3459 -0.2079
14047TIP3    H163556   4.834   1.077   5.110  0.4892  1.6089 -0.3110
14047TIP3    H263557   4.817   1.039   5.256  0.5508 -2.1389 -1.1743
14048TIP3   OH263558   1.115   2.210   4.500  0.4943 -0.3536 -0.0180
14048TIP3    H163559   1.080   2.285   4.451 -0.5898 -1.7036 -1.3844
14048TIP3    H263560   1.206   2.205   4.474  0.0021 -0.8785 -1.7225
14049TIP3   OH263561   2.715   0.713   1.054  0.2561 -0.0542  0.2797
14049TIP3    H163562   2.792   0.690   1.002 -0.1010  0.5052 -0.5093
14049TIP3    H263563   2.640   0.691   0.998 -0.1264  1.2419  0.2394
14050TIP3   OH263564   1.150   0.728   4.169  0.3406 -0.0834 -0.0592
14050TIP3    H163565   1.184   0.816   4.185  0.9016 -0.3725  0.3545
14050TIP3    H263566   1.187   0.704   4.083 -0.2755  0.3014 -0.4397
14051TIP3   OH263567   3.494   5.031   4.409 -0.8541  0.2749 -0.2887
14051TIP3    H163568   3.544   5.080   4.474 -0.7703  0.0829 -0.2110
14051TIP3    H263569   3.402   5.050   4.430 -1.1193 -3.2476  2.6849
14052TIP3   OH263570   1.611   1.742  11.308 -0.1633  0.0532  0.6271
14052TIP3    H163571   1.645   1.780  11.389  1.1103  1.3953 -0.4747
14052TIP3    H263572   1.689   1.723  11.256 -0.9773  0.2690 -0.7242
14053TIP3   OH263573   4.043   4.128   2.540 -0.2609  0.4976 -0.1766
14053TIP3    H163574   3.950   4.112   2.523 -0.0854 -0.9144  0.0426
14053TIP3    H263575   4.061   4.081   2.622  0.5056  1.2877  0.1285
14054TIP3   OH263576   4.278   5.374  12.317  0.2302 -0.5196  0.4504
14054TIP3    H163577   4.354   5.399  12.370  1.0842 -0.0664 -0.9325
14054TIP3    H263578   4.275   5.438  12.247 -2.1686  0.1896  1.0911
14055TIP3   OH263579   1.886   4.508   1.196  0.0340 -0.2534 -0.5398
14055TIP3    H163580   1.956   4.445   1.178 -0.2292 -0.8266  0.3690
14055TIP3    H263581   1.809   4.454   1.212 -0.1422  0.2893  0.5029
14056TIP3   OH263582   5.130   2.441  12.537 -0.3818  0.4602  0.4541
14056TIP3    H163583   5.171   2.354  12.538  0.1111  0.6875  0.1822
14056TIP3    H263584   5.038   2.424  12.558 -0.3575 -0.1663  0.0939
14057TIP3   OH263585   5.679   6.250   2.980  0.1928 -0.2983 -0.1100
14057TIP3    H163586   5.681   6.246   2.884 -0.6105  0.9884 -0.2021
14057TIP3    H263587   5.765   6.286   3.004  0.0567  0.2503 -0.4216
14058TIP3   OH263588   6.632   4.370  13.057 -0.2774 -0.5776 -0.2574
14058TIP3    H163589   6.609   4.360  12.965  0.6383 -0.6891 -0.4762
14058TIP3    H263590   6.625   4.282  13.093 -0.4461 -0.5668 -0.2632
14059TIP3   OH263591   5.539   1.249   1.133  0.0740  0.0108 -0.3984
14059TIP3    H163592   5.511   1.167   1.092 -1.1327  0.0901  0.2107
14059TIP3    H263593   5.469   1.310   1.113  0.7377  0.7748 -0.4344
14060TIP3   OH263594   6.710   0.377  14.184  0.0957  0.0535 -0.1949
14060TIP3    H163595   6.715   0.450  14.122 -0.0211 -0.3302 -0.6596
14060TIP3    H263596   6.668   0.415  14.262  0.7173  0.6650 -0.1510
14061TIP3   OH263597   4.370   1.390   4.459 -0.4756 -0.1762 -0.2928
14061TIP3    H163598   4.285   1.353   4.436  0.1146 -0.5953 -1.8863
14061TIP3    H263599   4.349   1.467   4.512 -2.0220  1.4766 -3.0999
14062TIP3   OH263600   5.459   1.851   3.559 -0.0004  0.0996 -0.7383
14062TIP3    H163601   5.396   1.918   3.587  1.4350  0.0163  3.4322
14062TIP3    H263602   5.541   1.877   3.601  1.2668 -2.8811 -1.1584
14063TIP3   OH263603   4.767   6.424   5.943  0.0499  0.5684 -0.3081
14063TIP3    H163604   4.745   6.381   6.026 -0.3458 -0.3862 -0.8881
14063TIP3    H263605   4.781   6.515   5.966 -2.6223  0.8801  0.4254
14064TIP3   OH263606   4.790   6.023   5.435  0.0975 -0.0143 -0.1449
14064TIP3    H163607   4.787   6.092   5.368  0.8711 -0.1573 -0.3405
14064TIP3    H263608   4.854   5.960   5.401  0.9625  0.2201  1.0081
14065TIP3   OH263609   2.149   5.530  12.394 -0.3883 -0.2891 -0.1284
14065TIP3    H163610   2.183   5.481  12.320  0.7706 -0.4985  0.5221
14065TIP3    H263611   2.215   5.596  12.412 -1.8605  1.4595 -0.8943
14066TIP3   OH263612   0.492   6.250  12.472 -0.0189  0.2327  0.1277
14066TIP3    H163613   0.517   6.226  12.383 -1.1283 -0.2517 -0.0684
14066TIP3    H263614   0.548   6.325  12.493 -1.4191  1.9569 -1.8992
14067TIP3   OH263615   1.718   1.918  16.610  0.0587 -0.4138  0.5235
14067TIP3    H163616   1.761   1.845  16.568  0.8636 -0.2753  1.0854
14067TIP3    H263617   1.688   1.974  16.538 -1.0616 -1.5399  0.0649
14068TIP3   OH263618   1.527   4.510   5.731  0.3338 -0.2596  0.3749
14068TIP3    H163619   1.447   4.547   5.692  0.2556  0.0600  0.8343
14068TIP3    H263620   1.520   4.531   5.824  1.0007 -0.1484  0.4014
14069TIP3   OH263621   6.480   5.237   2.088  0.6631 -0.6089  0.3320
14069TIP3    H163622   6.413   5.302   2.109 -1.7475 -2.5917 -0.7345
14069TIP3    H263623   6.490   5.242   1.993  0.7076 -1.5267  0.2794
14070TIP3   OH263624   1.380   6.302   3.524 -0.2226 -0.3679  0.0447
14070TIP3    H163625   1.401   6.273   3.435 -1.3887 -0.0476 -0.3430
14070TIP3    H263626   1.465   6.300   3.570  1.1297  2.8168 -1.9649
14071TIP3   OH263627   2.152   2.151   1.625  0.2971 -0.0970 -1.0358
14071TIP3    H163628   2.139   2.060   1.650 -2.1083  0.3656 -0.3751
14071TIP3    H263629   2.163   2.198   1.708 -0.5768  0.4782 -1.2313
14072TIP3   OH263630   1.522   5.946  17.182 -0.0319 -0.3530 -0.2746
14072TIP3    H163631   1.457   5.896  17.231  0.4921  0.2524  1.1149
14072TIP3    H263632   1.606   5.906  17.206  0.4537  1.4540  1.3156
14073TIP3   OH263633   1.972   3.252   1.588  0.3419 -0.4337  0.2247
14073TIP3    H163634   1.916   3.291   1.654  2.1846  2.3093  0.3445
14073TIP3    H263635   2.050   3.223   1.636  0.6178 -0.7654 -0.4028
14074TIP3   OH263636   5.289   4.665  15.801  0.2659 -0.1879 -0.2692
14074TIP3    H163637   5.348   4.718  15.747 -1.2154  0.7767 -1.0157
14074TIP3    H263638   5.325   4.671  15.890  1.6306 -0.1787 -0.7891
14075TIP3   OH263639   0.246   5.434  13.209 -0.1317 -0.1834  0.1198
14075TIP3    H163640   0.222   5.526  13.196  0.5247 -0.0673 -0.3128
14075TIP3    H263641   0.275   5.405  13.123  0.4577 -0.5580  0.4420
14076TIP3   OH263642   6.497   0.121  13.979  0.1109 -0.1363  0.0418
14076TIP3    H163643   6.445   0.197  14.006 -0.3194 -0.0894 -0.8675
14076TIP3    H263644   6.442   0.046  13.997  0.8851 -0.3306  1.7763
14077TIP3   OH263645   6.443   6.143  16.620  0.4038 -0.4417 -0.1159
14077TIP3    H163646   6.410   6.217  16.671 -0.6770  0.1612 -1.6465
14077TIP3    H263647   6.517   6.110  16.672 -1.6534 -0.9716  2.7366
14078TIP3   OH263648   5.188   2.506  14.844 -0.2096  0.3586  0.3470
14078TIP3    H163649   5.263   2.466  14.800  0.9932  1.6464  1.1422
14078TIP3    H263650   5.158   2.439  14.906  0.7465  0.0824  0.5288
14079TIP3   OH263651   2.923   0.558  12.481 -0.2797  0.0291  0.5168
14079TIP3    H163652   2.866   0.516  12.544 -2.0213 -0.6394 -1.3778
14079TIP3    H263653   2.925   0.650  12.509 -0.3496 -0.3872  1.9646
14080TIP3   OH263654   4.088   1.483  13.948  0.4715  0.0944 -0.1295
14080TIP3    H163655   4.094   1.397  13.906  0.1480  0.2126 -0.4254
14080TIP3    H263656   4.175   1.520  13.938  0.0795  0.6506 -1.8770
14081TIP3   OH263657   0.351   5.837   3.469 -0.0037 -1.1450  0.9272
14081TIP3    H163658   0.411   5.908   3.489 -0.9616 -0.1923  0.4784
14081TIP3    H263659   0.349   5.785   3.550  0.1001 -0.2234  1.5403
14082TIP3   OH263660   6.026   0.410  12.486  0.4943 -0.1687 -0.1492
14082TIP3    H163661   6.120   0.400  12.502  0.5843 -0.4872 -0.8666
14082TIP3    H263662   5.997   0.474  12.552  1.1803 -0.1858  0.1728
14083TIP3   OH263663   2.780   1.929  17.130  0.3393 -0.4256 -0.2681
14083TIP3    H163664   2.842   1.989  17.171 -1.5423  0.5145  1.3952
14083TIP3    H263665   2.791   1.942  17.036 -0.0166  2.6046  0.0270
14084TIP3   OH263666   3.990   3.557  16.826 -0.4464  0.2334 -0.2134
14084TIP3    H163667   4.064   3.572  16.767  0.7972  0.5057  1.3263
14084TIP3    H263668   3.932   3.631  16.811  0.7938  1.3432  0.2194
14085TIP3   OH263669   6.357   5.171   5.835  0.2738 -0.2419  0.0126
14085TIP3    H163670   6.418   5.142   5.902  0.3999  2.6410  1.3141
14085TIP3    H263671   6.277   5.193   5.882 -0.0086  0.8303 -0.9116
14086TIP3   OH263672   3.872   4.313  15.583  0.4850 -0.8638 -0.4258
14086TIP3    H163673   3.950   4.311  15.527  1.8816 -2.6342  1.4331
14086TIP3    H263674   3.894   4.258  15.658 -2.4559 -1.1405  0.3783
14087TIP3   OH263675   6.432   2.698   3.414  0.0912  0.4773  0.2395
14087TIP3    H163676   6.524   2.698   3.440  0.1409 -3.0105  0.5734
14087TIP3    H263677   6.384   2.700   3.497 -0.0221 -0.5537  0.2090
14088TIP3   OH263678   1.104   6.516   2.119  0.1892 -0.1202  0.1114
14088TIP3    H163679   1.041   6.587   2.128  0.5371  0.1231  0.6705
14088TIP3    H263680   1.136   6.501   2.208  3.2673  1.8961 -0.4833
14089TIP3   OH263681   1.231   0.031  14.791 -0.0822  0.2449 -0.2926
14089TIP3    H163682   1.198   0.108  14.745  0.7785  1.0032  0.3160
14089TIP3    H263683   1.305   0.001  14.738 -0.0917  0.1450 -0.2502
14090TIP3   OH263684   5.537   4.034  13.490  0.2915  0.1091  0.1544
14090TIP3    H163685   5.535   4.019  13.396 -1.4225 -1.8158  0.4295
14090TIP3    H263686   5.505   4.124  13.501  1.7380  0.8204 -1.1208
14091TIP3   OH263687   3.668   5.297   2.804 -0.2092  0.3907 -0.0855
14091TIP3    H163688   3.694   5.313   2.894 -0.2255 -1.5935  0.3102
14091TIP3    H263689   3.585   5.344   2.794 -2.1697 -2.2843  2.1529
14092TIP3   OH263690   1.374   3.538  17.258 -0.0403  0.1092 -0.3234
14092TIP3    H163691   1.442   3.478  17.287  0.2922  1.5790  2.1555
14092TIP3    H263692   1.327   3.488  17.191  1.2779 -2.2532  0.3622
14093TIP3   OH263693   4.410   6.502  16.537 -0.1330  0.5955 -0.5511
14093TIP3    H163694   4.495   6.497  16.579 -0.2542 -1.9656 -0.4403
14093TIP3    H263695   4.429   6.530  16.447  0.6421  1.3240 -0.1743
14094TIP3   OH263696   2.854   0.416  15.721 -0.7144 -0.1549  0.4565
14094TIP3    H163697   2.948   0.406  15.737 -0.6722 -1.7945 -0.6224
14094TIP3    H263698   2.829   0.493  15.772  1.8791  2.4960 -1.9371
14095TIP3   OH263699   1.539   2.736  14.022 -0.3997 -0.1749  0.6199
14095TIP3    H163700   1.563   2.828  14.011 -0.1399 -0.4691 -1.7197
14095TIP3    H263701   1.446   2.733  14.002 -0.7569 -0.2405  2.1394
14096TIP3   OH263702   5.030   1.034   4.179  0.6332 -0.0328 -0.2490
14096TIP3    H163703   4.984   0.951   4.186  1.7743 -0.5372  2.1767
14096TIP3    H263704   4.963   1.096   4.148 -1.7633 -0.7366  2.9583
14097TIP3   OH263705   5.775   2.882  12.919 -0.5654 -0.5678  0.2698
14097TIP3    H163706   5.860   2.841  12.937  0.7634  1.6726 -0.4975
14097TIP3    H263707   5.741   2.905  13.005  0.4124  0.0244  0.5063
14098TIP3   OH263708   1.049   5.190  13.492 -0.1927 -0.6390  0.0039
14098TIP3    H163709   0.979   5.255  13.491 -1.6107 -2.0718  0.5220
14098TIP3    H263710   1.022   5.126  13.426  0.7212 -1.1282  0.0979
14099TIP3   OH263711   1.271   1.174   2.989  0.1206  0.1528  0.4706
14099TIP3    H163712   1.338   1.202   2.927 -0.1088 -0.4297 -0.0512
14099TIP3    H263713   1.299   1.087   3.017 -1.4529 -1.0442 -1.3647
14100TIP3   OH263714   0.116   5.109   3.599 -0.1898 -0.6335 -0.0112
14100TIP3    H163715   0.088   5.198   3.621  1.1595 -0.3131  0.5372
14100TIP3    H263716   0.138   5.069   3.684 -1.4684 -1.7499 -0.1766
14101TIP3   OH263717   6.556   3.770   0.094 -0.1504 -0.1215 -0.7587
14101TIP3    H163718   6.471   3.806   0.069 -0.6226 -1.1843 -0.7136
14101TIP3    H263719   6.614   3.846   0.097 -1.2807  0.7395  0.0177
14102TIP3   OH263720   3.639   0.852  11.999 -0.4167 -0.2789 -0.4195
14102TIP3    H163721   3.690   0.830  11.921  0.5176 -0.1819  0.1462
14102TIP3    H263722   3.652   0.946  12.010  1.1637 -0.6102  0.9928
14103TIP3   OH263723   2.292   1.261   5.351  0.2596 -0.1684  0.3129
14103TIP3    H163724   2.325   1.351   5.348 -1.3306  0.4667  0.8979
14103TIP3    H263725   2.262   1.250   5.442 -0.5742 -0.8975 -0.0389
14104TIP3   OH263726   2.449   3.979  16.443 -0.1093  0.0814 -0.4073
14104TIP3    H163727   2.517   3.959  16.379 -0.0652 -0.2682 -0.2563
14104TIP3    H263728   2.369   3.943  16.404 -0.3849  1.3450 -1.0288
14105TIP3   OH263729   1.847   5.158  16.429  0.3695  0.6754 -0.5916
14105TIP3    H163730   1.924   5.101  16.422  1.8077  2.3740  0.6817
14105TIP3    H263731   1.856   5.220  16.356 -0.7617 -0.1529 -1.4812
14106TIP3   OH263732   0.022   3.904  11.549 -0.3619 -0.3904  0.1964
14106TIP3    H163733   0.023   3.893  11.454 -0.7078 -2.5199  0.3918
14106TIP3    H263734  -0.025   3.986  11.562  1.8185  1.2457 -1.5145
14107TIP3   OH263735   5.728   0.935  14.491  0.2159 -0.1613 -0.1849
14107TIP3    H163736   5.661   0.947  14.559  1.1966  2.1117  0.4665
14107TIP3    H263737   5.701   0.855  14.445 -0.2644 -2.0922  3.1227
14108TIP3   OH263738   2.864   2.595  16.229 -0.1332  0.1150  0.4693
14108TIP3    H163739   2.939   2.542  16.201 -0.9143 -1.6658  1.5878
14108TIP3    H263740   2.806   2.533  16.272 -2.4224  1.3790 -0.6133
14109TIP3   OH263741   2.433   6.340   6.062  0.0322  0.6563 -0.2081
14109TIP3    H163742   2.482   6.354   6.143  0.2064  1.4021 -0.4266
14109TIP3    H263743   2.496   6.360   5.993 -0.1815  0.2464 -0.5202
14110TIP3   OH263744   3.002   1.022   1.208 -0.5737  0.4592  0.6557
14110TIP3    H163745   2.999   0.936   1.250 -0.0605 -1.5965 -3.1195
14110TIP3    H263746   3.094   1.046   1.210 -0.2167 -0.6236 -0.9310
14111TIP3   OH263747   2.637   4.321  12.001 -0.1817  0.1726 -0.0149
14111TIP3    H163748   2.728   4.326  11.972 -0.6834  2.3330 -1.4302
14111TIP3    H263749   2.586   4.356  11.928 -2.1754 -0.8483  0.7971
14112TIP3   OH263750   2.963   0.852   3.478 -0.2263  0.1174 -0.4031
14112TIP3    H163751   2.883   0.801   3.467 -0.8473  0.4861  1.9941
14112TIP3    H263752   3.033   0.786   3.476 -0.8383 -0.5868  0.5206
14113TIP3   OH263753   6.627   5.662  13.660  0.1083 -0.3435 -0.0342
14113TIP3    H163754   6.611   5.583  13.712  1.1693 -0.9666 -0.6185
14113TIP3    H263755   6.540   5.692  13.635 -0.4536  0.0288  2.1370
14114TIP3   OH263756   2.678   0.273   4.826  0.0155  0.2932  0.0623
14114TIP3    H163757   2.760   0.227   4.809 -0.5902 -0.4882 -0.8600
14114TIP3    H263758   2.619   0.205   4.859 -0.3209  0.8163  0.5739
14115TIP3   OH263759   5.544   3.472   4.550  0.1259  0.6810  0.2771
14115TIP3    H163760   5.512   3.384   4.530 -0.0799  0.4110  1.7383
14115TIP3    H263761   5.630   3.476   4.507 -0.4433  0.2712 -0.9498
14116TIP3   OH263762   1.209   4.237  12.212  0.1599  0.0735 -0.0522
14116TIP3    H163763   1.141   4.178  12.243  0.2277  0.0971  0.1432
14116TIP3    H263764   1.251   4.190  12.140  0.8143 -0.5083  0.6814
14117TIP3   OH263765   5.168   5.077   3.314  0.9040  1.0328  0.0357
14117TIP3    H163766   5.148   5.148   3.375 -2.0627  0.0087  0.4120
14117TIP3    H263767   5.174   4.999   3.369 -1.9638  0.0667 -0.8531
14118TIP3   OH263768   5.987   4.955  13.723 -0.0419  0.6013 -0.2037
14118TIP3    H163769   6.048   4.952  13.648  0.5797  2.0344  0.2090
14118TIP3    H263770   6.023   4.891  13.785  1.5656  1.9965  0.3757
14119TIP3   OH263771   3.799   0.152   4.528  0.8841  0.2905  0.6392
14119TIP3    H163772   3.798   0.242   4.560 -1.2438  1.2747 -1.8353
14119TIP3    H263773   3.758   0.101   4.598  0.3808  1.5565  1.2951
14120TIP3   OH263774   1.842   6.147  14.871 -0.2141  0.6891  0.9588
14120TIP3    H163775   1.786   6.176  14.799  1.4647 -2.8204 -2.0987
14120TIP3    H263776   1.796   6.071  14.907  1.0627 -0.3596  0.4501
14121TIP3   OH263777   1.911   6.164  11.513 -0.2169 -0.3750 -0.1261
14121TIP3    H163778   1.952   6.128  11.592  0.3711 -0.9640 -0.6905
14121TIP3    H263779   1.863   6.241  11.544  2.0548  0.8986  0.4433
14122TIP3   OH263780   3.816   2.817  15.527 -1.0533  0.0324 -0.0820
14122TIP3    H163781   3.743   2.844  15.470 -1.1375 -1.6097 -0.8020
14122TIP3    H263782   3.774   2.767  15.597 -0.5626 -2.1268 -1.2502
14123TIP3   OH263783   1.982   2.130  11.962  0.2308  0.1373 -0.3642
14123TIP3    H163784   1.946   2.211  11.926  2.6768  2.4020  1.7689
14123TIP3    H263785   2.076   2.134  11.941  0.3909 -2.3230 -0.4021
14124TIP3   OH263786   6.304   1.995  14.939 -0.5515  0.1506  0.4405
14124TIP3    H163787   6.282   2.086  14.921 -3.0970 -0.6811 -1.1062
14124TIP3    H263788   6.280   1.982  15.031 -0.3424  0.9638  0.6185
14125TIP3   OH263789   2.987   1.501   1.065 -0.7023 -0.3238  0.6851
14125TIP3    H163790   2.908   1.495   1.011  0.0128  1.4692 -0.6549
14125TIP3    H263791   3.057   1.518   1.003  0.2559  1.2538  2.1297
14126TIP3   OH263792   0.944   4.471  14.544  0.3834  0.2160 -0.3954
14126TIP3    H163793   0.872   4.529  14.518  0.7846  0.8858 -0.0199
14126TIP3    H263794   1.004   4.527  14.594  1.5479 -0.1430 -1.3378
14127TIP3   OH263795   1.451   6.624   1.416 -0.3275  0.0567 -0.0290
14127TIP3    H163796   1.519   6.662   1.473  0.0045 -0.7208  0.1048
14127TIP3    H263797   1.412   6.555   1.469 -0.4464 -0.2552 -0.5212
14128TIP3   OH263798   4.081   1.726   1.113  0.2931  0.2547  0.2439
14128TIP3    H163799   4.093   1.632   1.098 -0.0623 -0.4630  3.5435
14128TIP3    H263800   4.170   1.761   1.115  0.6092 -0.5145  1.2055
14129TIP3   OH263801   0.431   0.931   2.822  0.2564 -0.1504 -0.3727
14129TIP3    H163802   0.402   0.883   2.900  1.1010 -0.3511 -0.1736
14129TIP3    H263803   0.357   0.925   2.761 -0.2861 -0.2760  0.2840
14130TIP3   OH263804   5.545   4.621  13.726  0.3210 -0.8308 -0.5903
14130TIP3    H163805   5.624   4.675  13.719 -1.7753  2.7784  0.5546
14130TIP3    H263806   5.543   4.593  13.817 -1.2762  2.0662  0.3864
14131TIP3   OH263807   0.190   4.799   6.781  0.0412 -0.1571 -0.1948
14131TIP3    H163808   0.157   4.710   6.767 -0.4315  0.0917 -0.7084
14131TIP3    H263809   0.209   4.802   6.875  1.6213 -1.3062 -0.4463
14132TIP3   OH263810   1.376   5.824   4.882 -0.1300  0.1576 -0.0384
14132TIP3    H163811   1.397   5.793   4.970 -2.6690 -0.7596  0.3352
14132TIP3    H263812   1.354   5.744   4.833 -2.0240  0.8751 -0.4712
14133TIP3   OH263813   2.094   6.511  17.224 -0.2987 -0.1828 -0.4253
14133TIP3    H163814   2.036   6.437  17.205 -0.0972 -1.0898  2.0869
14133TIP3    H263815   2.169   6.473  17.270  0.2159  1.4671  0.2033
14134TIP3   OH263816   4.654   4.624   4.581 -0.3235 -0.0651 -0.0907
14134TIP3    H163817   4.633   4.533   4.601 -3.0197  0.5062  0.0050
14134TIP3    H263818   4.673   4.663   4.667  1.0484 -0.5307 -0.1520
14135TIP3   OH263819   6.671   2.082   3.543 -0.6304 -0.5383  0.0879
14135TIP3    H163820   6.680   2.135   3.463  1.9149 -0.5813  0.2721
14135TIP3    H263821   6.632   2.000   3.513  1.0537 -0.8868 -1.3150
14136TIP3   OH263822   0.972   3.162   1.333  0.0865  0.1564 -0.0716
14136TIP3    H163823   1.054   3.212   1.329  0.0726  0.6590  3.1952
14136TIP3    H263824   0.915   3.213   1.390 -1.0863 -2.0308  0.8513
14137TIP3   OH263825   0.442   1.511   2.800  0.4580 -0.4073 -0.0428
14137TIP3    H163826   0.464   1.430   2.754 -0.9591  0.0178 -1.5803
14137TIP3    H263827   0.346   1.511   2.805  0.3315  1.7689 -1.2978
14138TIP3   OH263828   4.161   0.002   1.992 -0.3786  0.3192  0.3725
14138TIP3    H163829   4.182  -0.090   2.007 -0.9996  0.3943  1.9489
14138TIP3    H263830   4.065   0.003   1.983 -0.2417  0.6276 -1.3031
14139TIP3   OH263831   3.002   1.639   5.012  0.4627  0.2101 -0.2389
14139TIP3    H163832   2.979   1.725   4.975 -0.8145 -0.5485 -1.3037
14139TIP3    H263833   3.097   1.644   5.028  0.2733  2.1101  0.5816
14140TIP3   OH263834   3.509   5.179  14.232  0.4152  0.1507  0.0091
14140TIP3    H163835   3.566   5.182  14.309  0.3425  0.6010  0.0511
14140TIP3    H263836   3.420   5.189  14.268  0.1782 -1.8846  0.0787
14141TIP3   OH263837   4.185   4.501   2.599 -0.8806  0.1933  0.4286
14141TIP3    H163838   4.111   4.491   2.539  1.3948 -1.0722 -2.3794
14141TIP3    H263839   4.219   4.413   2.610  0.9211  0.8830  0.6921
14142TIP3   OH263840   3.680   4.488  10.977  0.5303 -0.1775 -0.1969
14142TIP3    H163841   3.748   4.432  10.940 -0.0098 -1.0034  0.0339
14142TIP3    H263842   3.667   4.455  11.066 -1.3270 -1.1330 -0.7721
14143TIP3   OH263843   4.815   3.866   0.006  0.0138  0.3905 -0.3441
14143TIP3    H163844   4.779   3.855   0.094  1.1854  0.8223  0.2007
14143TIP3    H263845   4.814   3.778  -0.032  1.3896 -0.1731  0.8603
14144TIP3   OH263846   0.527   6.579  13.614 -0.0598  0.4754 -0.0536
14144TIP3    H163847   0.473   6.512  13.571  0.6279  0.1102 -0.3619
14144TIP3    H263848   0.568   6.626  13.542  1.4793 -0.4487  0.1870
14145TIP3   OH263849   6.225   1.849  12.320  0.4113 -0.0852 -0.4931
14145TIP3    H163850   6.136   1.814  12.324  0.1822  0.3980 -1.1753
14145TIP3    H263851   6.221   1.933  12.367  0.6717 -0.3749  0.0622
14146TIP3   OH263852   4.460   1.055   0.862  0.5859  0.7700  0.2914
14146TIP3    H163853   4.398   1.051   0.935 -0.1821  0.3738 -0.3762
14146TIP3    H263854   4.437   0.980   0.807 -1.5092  3.2256 -2.4771
14147TIP3   OH263855   5.230   0.542   1.991 -0.8229  0.1118 -0.2527
14147TIP3    H163856   5.262   0.508   1.908  0.2673  0.7458 -0.1143
14147TIP3    H263857   5.278   0.624   2.003 -0.5285 -0.2584  1.2826
14148TIP3   OH263858   3.677   1.635   0.002 -0.1941 -0.1838 -0.4580
14148TIP3    H163859   3.627   1.560  -0.028 -0.5282  0.0218 -0.4168
14148TIP3    H263860   3.692   1.687  -0.077 -1.3367  0.5131 -0.2370
14149TIP3   OH263861   4.416   0.366  15.966  0.2433  0.3129 -0.0141
14149TIP3    H163862   4.456   0.307  16.031  1.0317  1.1363  0.2693
14149TIP3    H263863   4.434   0.454  15.999  0.6593  0.7534 -1.3437
14150TIP3   OH263864   5.044   3.457  14.129  0.5191  0.5891  0.1564
14150TIP3    H163865   5.069   3.449  14.037 -0.8748 -1.8919 -0.0965
14150TIP3    H263866   4.969   3.516  14.128 -0.0272 -0.0842 -0.4569
14151TIP3   OH263867   4.375   3.379  12.438 -0.3512  0.4864 -0.0978
14151TIP3    H163868   4.345   3.304  12.490  1.9330 -0.8570 -0.6076
14151TIP3    H263869   4.454   3.409  12.482  0.3669  0.7760 -1.5282
14152TIP3   OH263870   5.997   5.508   5.228  0.1598  0.4264 -0.7918
14152TIP3    H163871   6.035   5.422   5.208 -1.6689  0.3690 -5.0600
14152TIP3    H263872   5.912   5.487   5.267  0.9462  0.4553  1.0523
14153TIP3   OH263873   1.027   6.277  16.266 -0.0161 -0.1108  0.0584
14153TIP3    H163874   1.076   6.194  16.263 -1.1046 -0.7607 -3.3150
14153TIP3    H263875   1.083   6.339  16.220 -0.5043  0.2491 -0.0504
14154TIP3   OH263876   1.944   2.634  12.846 -0.5311  0.2363 -0.3902
14154TIP3    H163877   2.021   2.638  12.789 -0.2022  2.1789  0.1245
14154TIP3    H263878   1.976   2.596  12.928  0.2212  2.1415  0.2534
14155TIP3   OH263879   5.155   5.004  13.157 -0.0460 -0.1518 -0.0935
14155TIP3    H163880   5.217   5.073  13.133 -0.8653  1.1897  1.4564
14155TIP3    H263881   5.210   4.936  13.196  0.6305  0.2698 -0.2849
14156TIP3   OH263882   1.356   2.589   1.138  0.3150  0.4012  0.5815
14156TIP3    H163883   1.364   2.526   1.066 -1.4671  0.1472  0.5613
14156TIP3    H263884   1.376   2.539   1.217  0.3242  0.1763  0.4360
14157TIP3   OH263885   6.692   1.541  15.374 -0.0665 -0.2909 -0.0170
14157TIP3    H163886   6.710   1.623  15.421 -0.7566 -0.0973 -0.0895
14157TIP3    H263887   6.604   1.552  15.339 -0.4304 -1.3406  0.5448
14158TIP3   OH263888   4.820   5.289  12.109  0.5714 -0.1964 -0.1119
14158TIP3    H163889   4.904   5.333  12.123  1.8141 -1.6917 -2.3281
14158TIP3    H263890   4.758   5.360  12.095  1.6663  0.9274  0.5656
14159TIP3   OH263891   0.791   0.377  12.917 -0.3168  0.0717 -0.2834
14159TIP3    H163892   0.715   0.379  12.859 -1.2832 -0.7911  0.9077
14159TIP3    H263893   0.755   0.356  13.003  1.3013 -0.6056  0.2596
14160TIP3   OH263894   0.212   2.570  12.416  0.5081 -0.1221  0.8633
14160TIP3    H163895   0.261   2.600  12.493  1.4300 -1.2376  0.7408
14160TIP3    H263896   0.244   2.481  12.400  1.2933  0.5070 -1.5684
14161TIP3   OH263897   0.149   1.173  11.295  0.6440 -0.3938 -0.0024
14161TIP3    H163898   0.138   1.125  11.213  1.4683 -0.5319 -0.0421
14161TIP3    H263899   0.097   1.125  11.359  3.0262 -2.5856  0.4430
14162TIP3   OH263900   3.803   4.381   4.599 -0.4225  0.2676  0.3968
14162TIP3    H163901   3.846   4.302   4.566 -3.4546 -2.2533  1.9032
14162TIP3    H263902   3.750   4.413   4.525 -1.3979 -0.9056  0.5484
14163TIP3   OH263903   6.451   4.370  11.665 -0.2326  0.6903  0.0207
14163TIP3    H163904   6.439   4.276  11.652  1.1654  0.2852  1.3065
14163TIP3    H263905   6.505   4.397  11.591 -2.2568  0.9312 -1.4414
14164TIP3   OH263906   1.347   3.058  12.945 -0.6073  0.1829  0.3254
14164TIP3    H163907   1.379   3.146  12.923  1.2480 -0.5506 -0.1768
14164TIP3    H263908   1.404   2.999  12.895 -2.2361 -1.3099  0.1249
14165TIP3   OH263909   1.921   0.862  17.080 -0.4607  0.1670 -0.5201
14165TIP3    H163910   2.006   0.878  17.040 -0.2000  0.1055 -0.0042
14165TIP3    H263911   1.916   0.925  17.152 -1.0172  0.4264 -0.7848
14166TIP3   OH263912   0.200   2.687  11.248 -0.1197  0.7356  0.3320
14166TIP3    H163913   0.285   2.730  11.252  0.4249 -0.3543  0.8634
14166TIP3    H263914   0.219   2.597  11.221 -1.1389  0.5852  0.0598
14167TIP3   OH263915   5.064   3.385   0.459 -0.2290  0.8396  0.5606
14167TIP3    H163916   5.009   3.455   0.494 -0.4580  0.8834  0.1280
14167TIP3    H263917   5.121   3.360   0.531 -1.6426 -0.0508  1.4245
14168TIP3   OH263918   4.118   5.141   1.612 -0.4679  0.3480  0.3465
14168TIP3    H163919   4.185   5.184   1.560 -0.2101  1.1567  1.3219
14168TIP3    H263920   4.156   5.133   1.700 -1.0503 -0.6034  0.5364
14169TIP3   OH263921   3.680   1.550  14.391 -0.0797  0.2965  0.1428
14169TIP3    H163922   3.605   1.538  14.333 -0.6877 -1.7267  1.2474
14169TIP3    H263923   3.756   1.525  14.339 -0.4846 -0.3340 -0.1517
14170TIP3   OH263924   1.274   4.028   2.047  0.2540  0.4905 -0.2380
14170TIP3    H163925   1.214   3.988   1.984  0.5342 -2.2446  1.0596
14170TIP3    H263926   1.361   4.001   2.016  0.4619  0.1251  0.6512
14171TIP3   OH263927   4.311   2.263   0.182 -0.1538  0.2377 -0.6324
14171TIP3    H163928   4.310   2.209   0.103  0.8336  0.5390 -0.8629
14171TIP3    H263929   4.301   2.201   0.254 -1.0251 -0.0439 -0.9829
14172TIP3   OH263930   0.068   0.414  10.986 -0.0039 -0.1846  0.0702
14172TIP3    H163931   0.109   0.441  10.904 -0.7592 -1.3780 -0.7256
14172TIP3    H263932   0.083   0.488  11.045  0.2770  0.8366 -1.2290
14173TIP3   OH263933   6.394   3.540  16.667  0.4551 -0.2659 -0.4175
14173TIP3    H163934   6.360   3.457  16.701 -0.4855 -0.3063 -1.3675
14173TIP3    H263935   6.453   3.572  16.734 -0.3040 -0.9892  0.6231
14174TIP3   OH263936   4.339   2.059   3.025 -0.0333 -0.0491 -0.3144
14174TIP3    H163937   4.254   2.050   3.069  0.0020 -1.0801 -0.4384
14174TIP3    H263938   4.395   2.099   3.091 -0.3868 -0.1498  0.0541
14175TIP3   OH263939   4.002   2.270   4.650  0.0682  0.0702  0.1479
14175TIP3    H163940   4.063   2.249   4.579  0.2468  0.1912  0.2654
14175TIP3    H263941   4.003   2.192   4.706 -0.9959 -0.5177 -0.6231
14176TIP3   OH263942   5.247   2.756  16.064  0.4402  0.2402  0.4827
14176TIP3    H163943   5.329   2.730  16.023  0.8752  2.0134  0.1263
14176TIP3    H263944   5.270   2.832  16.118 -0.7307 -0.0475  1.4367
14177TIP3   OH263945   0.114   3.972  15.305 -0.2140 -0.1864  0.2450
14177TIP3    H163946   0.041   4.032  15.290 -0.0843 -0.4805 -1.9350
14177TIP3    H263947   0.192   4.027  15.299 -0.0970 -0.4736 -1.7195
14178TIP3   OH263948   4.569   5.293  16.675  0.4238  0.3658 -0.0474
14178TIP3    H163949   4.565   5.236  16.752 -0.6749  0.4873 -0.0043
14178TIP3    H263950   4.565   5.234  16.601 -1.2278  0.3970 -0.0055
14179TIP3   OH263951   4.155   2.193   0.956  0.5518 -0.3430 -0.2195
14179TIP3    H163952   4.113   2.213   0.872  1.5149  0.1833 -0.5843
14179TIP3    H263953   4.082   2.174   1.015 -0.1448 -0.5446 -1.1266
14180TIP3   OH263954   6.414   2.093  12.331  0.1543 -0.5902 -0.1807
14180TIP3    H163955   6.406   2.008  12.287 -2.5464 -0.3639 -0.3334
14180TIP3    H263956   6.415   2.072  12.424  0.7738 -0.8356 -0.2389
14181TIP3   OH263957   0.206   2.415   0.542  0.0461  0.2454 -0.4751
14181TIP3    H163958   0.141   2.455   0.484 -0.0329  0.8972  0.0567
14181TIP3    H263959   0.177   2.439   0.630  0.2719 -0.5740 -0.1683
14182TIP3   OH263960   2.186   1.249  15.849 -0.4087 -0.0405 -0.2852
14182TIP3    H163961   2.124   1.225  15.918 -2.0848  1.5656 -1.1448
14182TIP3    H263962   2.216   1.337  15.872  1.1885 -0.5836 -0.1735
14183TIP3   OH263963   0.949   5.321   6.387 -0.4818 -0.1774 -0.1705
14183TIP3    H163964   0.937   5.227   6.397 -1.1530 -0.4416 -2.7639
14183TIP3    H263965   0.860   5.357   6.394 -0.2605  0.2575  0.5303
14184TIP3   OH263966   4.621   3.315   1.369 -0.3963 -0.2533 -0.1142
14184TIP3    H163967   4.671   3.357   1.439 -0.0777 -0.1768 -0.3845
14184TIP3    H263968   4.687   3.268   1.318 -0.3872  0.9592 -1.2771
14185TIP3   OH263969   4.760   0.287   2.509  0.3370 -0.7506  0.0960
14185TIP3    H163970   4.811   0.264   2.587 -0.5013  1.3343  1.3345
14185TIP3    H263971   4.826   0.314   2.445  0.9717 -1.4304  0.4476
14186TIP3   OH263972   5.856   5.145   2.869  0.0884 -0.3312  0.1372
14186TIP3    H163973   5.876   5.238   2.874 -0.4414 -0.2500  0.9072
14186TIP3    H263974   5.767   5.138   2.904  0.0193 -1.0870 -0.1838
14187TIP3   OH263975   6.290   5.630   5.675 -0.3291  0.3351  0.1401
14187TIP3    H163976   6.314   5.547   5.632  0.5408  0.7295 -0.1689
14187TIP3    H263977   6.350   5.635   5.750 -1.3733 -0.0162  1.0127
14188TIP3   OH263978   6.576   1.663  14.548  0.5591 -0.2672  0.2755
14188TIP3    H163979   6.576   1.584  14.495  0.7870 -1.2075  1.6181
14188TIP3    H263980   6.663   1.666  14.588  0.8068  1.0615 -0.2876
14189TIP3   OH263981   1.004   6.332  17.242 -0.3390 -0.1276 -0.3242
14189TIP3    H163982   0.928   6.294  17.285  0.1630  0.5209  1.2114
14189TIP3    H263983   0.968   6.393  17.178 -1.1098  0.0038  0.2328
14190TIP3   OH263984   0.262   1.907  11.759  0.2049 -1.2708  0.2397
14190TIP3    H163985   0.248   2.001  11.746 -1.1771 -1.2489  1.5929
14190TIP3    H263986   0.282   1.874  11.671 -0.5086  0.0990 -0.4862
14191TIP3   OH263987   5.472   4.380   4.122 -0.4957  0.2984  0.1736
14191TIP3    H163988   5.507   4.293   4.103 -1.0044 -0.0491  0.7621
14191TIP3    H263989   5.537   4.441   4.088 -0.8852 -0.2797 -1.7327
14192TIP3   OH263990   0.136   1.996   2.625 -0.0170 -0.2383  0.1040
14192TIP3    H163991   0.159   1.916   2.671  1.2974  0.6393  1.0477
14192TIP3    H263992   0.210   2.055   2.640 -1.0699  1.2600 -0.3166
14193TIP3   OH263993   1.866   0.283   0.590  0.8988 -0.4869  0.3338
14193TIP3    H163994   1.953   0.323   0.595  0.8145 -0.4740  1.9762
14193TIP3    H263995   1.848   0.253   0.679 -0.7559 -0.5701 -0.0045
14194TIP3   OH263996   5.164   4.363  17.050 -0.3309 -0.1631  0.1256
14194TIP3    H163997   5.073   4.388  17.035 -0.2745  0.9751  1.4195
14194TIP3    H263998   5.213   4.410  16.982 -0.7940 -1.9129 -1.4923
14195TIP3   OH263999   4.799   6.686   1.091 -0.2547 -0.3025 -0.1819
14195TIP3    H164000   4.880   6.714   1.135  0.8497 -1.6198 -1.2826
14195TIP3    H264001   4.751   6.768   1.076  0.9934  0.5459  0.2728
14196TIP3   OH264002   3.384   1.771  11.054  0.1738  0.1129  0.3413
14196TIP3    H164003   3.430   1.849  11.084  0.4149 -0.0515  0.4033
14196TIP3    H264004   3.341   1.798  10.973  0.9992  0.0622 -0.1246
14197TIP3   OH264005   0.317   3.896  13.901  0.8228  0.0283  0.0275
14197TIP3    H164006   0.334   3.988  13.877  0.0416  0.3991  0.8512
14197TIP3    H264007   0.224   3.894  13.923  1.0724 -0.7303  1.0524
14198TIP3   OH264008   2.169   2.837   6.229 -0.5495 -0.5380  0.0886
14198TIP3    H164009   2.221   2.814   6.306 -2.3740 -2.0178  0.9441
14198TIP3    H264010   2.117   2.912   6.257 -0.5842 -0.5317  0.0063
14199TIP3   OH264011   4.005   2.445   1.082  0.4693 -0.1761 -0.0257
14199TIP3    H164012   3.944   2.391   1.132  0.8487 -1.6594 -1.0915
14199TIP3    H264013   3.978   2.432   0.991  0.6624  1.3601 -0.3304
14200TIP3   OH264014   1.611   3.153  13.866  0.0512 -0.6472 -0.4608
14200TIP3    H164015   1.698   3.174  13.833 -0.2395  0.0440 -0.8064
14200TIP3    H264016   1.569   3.238  13.879  0.3268 -0.8218  2.2339
14201TIP3   OH264017   2.643   0.788  15.615  0.0623  0.1265 -0.4654
14201TIP3    H164018   2.609   0.858  15.670 -0.4979 -0.0796 -0.5361
14201TIP3    H264019   2.594   0.796  15.533 -0.9027 -1.0763 -0.0492
14202TIP3   OH264020   5.161   6.211  11.299  0.3509 -0.0153  0.2622
14202TIP3    H164021   5.091   6.146  11.301  0.7206 -0.4280 -0.1123
14202TIP3    H264022   5.123   6.285  11.252 -0.1307  0.1134  0.8486
14203TIP3   OH264023   4.935   2.900   4.653 -0.4229  0.4020 -0.2845
14203TIP3    H164024   4.874   2.833   4.683 -0.4353 -0.1416 -1.4704
14203TIP3    H264025   4.912   2.915   4.561 -0.2760  1.8806 -0.1121
14204TIP3   OH264026   5.710   0.118  15.535  0.4736  0.4072 -0.4523
14204TIP3    H164027   5.772   0.112  15.462  1.0892  0.6444  0.0413
14204TIP3    H264028   5.628   0.146  15.495  1.0453  1.4445 -0.9306
14205TIP3   OH264029   0.243   0.919   2.236 -0.2218 -0.4706  0.0433
14205TIP3    H164030   0.290   0.843   2.202  1.8746  1.0661 -0.7534
14205TIP3    H264031   0.254   0.986   2.168  0.0097  1.2357  1.6735
14206TIP3   OH264032   0.861   1.269  13.428  0.1731 -0.0503 -0.3114
14206TIP3    H164033   0.829   1.181  13.449  0.0265  0.3624  1.3614
14206TIP3    H264034   0.957   1.261  13.429  0.1975  0.0588  1.2442
14207TIP3   OH264035   5.835   4.852   3.935 -0.3322 -0.0722 -0.0656
14207TIP3    H164036   5.914   4.810   3.970 -0.4971  0.0687  0.4696
14207TIP3    H264037   5.790   4.888   4.011 -2.6706 -3.0260  0.1722
14208TIP3   OH264038   2.001   2.903  16.773  0.5023  0.6159 -0.2947
14208TIP3    H164039   2.088   2.863  16.767  0.5302  0.4130  1.0757
14208TIP3    H264040   2.006   2.960  16.850 -0.1929  1.6381 -0.9715
14209TIP3   OH264041   5.874   3.250   5.939  0.2902 -0.3862  0.1753
14209TIP3    H164042   5.797   3.279   5.988  0.8636  2.0797 -0.2400
14209TIP3    H264043   5.844   3.172   5.892 -2.4913  1.2807 -1.1520
14210TIP3   OH264044   2.270   4.225   1.284  0.2784  0.1778 -0.6007
14210TIP3    H164045   2.212   4.149   1.289  0.6869 -0.1372 -0.5661
14210TIP3    H264046   2.357   4.188   1.267  0.6213  0.5904  0.2161
14211TIP3   OH264047   2.836   4.805  16.269  0.0072  0.1223  0.2944
14211TIP3    H164048   2.906   4.856  16.307 -0.0799  2.1173 -2.0151
14211TIP3    H264049   2.826   4.730  16.328  2.9185  0.6165  1.5604
14212TIP3   OH264050   6.293   1.947  16.307 -0.0979  0.4540  0.0629
14212TIP3    H164051   6.219   1.949  16.368  0.3821 -1.8184  0.7920
14212TIP3    H264052   6.370   1.937  16.363  0.8505  2.9057 -0.6768
14213TIP3   OH264053   0.446   3.058   5.575  0.5220 -0.1541 -0.0410
14213TIP3    H164054   0.435   2.987   5.512 -1.2322  0.4468 -0.4788
14213TIP3    H264055   0.508   3.024   5.639  2.5132 -0.7313 -2.1423
14214TIP3   OH264056   0.304   5.388   3.829 -0.2933  0.1863  0.1407
14214TIP3    H164057   0.366   5.459   3.844 -0.3853 -0.0316  1.7144
14214TIP3    H264058   0.354   5.308   3.844 -0.2119 -0.1042 -1.5347
14215TIP3   OH264059   3.303   0.496   1.517  0.4178  0.2426  0.1326
14215TIP3    H164060   3.258   0.447   1.586 -1.4762 -0.3738 -1.4671
14215TIP3    H264061   3.376   0.440   1.492  0.7123  0.1533  1.1284
14216TIP3   OH264062   3.463   1.950   4.439  0.2124 -0.0099  0.5735
14216TIP3    H164063   3.472   2.045   4.451  0.0123  0.0267  0.4326
14216TIP3    H264064   3.448   1.917   4.527 -0.6225  0.1913  0.5214
14217TIP3   OH264065   2.301   2.036   0.715 -0.7382 -0.2925  0.2723
14217TIP3    H164066   2.238   1.981   0.762 -0.0214 -0.5010  1.0150
14217TIP3    H264067   2.359   1.973   0.671 -0.6499 -0.1163  0.1358
14218TIP3   OH264068   4.261   1.272  16.587  0.9621 -0.0916  0.4825
14218TIP3    H164069   4.227   1.231  16.667  0.0102 -1.4053 -0.5573
14218TIP3    H264070   4.290   1.198  16.533  0.3064  0.6695 -0.9577
14219TIP3   OH264071   5.104   2.578   2.002 -0.1585  0.6510  0.3213
14219TIP3    H164072   5.144   2.642   2.061 -0.3613  0.7979  0.2997
14219TIP3    H264073   5.178   2.540   1.954  0.0764  0.1090  1.0797
14220TIP3   OH264074   0.380   2.891  13.870  0.0709 -0.2530 -0.0332
14220TIP3    H164075   0.395   2.984  13.888 -0.1039 -0.7996  3.5809
14220TIP3    H264076   0.318   2.863  13.937  0.8662 -3.2080 -0.3923
14221TIP3   OH264077   6.241   1.028   4.155  0.3561  0.7758  0.5614
14221TIP3    H164078   6.307   0.977   4.107  1.1273  1.3670  0.9636
14221TIP3    H264079   6.176   0.963   4.183  1.1141  0.0715  0.7373
14222TIP3   OH264080   0.921   2.846   5.603 -0.4938 -0.1187 -0.1636
14222TIP3    H164081   0.941   2.753   5.587  1.2100  0.3460 -0.9850
14222TIP3    H264082   0.845   2.864   5.549 -0.8906 -1.0530  0.0659
14223TIP3   OH264083   2.857   6.288   0.975 -0.0058 -0.0036 -0.7579
14223TIP3    H164084   2.879   6.244   1.057 -0.1586  0.0568 -0.6843
14223TIP3    H264085   2.912   6.245   0.910 -1.0277 -1.1246 -0.9004
14224TIP3   OH264086   5.456   4.743   4.321  0.1586 -0.0131 -0.2019
14224TIP3    H164087   5.464   4.830   4.361  0.7973  0.7296 -1.8534
14224TIP3    H264088   5.362   4.727   4.318  0.0063  0.8347 -0.2968
14225TIP3   OH264089   2.513   6.183  14.686 -0.2517  0.1681 -0.3846
14225TIP3    H164090   2.538   6.276  14.680  1.3357 -0.2577 -0.9240
14225TIP3    H264091   2.522   6.151  14.597  0.5398 -0.8095  0.0324
14226TIP3   OH264092   6.101   5.309   3.433 -0.0228 -0.0396  0.2623
14226TIP3    H164093   6.124   5.221   3.405 -2.7382 -0.3693 -1.2661
14226TIP3    H264094   6.083   5.301   3.526  0.5800 -0.8955  0.3178
14227TIP3   OH264095   3.283   5.747  12.811 -0.5435 -0.1175  0.1095
14227TIP3    H164096   3.253   5.787  12.730 -0.1238 -1.0142 -0.5139
14227TIP3    H264097   3.313   5.660  12.785  1.8319  0.4160  0.7971
14228TIP3   OH264098   6.367   0.237  16.327 -0.5330  0.2314 -0.5134
14228TIP3    H164099   6.458   0.222  16.352  0.1338 -0.8945 -3.2856
14228TIP3    H264100   6.319   0.164  16.364  0.0258 -0.1696 -0.5689
14229TIP3   OH264101   1.614   1.680  15.675 -0.4283 -0.2835 -0.4659
14229TIP3    H164102   1.651   1.752  15.625  1.1697 -0.2653  0.6715
14229TIP3    H264103   1.689   1.635  15.712 -1.4543 -1.7694 -0.0805
14230TIP3   OH264104   0.720   5.843  15.071  0.3591  0.2283  0.0958
14230TIP3    H164105   0.644   5.798  15.033  0.4133  0.0382  0.2093
14230TIP3    H264106   0.709   5.934  15.047  0.0729  0.2072  0.1477
14231TIP3   OH264107   4.046   1.442   1.053  0.0760  0.1172 -0.3722
14231TIP3    H164108   4.010   1.372   0.998 -0.8826 -0.0344  0.3964
14231TIP3    H264109   4.139   1.422   1.059  0.0918 -0.1981 -1.4320
14232TIP3   OH264110   3.232   3.144   5.768  0.0219 -0.0341 -0.3902
14232TIP3    H164111   3.164   3.137   5.834 -2.1520 -0.0429 -2.4781
14232TIP3    H264112   3.275   3.228   5.785  0.5465 -0.7127  1.8634
14233TIP3   OH264113   3.193   4.937   2.188 -0.1499 -0.0836  0.2777
14233TIP3    H164114   3.111   4.940   2.138  0.1179  2.0204 -0.1426
14233TIP3    H264115   3.194   4.850   2.228 -1.2959 -1.1569 -1.8530
14234TIP3   OH264116   3.687   2.868   5.381 -0.6011 -0.2695  0.1379
14234TIP3    H164117   3.684   2.856   5.476 -3.4520 -1.5765  0.0149
14234TIP3    H264118   3.746   2.799   5.350 -2.1383 -1.9844  0.8241
14235TIP3   OH264119   5.747   1.066   4.582 -0.1700  0.1654  0.2831
14235TIP3    H164120   5.661   1.109   4.585  0.2420  1.1203 -0.6854
14235TIP3    H264121   5.793   1.112   4.512  1.1538 -0.3048  0.8330
14236TIP3   OH264122   0.793   6.401   3.879  0.1544 -0.2221  0.2097
14236TIP3    H164123   0.865   6.444   3.925  0.8336 -0.6914 -0.3963
14236TIP3    H264124   0.759   6.469   3.821 -0.0707  0.0793  0.6866
14237TIP3   OH264125   3.043   3.376  13.269  0.1428  0.3366 -0.4788
14237TIP3    H164126   3.075   3.382  13.359  0.5129 -1.1303 -0.5041
14237TIP3    H264127   3.033   3.468  13.242 -1.1820  0.8408  1.4702
14238TIP3   OH264128   3.108   3.320  15.827  0.3745  0.5330 -0.0552
14238TIP3    H164129   3.034   3.301  15.769  0.0084 -1.4339  0.9860
14238TIP3    H264130   3.073   3.308  15.916  1.8138  0.0823  0.4726
14239TIP3   OH264131   6.067   4.059  12.138  0.4275 -0.2001 -0.0146
14239TIP3    H164132   6.104   4.146  12.155  0.4056 -0.0498 -0.7278
14239TIP3    H264133   5.975   4.067  12.163  0.5738 -0.2053  0.5378
14240TIP3   OH264134   0.273   0.696   5.853  0.1515 -0.2307 -0.1284
14240TIP3    H164135   0.256   0.744   5.772  0.7920  1.4009  0.6491
14240TIP3    H264136   0.211   0.734   5.916  1.6913  0.7053  0.8872
14241TIP3   OH264137   1.203   0.273   2.826  0.0655  0.3416  0.2812
14241TIP3    H164138   1.279   0.217   2.813  0.9554  1.2951  1.1136
14241TIP3    H264139   1.146   0.255   2.751  1.2716 -0.1341 -0.5503
14242TIP3   OH264140   0.476   4.250  13.517 -0.1955 -0.3309  0.1363
14242TIP3    H164141   0.501   4.305  13.592  1.1746 -0.8226  0.0713
14242TIP3    H264142   0.530   4.172  13.527 -1.6800 -1.4212 -0.1066
14243TIP3   OH264143   2.013   5.536  14.428  0.8325  0.1056 -0.1414
14243TIP3    H164144   1.958   5.613  14.411  0.1125 -0.5522 -0.8410
14243TIP3    H264145   1.995   5.477  14.355  2.8678  0.0719 -0.6695
14244TIP3   OH264146   4.506   4.357   3.278 -0.2469 -0.1277  0.2234
14244TIP3    H164147   4.539   4.316   3.358 -2.0617 -2.9323 -0.3294
14244TIP3    H264148   4.415   4.379   3.298 -0.7047 -0.8082 -1.0251
14245TIP3   OH264149   6.281   2.138   1.663 -0.0997  0.5759  0.1898
14245TIP3    H164150   6.250   2.201   1.729 -0.1423  0.3229  0.4098
14245TIP3    H264151   6.349   2.088   1.707 -0.0452  0.4846  0.0042
14246TIP3   OH264152   2.065   4.456   4.981  0.1571  0.1215  0.1713
14246TIP3    H164153   1.994   4.421   4.926  2.2970 -2.1742 -1.3379
14246TIP3    H264154   2.116   4.511   4.923 -0.2232  1.6819  1.2310
14247TIP3   OH264155   2.260   1.288  14.473 -0.1671 -0.3351  0.5070
14247TIP3    H164156   2.196   1.313  14.539 -1.0964  0.1919 -0.5443
14247TIP3    H264157   2.207   1.253  14.401  0.8823 -1.9780  0.4825
14248TIP3   OH264158   3.980   4.998  13.690 -0.9824  0.5886 -0.5837
14248TIP3    H164159   4.064   4.954  13.678 -0.6101  1.9078 -3.9758
14248TIP3    H264160   3.998   5.068  13.752 -0.4219 -1.0091  1.1496
14249TIP3   OH264161   4.483   6.275   1.911 -0.0124 -0.3101  0.0528
14249TIP3    H164162   4.489   6.319   1.995  1.8206 -0.7379  0.1797
14249TIP3    H264163   4.482   6.346   1.847 -1.1371  0.0038  0.3865
14250TIP3   OH264164   4.685   5.271  14.537 -0.4805 -0.2978  0.2929
14250TIP3    H164165   4.707   5.182  14.565  0.0716 -0.2170  0.1169
14250TIP3    H264166   4.608   5.293  14.589 -1.0549 -1.1430 -0.1818
14251TIP3   OH264167   6.741   0.454  15.523  0.2201 -0.1710 -0.3461
14251TIP3    H164168   6.787   0.526  15.480  0.7186  0.0182  0.4768
14251TIP3    H264169   6.681   0.420  15.457 -1.0135  1.8754 -0.3902
14252TIP3   OH264170   3.711   2.095  14.088  0.1626 -0.6676 -0.5875
14252TIP3    H164171   3.663   2.119  14.167 -0.4192  0.4362 -1.2526
14252TIP3    H264172   3.659   2.026  14.048 -0.6159  0.1656 -1.0386
14253TIP3   OH264173   4.654   6.218  14.949  0.3278  0.0977 -0.0120
14253TIP3    H164174   4.624   6.268  14.873  0.4094 -1.2268 -0.9561
14253TIP3    H264175   4.608   6.258  15.023 -2.0787 -0.4071 -1.1177
14254TIP3   OH264176   5.093   2.362  13.939  0.0741 -1.0207  0.8581
14254TIP3    H164177   5.101   2.447  13.895 -1.9228  0.0488  2.4108
14254TIP3    H264178   5.141   2.301  13.883  1.2803  1.0567 -0.4806
14255TIP3   OH264179   4.343   2.016  13.590 -0.2299 -0.1905 -0.6585
14255TIP3    H164180   4.423   2.061  13.617 -0.1430 -0.9326  0.3790
14255TIP3    H264181   4.279   2.036  13.658 -0.1761 -1.6339 -0.1440
14256TIP3   OH264182   1.886   6.257  11.977 -0.4693  0.0850 -0.0489
14256TIP3    H164183   1.861   6.302  11.897  1.5616  1.3426 -0.0415
14256TIP3    H264184   1.866   6.318  12.047  1.5471  0.7170  0.0289
14257TIP3   OH264185   0.004   2.223  16.076  0.0597 -0.1698 -0.1134
14257TIP3    H164186   0.062   2.230  16.153 -1.0856  0.8789  0.6814
14257TIP3    H264187   0.015   2.132  16.048  0.1908 -0.7159  1.5597
14258TIP3   OH264188   5.720   6.159   6.997  0.2599 -0.6153  0.2066
14258TIP3    H164189   5.707   6.119   6.911  0.4567  2.6819 -1.5359
14258TIP3    H264190   5.809   6.133   7.022  0.0403 -1.9686 -0.3784
14259TIP3   OH264191   5.345   2.362  11.538  0.6746  0.1837  0.7637
14259TIP3    H164192   5.379   2.406  11.460  1.4071 -1.3788  0.1472
14259TIP3    H264193   5.274   2.418  11.568  1.1510  1.4388 -0.3277
14260TIP3   OH264194   5.028   5.014  17.289 -0.0610  0.4608  0.1191
14260TIP3    H164195   5.099   4.986  17.232 -0.1852 -0.7518  0.5181
14260TIP3    H264196   5.017   5.107  17.271  0.9353  0.4365 -0.6889
14261TIP3   OH264197   4.194   1.668  12.640 -0.6567 -0.0662 -1.0402
14261TIP3    H164198   4.285   1.668  12.609  0.1527  2.4656  1.0185
14261TIP3    H264199   4.145   1.707  12.568  0.3089  0.7886 -1.2656
14262TIP3   OH264200   1.893   5.375   5.848  0.0633  0.2793 -0.1319
14262TIP3    H164201   1.846   5.308   5.799 -0.2137 -0.8861  1.6605
14262TIP3    H264202   1.980   5.377   5.807 -1.0050  1.4148 -2.5054
14263TIP3   OH264203   0.783   0.667   5.995  0.4323 -0.2628  0.0940
14263TIP3    H164204   0.713   0.667   5.929  0.2100  0.7524  0.3040
14263TIP3    H264205   0.788   0.577   6.025 -0.3804 -0.4703 -0.3579
14264TIP3   OH264206   0.043   1.779   5.493  0.3313 -0.0161  0.0489
14264TIP3    H164207   0.067   1.688   5.474 -1.9033 -0.8122  0.6611
14264TIP3    H264208   0.000   1.809   5.413  1.3863  0.6449 -0.2799
14265TIP3   OH264209   0.597   2.860  16.185  0.3062  0.0161  0.1036
14265TIP3    H164210   0.559   2.834  16.268  0.8072 -0.0257  0.3251
14265TIP3    H264211   0.657   2.931  16.207 -1.4416  1.7885 -0.5682
14266TIP3   OH264212   2.133   1.989   6.083 -0.0629 -0.4452 -0.3287
14266TIP3    H164213   2.052   2.017   6.041 -0.2035 -0.3979 -0.0321
14266TIP3    H264214   2.124   1.894   6.091 -0.2175 -0.4074 -0.0357
14267TIP3   OH264215   2.810   0.596   3.013 -0.0647 -0.2615 -0.9891
14267TIP3    H164216   2.793   0.552   2.930  0.5247 -0.3178 -1.0831
14267TIP3    H264217   2.902   0.578   3.031 -0.3153 -0.6785 -0.0674
14268TIP3   OH264218   0.219   3.669   0.711  0.4960 -0.2374  1.2474
14268TIP3    H164219   0.229   3.628   0.797 -0.2837 -0.9947  0.9845
14268TIP3    H264220   0.198   3.597   0.652 -0.1471  0.4316  0.6405
14269TIP3   OH264221   4.892   5.990  13.820 -0.1677 -0.0160 -0.0522
14269TIP3    H164222   4.806   6.030  13.804  1.2708  2.8981 -1.3470
14269TIP3    H264223   4.903   5.995  13.915 -0.2685  2.4395 -0.0949
14270TIP3   OH264224   4.628   0.632   3.683  0.0193 -0.1117  0.4757
14270TIP3    H164225   4.561   0.569   3.656 -1.1852  1.2387  0.1698
14270TIP3    H264226   4.648   0.608   3.773  0.2188 -1.4401  0.0958
14271TIP3   OH264227   2.225   5.147   3.956 -0.1389  0.5472  0.7305
14271TIP3    H164228   2.141   5.181   3.989 -0.2248  0.1405  0.9339
14271TIP3    H264229   2.233   5.185   3.868 -0.3308  0.9293  0.8737
14272TIP3   OH264230   2.245   2.959   6.593 -0.1742  0.2059 -0.1739
14272TIP3    H164231   2.257   2.893   6.525  0.8936 -0.8685  0.9915
14272TIP3    H264232   2.150   2.967   6.604 -0.3228 -0.8753 -0.5928
14273TIP3   OH264233   2.333   2.753   6.750  0.3508 -0.3244 -0.3100
14273TIP3    H164234   2.330   2.832   6.697  1.0101 -0.6235 -0.8082
14273TIP3    H264235   2.377   2.689   6.694 -1.6813 -1.5574 -0.6058
14274TIP3   OH264236   2.259   2.853   1.310  0.1594  0.4968  0.2540
14274TIP3    H164237   2.329   2.896   1.261  0.2870 -1.0867 -1.0137
14274TIP3    H264238   2.275   2.760   1.298 -1.8643  0.0900  0.3684
14275TIP3   OH264239   0.707   4.923  13.089 -0.0194  0.2096 -0.6131
14275TIP3    H164240   0.788   4.912  13.040  0.3238 -1.3008  0.2281
14275TIP3    H264241   0.664   4.838  13.085 -1.0586  0.6852 -0.1443
14276TIP3   OH264242   1.670   0.598  15.779  0.5156 -0.0351  0.1075
14276TIP3    H164243   1.750   0.546  15.786  0.6642  0.1042 -0.5636
14276TIP3    H264244   1.691   0.668  15.717 -0.4742 -0.6681 -0.9879
14277TIP3   OH264245   4.664   0.551   3.932 -0.5694  0.0283 -0.1144
14277TIP3    H164246   4.625   0.612   3.995  0.3860  0.3341  0.1922
14277TIP3    H264247   4.703   0.482   3.986 -2.2651 -1.3014 -0.4660
14278TIP3   OH264248   3.429   0.800  11.595  0.1809  0.6812 -0.6639
14278TIP3    H164249   3.406   0.758  11.512 -0.7982  0.1795 -0.1541
14278TIP3    H264250   3.428   0.729  11.659  1.1572  1.0263 -0.2505
14279TIP3   OH264251   4.154   3.375  15.756  0.1502 -0.0765 -0.0986
14279TIP3    H164252   4.190   3.325  15.829 -2.1569 -1.4625  0.1948
14279TIP3    H264253   4.176   3.322  15.679  1.9280  1.0033 -0.3767
14280TIP3   OH264254   2.296   4.458  12.738  0.1899  0.1044  0.3533
14280TIP3    H164255   2.227   4.512  12.777 -0.7661 -0.0606 -1.0306
14280TIP3    H264256   2.302   4.489  12.647  0.7277 -1.0499 -0.0240
14281TIP3   OH264257   1.766   3.365   4.408  0.4278  0.5199 -0.0561
14281TIP3    H164258   1.809   3.325   4.333  0.9472  0.5109  0.2448
14281TIP3    H264259   1.675   3.335   4.403  1.0111 -1.5361  0.7309
14282TIP3   OH264260   1.187   4.699   3.988  0.0953 -0.3593  0.2020
14282TIP3    H164261   1.144   4.779   3.958 -1.3238 -1.4082 -0.6711
14282TIP3    H264262   1.280   4.714   3.970 -0.3065  0.5027 -1.3792
14283TIP3   OH264263   1.568   3.755  15.157 -0.3074 -0.3570  0.0742
14283TIP3    H164264   1.560   3.731  15.064  2.6331  0.0532 -0.3976
14283TIP3    H264265   1.571   3.671  15.203 -1.6306 -0.5654 -0.1904
14284TIP3   OH264266   0.959   0.433  11.173  0.3280  0.1299  0.3588
14284TIP3    H164267   0.955   0.489  11.095  0.6757  0.3964  0.5325
14284TIP3    H264268   0.994   0.350  11.141  1.8896  0.7156  0.4937
14285TIP3   OH264269   4.143   0.596  13.333  0.3368  0.1352  0.5974
14285TIP3    H164270   4.216   0.588  13.271 -0.1414 -1.3070  0.1858
14285TIP3    H264271   4.138   0.690  13.352  1.0582  0.4993 -0.8672
14286TIP3   OH264272   1.395   6.203   1.492  0.4190 -0.7585  0.1867
14286TIP3    H164273   1.428   6.171   1.408  1.3635  1.8790 -0.5429
14286TIP3    H264274   1.462   6.178   1.556  0.6252 -1.1009 -0.1606
14287TIP3   OH264275   2.178   6.217  12.044 -0.1087 -0.9084 -0.4228
14287TIP3    H164276   2.089   6.237  12.016 -0.3651 -1.6818 -0.1919
14287TIP3    H264277   2.167   6.184  12.134  0.7357  2.1351  0.9165
14288TIP3   OH264278   2.646   0.228   5.931  0.0269  0.2402  0.5132
14288TIP3    H164279   2.728   0.195   5.895 -0.6820  0.3812 -1.3198
14288TIP3    H264280   2.598   0.149   5.957  0.0882  0.0635  0.0919
14289TIP3   OH264281   3.510   6.617  17.011 -0.7733  0.2688  0.2673
14289TIP3    H164282   3.593   6.664  17.008  0.3923 -1.4018  2.9374
14289TIP3    H264283   3.456   6.668  17.071 -1.3694  0.8194 -0.7086
14290TIP3   OH264284   0.579   0.404  11.087  0.0879 -0.6111 -0.0972
14290TIP3    H164285   0.662   0.394  11.135  0.3062  0.6090 -0.1741
14290TIP3    H264286   0.540   0.317  11.087  0.9960 -1.0343  0.6428
14291TIP3   OH264287   6.546   6.136  17.235  0.3550 -0.0687 -0.2822
14291TIP3    H164288   6.608   6.155  17.165  1.3235  1.9980  1.0254
14291TIP3    H264289   6.461   6.161  17.199  0.6625 -0.1487 -1.0938
14292TIP3   OH264290   0.025   6.178  15.603 -0.5380 -0.1715 -0.8169
14292TIP3    H164291   0.060   6.266  15.596  0.8736 -0.5035  1.1771
14292TIP3    H264292  -0.056   6.188  15.653 -0.9415  0.1119 -1.5283
14293TIP3   OH264293   6.205   1.419   4.617 -0.0650 -0.2620  0.4358
14293TIP3    H164294   6.241   1.420   4.705 -0.3767 -1.0740  0.5888
14293TIP3    H264295   6.272   1.461   4.562 -0.2536  1.0639  1.1815
14294TIP3   OH264296   1.682   5.778   1.392 -0.2420  0.1532 -0.5252
14294TIP3    H164297   1.689   5.769   1.297 -1.0605  1.6502 -0.7513
14294TIP3    H264298   1.734   5.855   1.414 -0.0281 -0.1977  0.2539
14295TIP3   OH264299   0.297   0.543  14.293 -0.6461 -0.3132 -0.3408
14295TIP3    H164300   0.218   0.517  14.340 -1.0538 -0.0231 -0.8570
14295TIP3    H264301   0.295   0.638  14.293 -0.9824 -0.3082 -1.4784
14296TIP3   OH264302   6.257   1.362   2.903  0.3211  0.2390  0.1971
14296TIP3    H164303   6.316   1.438   2.908 -2.4328  2.4733  0.9941
14296TIP3    H264304   6.266   1.331   2.813  2.8692  0.3003  0.3573
14297TIP3   OH264305   1.157   4.206   0.389  0.3401 -0.1416  0.0005
14297TIP3    H164306   1.146   4.266   0.463  1.7254  0.6246 -0.3669
14297TIP3    H264307   1.110   4.247   0.317  0.5669  0.0848 -0.0222
14298TIP3   OH264308   3.179   3.528  10.485 -0.3331  0.2444  0.5779
14298TIP3    H164309   3.140   3.457  10.534 -1.7370  1.1840  0.8858
14298TIP3    H264310   3.121   3.541  10.410 -0.1317  1.0928  0.5495
14299TIP3   OH264311   4.574   5.181  13.296  0.0352 -0.1890 -0.3981
14299TIP3    H164312   4.588   5.269  13.261  0.9144 -0.6648 -1.2837
14299TIP3    H264313   4.655   5.133  13.275  0.4621 -0.6302  1.9239
14300TIP3   OH264314   0.390   2.328  12.867 -0.0265 -0.1500 -0.2669
14300TIP3    H164315   0.363   2.250  12.916  1.1046 -0.8795 -0.7532
14300TIP3    H264316   0.326   2.336  12.796 -1.0806  0.3199  0.7210
14301TIP3   OH264317   0.095   2.881   3.404 -0.4461 -0.2391  0.1508
14301TIP3    H164318   0.073   2.959   3.353  0.8661  0.0880  0.0460
14301TIP3    H264319   0.190   2.873   3.396 -0.0926  0.1652  2.9867
14302TIP3   OH264320   6.097   2.180  16.074 -0.6581 -0.2775 -0.5701
14302TIP3    H164321   6.107   2.086  16.092  0.4813  0.0578  0.6916
14302TIP3    H264322   6.099   2.186  15.978  4.1020 -1.1667 -0.7750
14303TIP3   OH264323   2.971   3.243  11.597 -0.5392  0.0290 -0.1312
14303TIP3    H164324   3.012   3.171  11.549 -0.3894 -1.9330  2.6678
14303TIP3    H264325   3.043   3.301  11.621 -0.0101 -1.0111  0.9047
14304TIP3   OH264326   2.268   6.101  15.804 -0.5061 -0.1141  0.0422
14304TIP3    H164327   2.237   6.160  15.735 -0.5900  0.2545  0.3931
14304TIP3    H264328   2.229   6.017  15.782 -0.3993 -0.0384 -0.4548
14305TIP3   OH264329   1.640   3.388  16.311 -0.3091  0.2066 -0.2662
14305TIP3    H164330   1.561   3.429  16.276 -0.6804 -1.2805 -1.2690
14305TIP3    H264331   1.608   3.313  16.362  0.3876  0.6272  0.8326
14306TIP3   OH264332   4.987   0.488  16.166  0.0268 -0.3521  0.2314
14306TIP3    H164333   4.920   0.463  16.103 -1.1710  0.1699  1.2601
14306TIP3    H264334   4.979   0.583  16.173  0.0112 -0.4232  1.2889
14307TIP3   OH264335   5.659   6.164   5.410  0.1504  0.6706  0.3851
14307TIP3    H164336   5.600   6.201   5.475 -1.3384  1.2028 -1.1882
14307TIP3    H264337   5.664   6.071   5.431  0.3227  0.9535  1.6800
14308TIP3   OH264338   3.573   0.025   1.731 -0.1562 -0.1678 -0.3966
14308TIP3    H164339   3.541   0.113   1.752  2.5713  1.2477 -1.6872
14308TIP3    H264340   3.495  -0.031   1.737 -1.4369  1.6999  3.5650
14309TIP3   OH264341   0.258   1.814   0.947 -0.1045 -0.0970 -0.0667
14309TIP3    H164342   0.352   1.823   0.932  0.3466 -4.5998 -1.2031
14309TIP3    H264343   0.248   1.821   1.042  1.7188 -1.5775  0.2662
14310TIP3   OH264344   6.327   3.010   2.279  0.6249 -0.0505  0.0445
14310TIP3    H164345   6.260   2.952   2.314  0.1265  0.0839 -0.6521
14310TIP3    H264346   6.344   2.976   2.191  0.9254  0.3644 -0.0611
14311TIP3   OH264347   5.519   4.027   5.870 -0.0086 -0.1310  0.0352
14311TIP3    H164348   5.565   4.101   5.911 -0.8143  0.1978  0.3530
14311TIP3    H264349   5.431   4.030   5.906 -0.3868 -0.5560 -0.8280
14312TIP3   OH264350   0.055   2.724  13.490  0.2569  0.6089  0.4979
14312TIP3    H164351   0.136   2.755  13.450 -0.6599  0.7337 -1.3731
14312TIP3    H264352   0.027   2.796  13.546  0.8117  1.0614  0.2047
14313TIP3   OH264353   1.620   6.233  11.514  0.0832  0.2224 -0.0382
14313TIP3    H164354   1.655   6.173  11.580  0.2254 -0.5793 -0.8209
14313TIP3    H264355   1.525   6.227  11.523  0.0619 -0.7998 -0.6594
14314TIP3   OH264356   0.905   5.255  13.967 -0.8801  0.2545 -0.5145
14314TIP3    H164357   0.886   5.330  13.911 -0.8214  2.3925  2.1646
14314TIP3    H264358   0.823   5.239  14.014 -0.3536 -0.1750  0.2717
14315TIP3   OH264359   1.912   1.625  13.476 -0.5701  0.5373  0.2890
14315TIP3    H164360   1.862   1.576  13.541 -1.2865  0.7250 -0.1007
14315TIP3    H264361   1.933   1.708  13.520  0.7668 -0.1545  0.9949
14316TIP3   OH264362   2.140   4.665   3.895  0.3151  0.0975  0.0728
14316TIP3    H164363   2.188   4.691   3.816 -0.8733  0.3868 -0.5657
14316TIP3    H264364   2.171   4.726   3.962  0.4074  0.6643 -0.4750
14317TIP3   OH264365   5.037   2.634   0.053 -0.0185 -0.3042 -0.1156
14317TIP3    H164366   5.061   2.633  -0.040  0.7022  2.1090 -0.0395
14317TIP3    H264367   5.118   2.656   0.098 -0.9084  1.2914  0.7949
14318TIP3   OH264368   5.714   0.751   3.437 -0.3414  0.9268 -0.4354
14318TIP3    H164369   5.627   0.769   3.401 -0.3171 -0.5785 -1.3137
14318TIP3    H264370   5.767   0.728   3.361  0.2615 -0.2521  0.3169
14319TIP3   OH264371   2.551   4.157   2.339  0.5609  0.3022  0.1953
14319TIP3    H164372   2.551   4.081   2.282 -1.1661 -0.9379  1.7299
14319TIP3    H264373   2.526   4.230   2.282 -0.8718 -0.8429 -0.7159
14320TIP3   OH264374   0.345   0.976   4.985 -0.2610 -0.3766  0.3384
14320TIP3    H164375   0.398   0.976   5.064  2.2140  2.2339 -1.1327
14320TIP3    H264376   0.270   1.032   5.005  0.8114  1.0041  0.6082
14321TIP3   OH264377   5.045   0.236  17.211 -0.1759  0.0464  0.2781
14321TIP3    H164378   5.049   0.262  17.303  0.2720  0.7529  0.0661
14321TIP3    H264379   5.080   0.311  17.163 -2.5013  0.6078 -0.6576
14322TIP3   OH264380   5.905   3.873   2.165 -0.0196 -0.0626  0.1356
14322TIP3    H164381   5.987   3.906   2.203  0.1239 -1.6779  1.3378
14322TIP3    H264382   5.873   3.946   2.112  0.8811  1.5659  1.6829
14323TIP3   OH264383   0.951   5.523  16.687  0.1851 -0.0023  0.1087
14323TIP3    H164384   0.901   5.487  16.760  0.2216 -0.9363 -0.3163
14323TIP3    H264385   0.887   5.574  16.637 -0.5800 -1.8049 -0.8571
14324TIP3   OH264386   3.971   5.065   4.096 -0.3274 -0.0628 -0.5185
14324TIP3    H164387   4.016   5.134   4.145  1.7474 -1.8849  0.2842
14324TIP3    H264388   3.880   5.071   4.125  0.1187  1.3158  0.7337
14325TIP3   OH264389   2.603   0.630  17.313  0.2236 -0.4303  0.3282
14325TIP3    H164390   2.528   0.645  17.371 -0.8624 -2.3197 -0.4596
14325TIP3    H264391   2.670   0.590  17.369 -1.3178 -3.5492  0.1835
14326TIP3   OH264392   1.185   5.256   4.662  0.4702 -0.2573  0.0186
14326TIP3    H164393   1.153   5.234   4.749  0.2964 -0.9309 -0.2134
14326TIP3    H264394   1.142   5.340   4.641  0.9063  0.1615  0.7786
14327TIP3   OH264395   3.340   4.035  14.473  0.0921 -0.1399 -0.1196
14327TIP3    H164396   3.413   4.043  14.534 -1.1987  0.4540  1.4218
14327TIP3    H264397   3.334   4.121  14.432 -1.0969  0.5767  1.4350
14328TIP3   OH264398   1.749   0.852  10.470  0.2540 -0.2411 -0.2984
14328TIP3    H164399   1.712   0.808  10.547  1.0815  1.1546  0.9630
14328TIP3    H264400   1.840   0.869  10.494  0.5960  0.0097 -1.7100
14329TIP3   OH264401   2.494   1.190   6.863  0.3286  0.5854  0.2093
14329TIP3    H164402   2.543   1.271   6.872 -1.5499  1.6819  1.2079
14329TIP3    H264403   2.410   1.216   6.824 -0.7591 -0.6844  1.5745
14330TIP3   OH264404   5.737   6.080   4.844 -0.1227 -0.7855  0.4011
14330TIP3    H164405   5.703   5.999   4.806 -1.1080  0.2276 -0.9658
14330TIP3    H264406   5.724   6.146   4.776  0.7210  0.5221  1.4562
14331TIP3   OH264407   0.297   4.172  13.817  0.2891 -0.2532 -0.3831
14331TIP3    H164408   0.379   4.222  13.815 -0.2296  0.6246 -2.0037
14331TIP3    H264409   0.236   4.225  13.766 -1.1034 -1.2323  0.2049
14332TIP3   OH264410   6.461   5.036   1.109  0.5798 -0.4838  0.6890
14332TIP3    H164411   6.479   5.102   1.041  0.1307 -2.0658 -1.0435
14332TIP3    H264412   6.503   4.956   1.076 -0.8878 -1.6555  1.5643
14333TIP3   OH264413   3.483   1.717   3.399 -0.0540  0.0426  0.0391
14333TIP3    H164414   3.453   1.760   3.479  1.1712  0.1676  0.4434
14333TIP3    H264415   3.563   1.671   3.424 -0.9026 -1.9003 -0.5573
14334TIP3   OH264416   1.408   0.487   3.075  0.2388 -0.2965  0.3261
14334TIP3    H164417   1.434   0.407   3.120 -1.5840 -0.3463  1.3709
14334TIP3    H264418   1.489   0.520   3.035  1.0155 -2.6412 -0.1520
14335TIP3   OH264419   3.601   3.282  11.673  0.4453  0.1538 -0.0548
14335TIP3    H164420   3.583   3.187  11.670 -0.6939  0.2396  2.1399
14335TIP3    H264421   3.558   3.316  11.594  0.6713 -1.1082 -0.7570
14336TIP3   OH264422   5.233   6.479  13.219  0.3109 -0.1920  0.3380
14336TIP3    H164423   5.303   6.522  13.170 -0.6966  1.2535  0.0862
14336TIP3    H264424   5.163   6.466  13.155  0.4955 -2.0430  0.4757
14337TIP3   OH264425   2.095   1.247   2.395  0.0956 -0.0270  0.1442
14337TIP3    H164426   2.184   1.271   2.369  0.6752 -0.5120  1.5736
14337TIP3    H264427   2.051   1.223   2.313  0.5633  2.3882 -0.9001
14338TIP3   OH264428   0.458   2.398   1.369  0.5643 -0.0992  0.2583
14338TIP3    H164429   0.402   2.462   1.411  0.0610 -1.0662  1.1234
14338TIP3    H264430   0.456   2.420   1.276 -1.0620  0.0338  0.3077
14339TIP3   OH264431   5.083   1.155  11.767 -0.3912 -0.5482  0.9184
14339TIP3    H164432   5.093   1.158  11.863 -1.1246 -1.2150  1.0227
14339TIP3    H264433   5.089   1.063  11.745 -2.5304 -0.6620  0.5995
14340TIP3   OH264434   5.277   1.157   0.170  0.0860  0.1675 -0.3426
14340TIP3    H164435   5.246   1.247   0.172 -0.0086  0.1368 -0.3866
14340TIP3    H264436   5.294   1.140   0.077 -2.0841 -0.5883 -0.6579
14341TIP3   OH264437   5.380   5.020   2.724  0.0750  0.5367  0.0876
14341TIP3    H164438   5.407   5.105   2.760 -2.7167  1.5400  0.0385
14341TIP3    H264439   5.375   5.035   2.629  1.4717 -0.3196 -0.1550
14342TIP3   OH264440   3.983   3.448  11.112  0.2262 -0.3767 -0.2979
14342TIP3    H164441   3.992   3.356  11.089 -0.4266 -0.2158 -1.2551
14342TIP3    H264442   3.954   3.448  11.203 -0.7554 -1.1519 -0.6028
14343TIP3   OH264443   5.256   6.077  12.039 -0.6987 -0.3540  0.2254
14343TIP3    H164444   5.287   6.163  12.010  0.9854 -1.0496 -0.1804
14343TIP3    H264445   5.161   6.083  12.034 -0.6108  1.3835 -0.0760
14344TIP3   OH264446   3.811   2.979   0.709 -0.1002 -0.0377 -0.2142
14344TIP3    H164447   3.843   2.889   0.703 -0.9254 -0.3075 -0.7189
14344TIP3    H264448   3.848   3.012   0.791 -1.1428 -1.4005  0.8725
14345TIP3   OH264449   0.131   3.789   1.773 -0.1060  0.0295 -0.1895
14345TIP3    H164450   0.055   3.734   1.793  1.1147 -1.4709  0.5077
14345TIP3    H264451   0.122   3.864   1.831 -0.5698 -0.5953  0.5676
14346TIP3   OH264452   0.831   2.849   4.093  0.1060 -0.6441  0.1877
14346TIP3    H164453   0.826   2.872   4.000 -0.5421  0.1724  0.4147
14346TIP3    H264454   0.776   2.914   4.137  0.6029 -0.8723  1.1729
14347TIP3   OH264455   6.428   4.104  11.641  0.0800 -0.3091  0.1019
14347TIP3    H164456   6.370   4.098  11.717 -1.5958  2.1017 -0.8631
14347TIP3    H264457   6.383   4.056  11.572 -0.2223  0.5692 -0.3271
14348TIP3   OH264458   0.364   3.264   1.285  0.0065  0.4220  0.4646
14348TIP3    H164459   0.385   3.354   1.260 -0.7584 -0.2686 -3.2582
14348TIP3    H264460   0.432   3.211   1.244 -1.1248 -0.8517  0.1437
14349TIP3   OH264461   1.952   5.899  11.116  0.0313 -0.1184 -0.4166
14349TIP3    H164462   1.938   5.883  11.209  0.5101 -0.6014 -0.4221
14349TIP3    H264463   1.953   5.994  11.107  1.1813 -0.0560  0.2606
14350TIP3   OH264464   0.745   1.687  10.850 -0.3108 -0.0691  0.5293
14350TIP3    H164465   0.817   1.741  10.818 -1.0542  0.8671  0.3989
14350TIP3    H264466   0.691   1.671  10.773 -0.9370  0.3330  0.8818
14351TIP3   OH264467   5.016   0.767   3.006 -0.2530  0.3245 -0.0119
14351TIP3    H164468   4.927   0.794   3.027 -0.2588  0.0968  0.2605
14351TIP3    H264469   5.010   0.731   2.917  0.0096  2.4592 -0.9541
14352TIP3   OH264470   4.771   5.710   0.669  0.5437 -0.2990  0.2487
14352TIP3    H164471   4.726   5.648   0.612 -0.5434  1.4839 -0.9705
14352TIP3    H264472   4.700   5.753   0.717  1.4061 -1.4654  2.7242
14353TIP3   OH264473   1.541   3.054   5.974  0.2935  0.0585  0.8836
14353TIP3    H164474   1.616   3.040   6.033 -0.2628  0.4827  1.7062
14353TIP3    H264475   1.469   3.077   6.032 -0.2518  0.5641  0.0248
14354TIP3   OH264476   6.325   5.532  12.648 -0.2155 -0.0079 -0.6947
14354TIP3    H164477   6.371   5.613  12.625 -1.1913  1.1190  1.0666
14354TIP3    H264478   6.395   5.469  12.666  0.6965  1.3230  0.7933
14355TIP3   OH264479   0.438   3.563   4.077 -0.1173 -0.2093 -0.3373
14355TIP3    H164480   0.386   3.525   4.006 -0.2755  0.5848 -0.6574
14355TIP3    H264481   0.511   3.605   4.033  0.2860 -0.5004  0.0443
14356TIP3   OH264482   5.730   4.182   3.496  0.4682 -0.4591 -0.1386
14356TIP3    H164483   5.733   4.152   3.405 -1.0444  0.1382 -0.4115
14356TIP3    H264484   5.639   4.166   3.523  0.8589 -0.4830  1.2234
14357TIP3   OH264485   2.983   0.535  12.824 -0.2610 -0.2317  0.3485
14357TIP3    H164486   2.889   0.535  12.806 -0.2572  2.0718  0.0452
14357TIP3    H264487   3.014   0.451  12.790 -2.3636 -1.5689  1.5209
14358TIP3   OH264488   1.451   0.452  16.839  0.3151  0.8569 -0.0795
14358TIP3    H164489   1.541   0.420  16.843  0.7166  1.8537 -0.6779
14358TIP3    H264490   1.445   0.497  16.755 -0.6891  0.9781  0.0403
14359TIP3   OH264491   0.631   2.108  11.612  0.1963 -0.1196  0.0070
14359TIP3    H164492   0.704   2.070  11.662  1.2401  0.7989 -0.7756
14359TIP3    H264493   0.666   2.117  11.523 -1.5934 -1.6613 -0.9250
14360TIP3   OH264494   3.987   0.426  11.098  0.2255  0.2680 -0.8681
14360TIP3    H164495   3.906   0.432  11.047 -0.9690 -3.4393  0.2387
14360TIP3    H264496   4.017   0.336  11.082  2.3839  0.5330  1.2488
14361TIP3   OH264497   5.003   1.611   3.024 -0.4646  0.0178 -0.0399
14361TIP3    H164498   5.070   1.598   2.958  1.0891  1.1969  1.2152
14361TIP3    H264499   4.993   1.526   3.066 -1.4201 -0.7271 -1.6852
14362TIP3   OH264500   3.932   6.725  16.772  0.0170 -0.1570  0.3815
14362TIP3    H164501   3.986   6.659  16.729 -1.1967 -1.1123  0.2576
14362TIP3    H264502   3.847   6.719  16.728 -0.6587  0.2245  1.5774
14363TIP3   OH264503   0.007   4.442  16.044  0.5250 -0.4647  0.0014
14363TIP3    H164504  -0.022   4.458  16.134 -1.2240 -1.3176 -0.3760
14363TIP3    H264505   0.019   4.348  16.039  0.4826 -0.4333 -0.7061
14364TIP3   OH264506   5.946   2.106   3.423 -0.3317  0.4183  0.2309
14364TIP3    H164507   5.993   2.030   3.391 -1.5457  0.0442 -0.7770
14364TIP3    H264508   5.854   2.079   3.424 -0.7686  1.7983  0.0247
14365TIP3   OH264509   1.222   2.936   1.608 -0.1713  0.2732  0.4379
14365TIP3    H164510   1.272   2.998   1.555 -0.2216  0.6661  0.8416
14365TIP3    H264511   1.139   2.925   1.561 -0.6932  1.5176  1.0042
14366TIP3   OH264512   0.287   6.722   2.670 -0.1462  0.2416  0.0601
14366TIP3    H164513   0.280   6.794   2.733  2.1053  0.6972 -0.1527
14366TIP3    H264514   0.336   6.759   2.596  0.9322 -1.4476 -0.1163
14367TIP3   OH264515   1.316   2.002  17.353 -0.2343  0.5725  0.1855
14367TIP3    H164516   1.391   2.015  17.411 -0.6493 -1.1266  1.1533
14367TIP3    H264517   1.253   2.070  17.380 -0.6958 -0.5989  2.2631
14368TIP3   OH264518   1.753   3.910   1.763  0.7195  0.0686 -0.5830
14368TIP3    H164519   1.773   3.826   1.804  1.4919  0.8973  0.8269
14368TIP3    H264520   1.802   3.975   1.815 -0.0113  1.4105 -1.4936
14369TIP3   OH264521   5.300   3.440   5.081  0.2482  0.4064  0.0960
14369TIP3    H164522   5.272   3.523   5.042  0.0377 -0.1402 -0.9608
14369TIP3    H264523   5.253   3.373   5.031 -0.6641 -0.3094  1.8395
14370TIP3   OH264524   0.098   5.293  12.981  0.2638 -0.6692 -0.0468
14370TIP3    H164525   0.179   5.270  12.935  1.2786  1.2524  0.6783
14370TIP3    H264526   0.093   5.388  12.975 -0.3603 -0.4794  2.4592
14371TIP3   OH264527   5.575   2.989   5.329 -0.0282  0.3989  0.4314
14371TIP3    H164528   5.596   2.979   5.236  1.0935  2.0954  0.4453
14371TIP3    H264529   5.595   2.904   5.368  4.1313  0.9345 -0.1208
14372TIP3   OH264530   6.657   5.770   3.842 -0.3900  0.2788  0.2581
14372TIP3    H164531   6.740   5.818   3.833 -0.8159  0.9719 -0.0506
14372TIP3    H264532   6.592   5.838   3.859 -1.3406  0.0535 -2.1070
14373TIP3   OH264533   2.771   6.598  12.930 -0.0612 -0.3744  0.2009
14373TIP3    H164534   2.765   6.590  12.835 -0.5532 -0.5129  0.2354
14373TIP3    H264535   2.733   6.516  12.963  0.8220 -0.6675  0.5074
14374TIP3   OH264536   4.652   0.299  16.680 -0.0591 -0.5743  0.1000
14374TIP3    H164537   4.573   0.352  16.697  0.8519  2.0785 -2.9544
14374TIP3    H264538   4.706   0.313  16.757 -1.2630  0.1696  0.8520
14375TIP3   OH264539   2.469   0.036   0.574 -0.3959  0.0602  0.0598
14375TIP3    H164540   2.449  -0.024   0.502 -1.2466 -0.4525  0.6959
14375TIP3    H264541   2.548   0.082   0.546  0.1314 -1.1652 -0.5786
14376TIP3   OH264542   2.510   3.669   5.032  0.4545  0.1130 -0.1029
14376TIP3    H164543   2.591   3.684   5.081  0.9908  0.0159 -0.9302
14376TIP3    H264544   2.533   3.691   4.942 -0.3208 -0.3360 -0.4175
14377TIP3   OH264545   0.890   6.037  12.378  0.1024 -0.3947 -0.1346
14377TIP3    H164546   0.924   5.955  12.413  0.0231 -0.5219 -0.3520
14377TIP3    H264547   0.942   6.054  12.299  1.2502  0.6326  0.7967
14378TIP3   OH264548   0.275   5.122   1.571  0.2853  0.1480 -0.0853
14378TIP3    H164549   0.311   5.041   1.606 -3.2661 -1.4181  0.4067
14378TIP3    H264550   0.307   5.190   1.630  0.4463 -1.4105  1.7140
14379TIP3   OH264551   2.324   5.292  12.617  0.1635 -0.1314  0.2816
14379TIP3    H164552   2.385   5.294  12.691  1.8253 -2.2331 -0.9297
14379TIP3    H264553   2.374   5.330  12.544 -1.5341  2.1588  0.1743
14380TIP3   OH264554   0.237   3.848   6.173 -0.4821 -0.1498  0.0174
14380TIP3    H164555   0.228   3.760   6.210  1.4219  0.0013  0.9274
14380TIP3    H264556   0.329   3.869   6.183 -0.8912  1.9621 -0.2239
14381TIP3   OH264557   0.425   0.468  14.721  0.0203 -0.3731 -0.6871
14381TIP3    H164558   0.384   0.546  14.760 -0.6983 -0.5198 -1.1305
14381TIP3    H264559   0.354   0.426  14.672  0.9031 -0.1948 -2.1479
14382TIP3   OH264560   0.522   6.729  14.808 -0.0039 -0.6122  0.2819
14382TIP3    H164561   0.510   6.764  14.720 -2.5011  1.1108  1.1906
14382TIP3    H264562   0.538   6.806  14.863 -0.2708 -1.4547  1.5939
14383TIP3   OH264563   6.261   2.448   2.406 -0.5347 -0.0214  0.3152
14383TIP3    H164564   6.261   2.409   2.493  2.5289  0.5161  0.6769
14383TIP3    H264565   6.255   2.542   2.421 -1.4100  0.0093 -0.1608
14384TIP3   OH264566   3.460   1.146  15.284 -0.0453  0.5980 -0.4650
14384TIP3    H164567   3.398   1.209  15.248 -0.5471  0.7876  0.6753
14384TIP3    H264568   3.406   1.080  15.328  0.5302  0.7849  0.5844
14385TIP3   OH264569   5.530   4.227   1.691  0.1511  0.1440  0.6280
14385TIP3    H164570   5.521   4.312   1.733  3.7653  0.6982  0.5956
14385TIP3    H264571   5.576   4.245   1.609  1.0843 -1.7851  0.6612
14386TIP3   OH264572   6.744   0.663  11.465 -0.5185 -0.1561 -0.5617
14386TIP3    H164573   6.800   0.737  11.489  0.9212 -1.9135  1.8487
14386TIP3    H264574   6.783   0.628  11.385  0.5800 -0.0639 -0.0807
14387TIP3   OH264575   6.180   4.859   3.003 -0.4734  0.2650 -0.3182
14387TIP3    H164576   6.198   4.940   2.956 -1.7538  0.3077 -0.7687
14387TIP3    H264577   6.148   4.799   2.935  0.5182 -0.6617 -0.0111
14388TIP3   OH264578   0.801   3.913  15.702 -0.2247  0.2795 -0.0676
14388TIP3    H164579   0.745   3.893  15.627 -0.7989 -1.1688  0.7124
14388TIP3    H264580   0.888   3.928  15.663 -0.5277 -0.3534 -1.0296
14389TIP3   OH264581   0.073   1.461  13.225 -0.1874  0.0509  0.5401
14389TIP3    H164582   0.127   1.512  13.285  0.1344  0.1381  0.1846
14389TIP3    H264583   0.040   1.524  13.161 -0.2153 -0.0988  0.4033
14390TIP3   OH264584   0.905   4.449   6.579  0.2746 -0.3284  0.0845
14390TIP3    H164585   0.832   4.388   6.581  0.5599 -0.6528  0.6201
14390TIP3    H264586   0.864   4.534   6.563 -0.0257 -0.8006 -1.9444
14391TIP3   OH264587   4.443   2.547   2.765  0.1360  0.2408  0.2584
14391TIP3    H164588   4.529   2.507   2.768 -0.7535 -1.7213  1.8068
14391TIP3    H264589   4.382   2.473   2.758 -1.4185  1.6111 -2.4716
14392TIP3   OH264590   1.414   4.335   4.003 -0.3866  0.0406 -0.4926
14392TIP3    H164591   1.416   4.410   4.063 -0.8439  1.5060 -2.2173
14392TIP3    H264592   1.459   4.265   4.051 -2.6416  0.4017  2.4570
14393TIP3   OH264593   3.071   1.297  14.061  0.1342  0.3395  0.1467
14393TIP3    H164594   3.031   1.360  14.002 -1.0790 -1.0449 -0.5695
14393TIP3    H264595   3.155   1.276  14.021 -0.4713 -0.2232 -0.8667
14394TIP3   OH264596   3.957   6.659  15.031  0.2004 -0.6751 -0.0668
14394TIP3    H164597   3.993   6.574  15.007  1.0797 -0.0615 -1.0258
14394TIP3    H264598   3.968   6.713  14.952  1.6727  0.9670  1.1732
14395TIP3   OH264599   3.806   4.166   0.864 -0.3304 -0.2779  0.6791
14395TIP3    H164600   3.865   4.234   0.832 -1.3753  0.1605 -0.3905
14395TIP3    H264601   3.802   4.101   0.794 -2.3799  0.5266 -0.0404
14396TIP3   OH264602   5.282   3.724  14.346 -0.3340 -0.0896 -0.1844
14396TIP3    H164603   5.345   3.795  14.355  0.6317 -1.1526  2.0202
14396TIP3    H264604   5.207   3.765  14.302  0.3438  2.1735  0.6172
14397TIP3   OH264605   6.342   2.250   4.645  0.1886  0.8059 -0.0337
14397TIP3    H164606   6.369   2.306   4.718  1.1784 -0.5722  0.6895
14397TIP3    H264607   6.357   2.304   4.567  0.8199  1.6574  0.6521
14398TIP3   OH264608   5.115   4.230   3.016 -0.7096  0.1947  0.5711
14398TIP3    H164609   5.132   4.140   3.044  0.6998  0.5677  1.0004
14398TIP3    H264610   5.192   4.255   2.965 -0.3962  1.6485  1.6850
14399TIP3   OH264611   5.206   5.532  13.972  0.1797 -0.4314 -0.3513
14399TIP3    H164612   5.202   5.444  14.008 -1.5019  0.1150  0.9450
14399TIP3    H264613   5.299   5.554  13.970  0.6355 -2.3034 -0.9199
14400TIP3   OH264614   2.059   2.060   5.013  0.1629  0.1720 -0.0178
14400TIP3    H164615   2.041   2.034   5.103  2.1051 -0.9776  0.0986
14400TIP3    H264616   2.004   2.003   4.959 -2.5050  2.1601  0.3802
14401TIP3   OH264617   0.722   5.071   3.846 -0.1093  0.0404 -0.1235
14401TIP3    H164618   0.652   5.007   3.857 -0.2400  0.5936  3.5485
14401TIP3    H264619   0.678   5.156   3.850  0.6102  0.3912  2.1984
14402TIP3   OH264620   2.970   0.293   0.941  0.5943  0.5557  0.6800
14402TIP3    H164621   3.059   0.299   0.906  0.7724  0.3754  1.0976
14402TIP3    H264622   2.957   0.199   0.956 -0.1442  0.4269 -0.5904
14403TIP3   OH264623   0.595   2.721   1.510 -0.0488 -0.0205 -0.3622
14403TIP3    H164624   0.688   2.734   1.531 -0.2833  1.4445 -0.1339
14403TIP3    H264625   0.562   2.667   1.581  0.6631 -0.7461 -0.5588
14404TIP3   OH264626   6.512   6.613  15.574  0.1651 -0.1729  0.5461
14404TIP3    H164627   6.563   6.675  15.523  1.4675 -0.7676  1.0788
14404TIP3    H264628   6.479   6.550  15.510 -0.3683  0.5292  0.1293
14405TIP3   OH264629   5.408   5.671   2.624 -0.0666 -0.5662  0.0769
14405TIP3    H164630   5.364   5.730   2.685  1.7475  0.4052  0.5044
14405TIP3    H264631   5.341   5.652   2.558 -1.0532  1.1052  0.5235
14406TIP3   OH264632   5.928   2.093  16.294  0.1066  0.5516  0.3158
14406TIP3    H164633   5.969   2.072  16.378  2.2715 -0.4899 -0.9045
14406TIP3    H264634   5.922   2.188  16.294  0.4292  0.5975  1.4875
14407TIP3   OH264635   5.795   0.216   0.284  0.5213  0.3262 -0.2131
14407TIP3    H164636   5.861   0.231   0.215  0.9258 -0.3622  0.0210
14407TIP3    H264637   5.718   0.185   0.237 -1.2266  5.0926 -1.0756
14408TIP3   OH264638   1.868   5.667  13.444  0.3315  0.5253 -0.6003
14408TIP3    H164639   1.818   5.604  13.392  1.1365  0.3348 -1.1777
14408TIP3    H264640   1.952   5.623  13.460 -0.0026  0.4615  1.1375
14409TIP3   OH264641   1.123   6.549   1.271  0.6590  0.3735 -0.5625
14409TIP3    H164642   1.188   6.593   1.216  1.0626 -0.4829 -0.7909
14409TIP3    H264643   1.174   6.512   1.343  0.3927 -0.1068 -0.6197
14410TIP3   OH264644   5.114   4.855   4.548  0.2038 -0.0393  0.1418
14410TIP3    H164645   5.120   4.765   4.578  1.5324 -0.4429 -1.1983
14410TIP3    H264646   5.025   4.862   4.513  0.4547 -1.2085 -0.8067
14411TIP3   OH264647   1.811   1.808  13.267  0.2298  0.0947 -0.3415
14411TIP3    H164648   1.823   1.741  13.200 -2.2737 -0.1247 -0.6607
14411TIP3    H264649   1.811   1.759  13.350  1.8992  0.1935 -0.2460
14412TIP3   OH264650   1.397   4.161   5.292  0.2670 -0.0444 -0.1989
14412TIP3    H164651   1.361   4.213   5.364 -3.4952 -0.9345 -1.2635
14412TIP3    H264652   1.389   4.070   5.321 -0.4037 -0.3666 -1.3470
14413TIP3   OH264653   4.695   3.449  15.300 -0.0224  0.1166  0.1417
14413TIP3    H164654   4.780   3.408  15.314 -0.7916 -1.3679  0.7012
14413TIP3    H264655   4.672   3.487  15.385  0.0768  0.5035 -0.0044
14414TIP3   OH264656   1.820   3.139   6.777 -0.0129 -0.2683  0.1287
14414TIP3    H164657   1.737   3.096   6.797  0.2220 -1.0972 -0.6467
14414TIP3    H264658   1.796   3.231   6.764 -0.7086 -0.3781  0.5468
14415TIP3   OH264659   0.717   0.374  15.533  0.1095  0.7975 -0.5425
14415TIP3    H164660   0.780   0.310  15.502  1.1323  0.1343  2.5498
14415TIP3    H264661   0.720   0.445  15.468  4.2433  0.9170 -0.4820
14416TIP3   OH264662   6.232   0.130  11.499 -0.1376  0.1246 -0.1487
14416TIP3    H164663   6.199   0.182  11.572  1.9682 -0.3643  1.2541
14416TIP3    H264664   6.156   0.081  11.468 -1.1737  0.6185  1.4793
14417TIP3   OH264665   4.117   2.600  14.770 -0.3794  0.0877  0.9435
14417TIP3    H164666   4.158   2.546  14.702 -2.2994  0.6682 -0.7663
14417TIP3    H264667   4.088   2.679  14.724 -1.7218  0.5379  2.4591
14418TIP3   OH264668   4.062   2.214  11.430  0.5174 -0.0828 -0.3956
14418TIP3    H164669   4.117   2.172  11.496 -0.2441 -1.3145 -0.5160
14418TIP3    H264670   3.972   2.194  11.457  0.1889 -0.2292 -1.5542
14419TIP3   OH264671   3.371   6.263   5.130 -0.1458  0.6579  0.0342
14419TIP3    H164672   3.417   6.345   5.149  0.6014  0.6248 -1.4959
14419TIP3    H264673   3.352   6.226   5.217 -0.1927  2.2584  0.7438
14420TIP3   OH264674   3.236   3.187   1.252 -0.1843  0.5631  0.2380
14420TIP3    H164675   3.234   3.203   1.346  0.4141 -1.8440  0.7387
14420TIP3    H264676   3.156   3.137   1.235 -0.3406  1.0708 -0.5609
14421TIP3   OH264677   1.521   0.643   5.764  0.0526 -0.1643 -0.0948
14421TIP3    H164678   1.496   0.582   5.833  1.1658  1.3743  1.7794
14421TIP3    H264679   1.438   0.676   5.729 -0.5608 -0.2441  1.2264
14422TIP3   OH264680   3.791   1.764   3.929 -0.2741 -0.0553  0.3708
14422TIP3    H164681   3.722   1.748   3.864 -1.0141  0.9802  0.8935
14422TIP3    H264682   3.752   1.824   3.992  1.4886  1.5648  0.0167
14423TIP3   OH264683   5.016   6.192   4.416 -0.3325 -0.1753 -0.0326
14423TIP3    H164684   5.051   6.238   4.340 -0.8122 -0.5788 -0.5072
14423TIP3    H264685   4.933   6.154   4.385  0.1124 -1.4681  0.2974
14424TIP3   OH264686   4.821   0.761  15.852 -0.1270 -0.3442 -0.1016
14424TIP3    H164687   4.895   0.799  15.901 -0.3158  0.8734 -0.7166
14424TIP3    H264688   4.747   0.819  15.872 -0.5244 -0.6162 -0.7702
14425TIP3   OH264689   4.217   3.762   5.530  0.6358  0.0222 -0.0313
14425TIP3    H164690   4.123   3.761   5.547  0.6686  0.8626  0.2448
14425TIP3    H264691   4.227   3.811   5.449  0.8414  0.0788  0.0255
14426TIP3   OH264692   3.095   5.150  13.825 -0.2586 -0.0467  0.2930
14426TIP3    H164693   3.025   5.187  13.771 -1.0518  1.6728  2.3488
14426TIP3    H264694   3.051   5.088  13.882  0.0914  0.1699  0.8040
14427TIP3   OH264695   1.562   0.864   0.775  0.0251 -0.2285 -0.4969
14427TIP3    H164696   1.631   0.930   0.786  1.9308 -2.2470  0.2777
14427TIP3    H264697   1.599   0.800   0.715 -0.6034 -2.0441  0.9628
14428TIP3   OH264698   5.228   0.933   3.143  0.4404  0.4394 -0.2479
14428TIP3    H164699   5.233   1.027   3.132  0.0666  0.5464  0.4429
14428TIP3    H264700   5.144   0.908   3.105 -0.6359  0.7463  1.8032
14429TIP3   OH264701   6.374   3.177   3.153 -0.1894 -0.3446 -0.0091
14429TIP3    H164702   6.325   3.197   3.073 -0.9652 -1.6263  0.1127
14429TIP3    H264703   6.460   3.215   3.139 -1.2868  2.3440 -0.0794
14430TIP3   OH264704   2.934   6.311   1.904 -0.2893 -0.1768  0.5289
14430TIP3    H164705   2.957   6.273   1.819 -0.5390 -0.8632  0.7673
14430TIP3    H264706   2.841   6.292   1.915 -0.6673  1.3422  0.2199
14431TIP3   OH264707   5.521   3.928  14.654 -0.5384  0.2292  0.9145
14431TIP3    H164708   5.536   3.875  14.733  0.6228 -0.7179  0.0962
14431TIP3    H264709   5.514   3.864  14.584  2.2427  1.1437 -0.3302
14432TIP3   OH264710   6.542   5.128   5.621 -0.4977  0.0094  0.0209
14432TIP3    H164711   6.631   5.136   5.656 -0.3602  3.4468 -0.7438
14432TIP3    H264712   6.486   5.132   5.699 -0.0271  2.2716  0.3254
14433TIP3   OH264713   6.438   1.831   5.047 -0.3384  0.3671 -0.0089
14433TIP3    H164714   6.476   1.791   4.969 -0.2202 -0.2011  0.3346
14433TIP3    H264715   6.470   1.921   5.046  0.8317 -0.0394  0.1524
14434TIP3   OH264716   5.206   0.688  11.658 -0.5002 -0.6397 -0.5337
14434TIP3    H164717   5.236   0.614  11.605 -0.1041 -1.3575  0.6668
14434TIP3    H264718   5.255   0.763  11.623 -3.2002 -0.2048 -3.9090
14435TIP3   OH264719   4.907   6.103   1.204  0.1532 -0.0449  0.5929
14435TIP3    H164720   4.864   6.091   1.289 -1.3181 -0.4579 -0.1913
14435TIP3    H264721   4.842   6.077   1.140  1.7326 -1.1127 -0.6458
14436TIP3   OH264722   6.506   5.271  15.954  0.4242 -0.4459  0.3404
14436TIP3    H164723   6.413   5.249  15.960  0.2974 -0.1094 -0.2971
14436TIP3    H264724   6.523   5.277  15.860  1.4918 -2.1673  0.3863
14437TIP3   OH264725   3.418   4.159   0.776  0.7126  0.1387  0.4701
14437TIP3    H164726   3.324   4.157   0.795 -0.0429  3.0874 -2.1345
14437TIP3    H264727   3.443   4.067   0.768 -2.3790 -0.7448 -0.5225
14438TIP3   OH264728   3.217   3.817   3.353 -0.4524 -0.2820 -0.5750
14438TIP3    H164729   3.126   3.789   3.365 -0.7480  0.7107 -0.4741
14438TIP3    H264730   3.264   3.779   3.427 -0.9887  0.1239 -0.0228
14439TIP3   OH264731   2.194   4.291  16.189  0.0605  0.2101  0.3625
14439TIP3    H164732   2.227   4.349  16.258 -1.7637  0.8423  0.7773
14439TIP3    H264733   2.153   4.351  16.126 -1.9542 -0.6033  0.8469
14440TIP3   OH264734   2.924   4.123  11.446  0.3034  0.1728 -0.5119
14440TIP3    H164735   3.010   4.128  11.488 -0.4384  2.3881  0.9190
14440TIP3    H264736   2.912   4.208  11.404 -0.5365 -0.6954 -2.1197
14441TIP3   OH264737   3.414   5.084  13.213 -0.4224 -0.4918 -0.4534
14441TIP3    H164738   3.454   5.115  13.132 -0.5989  2.3764  0.4386
14441TIP3    H264739   3.329   5.051  13.186 -1.0509  1.6669 -1.3736
14442TIP3   OH264740   1.177   4.907   2.850 -0.4295  0.2575 -0.4241
14442TIP3    H164741   1.227   4.831   2.879 -0.5704  1.0160  1.9825
14442TIP3    H264742   1.242   4.965   2.810  0.3680  0.5006  1.1679
14443TIP3   OH264743   1.513   3.319  15.914 -0.3843  0.3918 -0.4532
14443TIP3    H164744   1.539   3.343  16.003  0.3156  0.5363 -0.6868
14443TIP3    H264745   1.560   3.381  15.858  1.3590 -1.3894 -1.0621
14444TIP3   OH264746   3.126   0.651  10.877  0.2572  0.1875  0.3841
14444TIP3    H164747   3.152   0.743  10.868  0.4394  0.1716  0.7200
14444TIP3    H264748   3.035   0.655  10.906 -0.0731  0.2455 -0.6201
14445TIP3   OH264749   6.478   5.048  12.484 -0.1274 -0.1331  0.2830
14445TIP3    H164750   6.388   5.075  12.468  0.3959  0.8437 -1.2056
14445TIP3    H264751   6.518   5.044  12.397  1.2102 -0.7991  0.8895
14446TIP3   OH264752   4.508   5.436   5.182  0.2028  0.2667  0.1014
14446TIP3    H164753   4.538   5.500   5.117  0.4998  0.2643  0.2349
14446TIP3    H264754   4.489   5.487   5.260 -1.3029  0.4303 -0.3450
14447TIP3   OH264755   3.138   4.411   4.773  0.1925  0.1901 -0.4150
14447TIP3    H164756   3.212   4.355   4.796  0.8103  0.3990 -1.7875
14447TIP3    H264757   3.131   4.472   4.846  0.6514 -0.5577  0.2666
14448TIP3   OH264758   2.187   4.784   3.638  0.3728 -0.0390 -0.2762
14448TIP3    H164759   2.154   4.719   3.575 -1.3103  0.1976  0.2920
14448TIP3    H264760   2.108   4.817   3.681  1.2880  1.6105  0.2173
14449TIP3   OH264761   5.755   5.060  12.884  0.0719 -0.8907  0.3673
14449TIP3    H164762   5.780   5.035  12.972  0.9252 -3.7296 -0.5777
14449TIP3    H264763   5.670   5.019  12.869 -1.2454  1.5748  0.6136
14450TIP3   OH264764   2.293   3.426  17.194  0.0784 -0.4110  0.3379
14450TIP3    H164765   2.313   3.412  17.101  0.7627  1.3955  0.1860
14450TIP3    H264766   2.360   3.486  17.225 -1.5057  0.8995  1.3958
14451TIP3   OH264767   1.346   1.885  13.412  0.4981 -0.4508 -0.0809
14451TIP3    H164768   1.396   1.856  13.336 -0.5808 -2.4195 -0.1192
14451TIP3    H264769   1.412   1.909  13.477  1.4428  2.0754 -1.8568
14452TIP3   OH264770   1.249   6.449   5.131 -1.0391  0.4824  0.4398
14452TIP3    H164771   1.310   6.523   5.135  0.0067 -0.3754  0.6971
14452TIP3    H264772   1.240   6.430   5.038 -0.7765  0.5117  0.4076
14453TIP3   OH264773   2.485   4.805  13.389  0.0028 -0.0703  0.1268
14453TIP3    H164774   2.488   4.781  13.482  0.7959 -3.6182 -0.6643
14453TIP3    H264775   2.400   4.849  13.378 -0.3369 -0.0455  2.4050
14454TIP3   OH264776   2.783   5.525   3.423 -0.4035  0.0620  0.1109
14454TIP3    H164777   2.783   5.617   3.450  1.7598  0.1101  0.1054
14454TIP3    H264778   2.759   5.528   3.330 -0.3375  0.6300  0.1067
14455TIP3   OH264779   0.034   1.782   4.798  0.2717 -0.2850 -0.9361
14455TIP3    H164780   0.084   1.785   4.717  0.8850  1.4583 -0.5511
14455TIP3    H264781   0.095   1.748   4.863 -0.4869 -2.5345 -1.3320
14456TIP3   OH264782   1.489   4.929   4.418 -0.5364  0.0949 -0.4253
14456TIP3    H164783   1.460   4.891   4.334  2.3864  0.4522 -1.7188
14456TIP3    H264784   1.514   5.019   4.396  3.7837 -0.8302 -0.1941
14457TIP3   OH264785   3.779   5.182   1.007 -0.4792  0.1992  0.1268
14457TIP3    H164786   3.843   5.195   1.077 -1.6391  0.7640  1.1188
14457TIP3    H264787   3.737   5.099   1.028  0.1279 -0.3494 -0.7195
14458TIP3   OH264788   1.961   5.028  15.325  0.3122  0.3484 -0.0068
14458TIP3    H164789   1.913   4.953  15.360 -0.2209  1.3710  1.5488
14458TIP3    H264790   1.894   5.088  15.295  0.7379  0.2007 -1.3145
14459TIP3   OH264791   2.678   0.609  16.978  0.3881 -0.4905  0.1210
14459TIP3    H164792   2.586   0.609  17.003 -0.1958 -1.6199 -1.8313
14459TIP3    H264793   2.688   0.687  16.923  0.6379 -0.2847  0.4563
14460TIP3   OH264794   2.932   0.186  12.531  0.3687 -0.3112 -0.0766
14460TIP3    H164795   3.014   0.220  12.568  0.8886  0.6540 -1.9439
14460TIP3    H264796   2.864   0.234  12.578  0.9839  0.7792 -0.2433
14461TIP3   OH264797   4.145   0.976  16.376 -0.7911  0.2100  0.3568
14461TIP3    H164798   4.227   1.027  16.376 -1.3700  1.1746  0.2818
14461TIP3    H264799   4.140   0.940  16.465 -1.8493  2.8222  1.4733
14462TIP3   OH264800   5.672   2.338   3.076 -0.0318 -0.0209  0.2431
14462TIP3    H164801   5.610   2.299   3.014 -0.4490 -1.2834  1.3905
14462TIP3    H264802   5.700   2.420   3.035 -0.9874 -0.3752 -1.1735
14463TIP3   OH264803   5.792   1.577  14.727  0.2717 -0.6990  0.4947
14463TIP3    H164804   5.874   1.590  14.678 -0.5419  0.9432 -0.5551
14463TIP3    H264805   5.774   1.663  14.765 -0.5736 -1.2453  1.3535
14464TIP3   OH264806   3.314   4.596   5.500 -0.0324  0.3951 -0.3133
14464TIP3    H164807   3.341   4.613   5.590  0.1699  0.5321 -0.3981
14464TIP3    H264808   3.274   4.677   5.470 -1.8037 -0.2374  0.2546
14465TIP3   OH264809   6.639   0.252  11.814 -0.4843  0.1991 -0.4893
14465TIP3    H164810   6.614   0.193  11.743 -0.1626  1.2246 -1.4760
14465TIP3    H264811   6.650   0.337  11.772  0.4509  0.6713  0.6614
14466TIP3   OH264812   1.586   1.791  11.964 -0.0479 -0.3314  1.2089
14466TIP3    H164813   1.636   1.744  12.030 -0.0623 -0.9267  0.8086
14466TIP3    H264814   1.652   1.831  11.907 -0.0295 -0.4145  1.1716
14467TIP3   OH264815   5.360   6.102   3.884  0.1022  0.0775 -0.0935
14467TIP3    H164816   5.354   6.163   3.811 -1.7025  0.2420  0.1571
14467TIP3    H264817   5.298   6.136   3.949  0.2601 -1.1308  0.7198
14468TIP3   OH264818   4.006   0.402  16.592 -0.5284  0.2234 -0.6029
14468TIP3    H164819   4.009   0.325  16.535 -1.1652  0.7539 -1.3944
14468TIP3    H264820   4.049   0.471  16.541  3.0669 -0.3087  1.3772
14469TIP3   OH264821   3.204   1.723  16.990  0.8824  0.0160  0.1380
14469TIP3    H164822   3.148   1.773  16.931  0.7341 -0.1892  0.1033
14469TIP3    H264823   3.163   1.732  17.076  0.8493 -0.0534  0.1295
14470TIP3   OH264824   1.074   3.422  16.805 -0.6301 -0.0896  0.0034
14470TIP3    H164825   1.106   3.441  16.894 -2.1204  1.6075  0.2289
14470TIP3    H264826   1.012   3.492  16.787  0.4725  0.2821 -2.8525
14471TIP3   OH264827   3.497   0.131   0.137  0.4578 -0.4911 -0.1832
14471TIP3    H164828   3.515   0.127   0.043 -1.7287  0.4040 -0.7019
14471TIP3    H264829   3.406   0.100   0.145  1.0844 -2.0219  1.8489
14472TIP3   OH264830   2.814   0.099  13.036  0.2593 -0.2288  0.1945
14472TIP3    H164831   2.814   0.164  12.965  1.7492  0.3045  0.6345
14472TIP3    H264832   2.786   0.018  12.994  0.6150  0.1920 -0.9068
14473TIP3   OH264833   2.437   5.739  13.431  0.1722  0.0189 -0.0230
14473TIP3    H164834   2.517   5.792  13.438  0.7358 -0.8133  0.0625
14473TIP3    H264835   2.418   5.737  13.337 -0.5656  1.3738  0.0773
14474TIP3   OH264836   2.024   0.006  12.596  0.2383 -0.2148  0.0410
14474TIP3    H164837   2.113   0.007  12.632  0.4939 -0.3780 -0.5861
14474TIP3    H264838   1.970  -0.027  12.668  0.4065  1.5570  1.0471
14475TIP3   OH264839   5.486   1.879   1.132  0.2535  0.0268 -0.1141
14475TIP3    H164840   5.397   1.914   1.138  0.3937  0.4184 -0.3002
14475TIP3    H264841   5.506   1.879   1.039  0.8283  0.9258 -0.0056
14476TIP3   OH264842   1.111   3.728  14.099  0.7302 -0.5158 -0.1455
14476TIP3    H164843   1.168   3.747  14.174  0.0597  1.5272 -0.0929
14476TIP3    H264844   1.125   3.801  14.039 -1.4021 -0.2157 -0.3691
14477TIP3   OH264845   5.171   3.875  10.955  0.2220  0.2333 -0.2531
14477TIP3    H164846   5.157   3.949  11.013  0.6604  0.8655 -0.9434
14477TIP3    H264847   5.159   3.910  10.867  1.8516 -0.1551 -0.6681
14478TIP3   OH264848   0.433   0.695   2.231  0.1205  0.5035 -0.3531
14478TIP3    H164849   0.422   0.626   2.165  1.5001  0.5049 -0.6213
14478TIP3    H264850   0.527   0.713   2.231  0.4013 -0.4508  2.5970
14479TIP3   OH264851   3.455   2.459   5.902 -0.0701 -0.4589 -0.5658
14479TIP3    H164852   3.424   2.467   5.992  2.2008  0.7712  0.2035
14479TIP3    H264853   3.377   2.469   5.848 -1.2739  0.3355  1.2472
14480TIP3   OH264854   0.220   1.409  12.223  0.4686 -0.0801  0.3025
14480TIP3    H164855   0.280   1.461  12.171  1.2234 -2.0226 -0.8685
14480TIP3    H264856   0.163   1.366  12.159 -0.1580 -0.6715  1.2258
14481TIP3   OH264857   6.238   5.746  14.413 -0.1723 -0.0011  0.0126
14481TIP3    H164858   6.244   5.716  14.503 -0.1826  1.3968  0.5088
14481TIP3    H264859   6.171   5.691  14.373  0.1462 -0.9243  0.7285
14482TIP3   OH264860   2.254   2.310   0.711  0.2078  0.1092 -0.6768
14482TIP3    H164861   2.295   2.224   0.702 -0.8913 -0.4419 -0.6894
14482TIP3    H264862   2.160   2.291   0.714 -0.3284  1.5249 -3.8383
14483TIP3   OH264863   2.518   1.617  11.250 -0.0079 -0.5057 -0.0305
14483TIP3    H164864   2.577   1.554  11.209  0.6394 -0.1057  0.2545
14483TIP3    H264865   2.434   1.572  11.257  0.5041 -1.4247  0.3999
14484TIP3   OH264866   4.293   1.873   5.041 -0.2452 -0.1603  0.1820
14484TIP3    H164867   4.337   1.809   5.098 -0.4938  0.1952  0.7846
14484TIP3    H264868   4.227   1.913   5.097 -1.7732 -1.1202 -0.8727
14485TIP3   OH264869   0.866   0.482   5.332  0.3809  0.6294 -0.2154
14485TIP3    H164870   0.896   0.412   5.390  0.7659  1.6141  0.7956
14485TIP3    H264871   0.773   0.466   5.321  0.1399  0.8843  1.3383
14486TIP3   OH264872   3.306   1.614  12.215  0.4685  0.2517 -0.3412
14486TIP3    H164873   3.281   1.685  12.155  0.7169  0.0187 -0.7207
14486TIP3    H264874   3.246   1.624  12.289 -0.4867 -0.0253 -1.0426
14487TIP3   OH264875   1.913   6.109   4.075  0.2617  0.2561 -0.2305
14487TIP3    H164876   1.845   6.175   4.064 -0.0528  0.0913  0.6928
14487TIP3    H264877   1.995   6.158   4.069  0.0487  0.5790 -0.5218
14488TIP3   OH264878   2.042   4.279   0.159 -0.1847  0.5409 -0.1249
14488TIP3    H164879   2.095   4.312   0.087  1.1642  1.9567  1.4316
14488TIP3    H264880   2.104   4.264   0.231 -1.8062  2.0073  1.6986
14489TIP3   OH264881   5.908   6.604   5.887 -0.3070  0.8885 -0.1395
14489TIP3    H164882   5.943   6.536   5.830  0.1477  0.5162  0.5751
14489TIP3    H264883   5.848   6.654   5.831 -1.9071 -1.0707 -0.2693
14490TIP3   OH264884   4.843   2.762  13.981 -0.3749  0.3550 -0.3685
14490TIP3    H164885   4.860   2.738  14.072 -1.1578  1.0324 -0.0347
14490TIP3    H264886   4.787   2.840  13.987  0.8400  1.3477 -1.4116
14491TIP3   OH264887   0.852   0.752  15.162 -0.1473 -0.1457  0.5002
14491TIP3    H164888   0.817   0.688  15.100  0.5638  0.7686 -0.8808
14491TIP3    H264889   0.937   0.717  15.187 -0.9327 -1.1374  1.9825
14492TIP3   OH264890   5.284   5.725   5.865  0.0029 -0.0120  0.2186
14492TIP3    H164891   5.278   5.631   5.880 -0.6871  0.2025  1.4610
14492TIP3    H264892   5.284   5.763   5.953  0.7575  1.1248 -0.2557
14493TIP3   OH264893   6.210   1.550  14.180  0.5521 -0.9704  0.3325
14493TIP3    H164894   6.210   1.500  14.261  3.3143 -1.1403  0.3198
14493TIP3    H264895   6.279   1.615  14.191 -0.1279  0.0944 -1.2652
14494TIP3   OH264896   1.304   5.785   3.102  0.0806  0.6428  0.2978
14494TIP3    H164897   1.322   5.879   3.099  2.4079  0.2581 -1.7179
14494TIP3    H264898   1.358   5.752   3.173  1.3698  0.5421 -0.6876
14495TIP3   OH264899   6.085   1.387  11.553  0.1246  0.2871 -0.2338
14495TIP3    H164900   6.159   1.415  11.499 -0.1759 -0.8344 -1.2605
14495TIP3    H264901   6.047   1.468  11.586  0.6356  0.9706 -1.2881
14496TIP3   OH264902   4.956   5.667  15.459 -0.1548 -0.1882 -0.3435
14496TIP3    H164903   4.898   5.696  15.389 -1.8158 -0.3144  0.9019
14496TIP3    H264904   4.956   5.571  15.452  0.2922 -0.1710 -0.6225
14497TIP3   OH264905   4.858   1.344   5.723  0.5415 -0.3316  0.0472
14497TIP3    H164906   4.897   1.428   5.699  0.5087 -0.1140  0.7388
14497TIP3    H264907   4.849   1.297   5.640 -1.3696  1.1698 -0.6673
14498TIP3   OH264908   2.630   2.630  15.354  0.5395 -0.5109 -0.7972
14498TIP3    H164909   2.547   2.582  15.358 -0.3615  1.0654  0.6927
14498TIP3    H264910   2.630   2.670  15.267  0.2413 -1.3442 -1.1948
14499TIP3   OH264911   5.525   5.424   2.680 -0.1925 -0.2515  0.0236
14499TIP3    H164912   5.489   5.411   2.768  2.2453 -0.0009  1.1604
14499TIP3    H264913   5.493   5.511   2.654 -1.1727 -0.4467  0.5375
14500TIP3   OH264914   4.330   5.443  16.335 -0.3446 -0.1306  0.3356
14500TIP3    H164915   4.374   5.503  16.395  0.2049  0.8303 -0.9739
14500TIP3    H264916   4.264   5.498  16.291 -1.1912 -0.9699  0.5204
14501TIP3   OH264917   3.759   5.671  14.152  0.0400 -0.2594  0.1425
14501TIP3    H164918   3.832   5.609  14.160  1.0463  0.5668 -2.0109
14501TIP3    H264919   3.734   5.690  14.243  1.2968 -1.9368  0.9014
14502TIP3   OH264920   3.281   3.147  13.338 -0.0691  0.0398  0.1432
14502TIP3    H164921   3.297   3.082  13.270  1.1380 -1.7316  2.0155
14502TIP3    H264922   3.196   3.122  13.375 -0.0659  0.1356  0.2150
14503TIP3   OH264923   2.345   5.052  14.708  0.1952 -0.0864  0.2171
14503TIP3    H164924   2.322   5.063  14.616  0.3604  1.2941  0.3201
14503TIP3    H264925   2.316   5.133  14.750  0.7549 -0.3986  1.2543
14504TIP3   OH264926   3.582   4.694  11.688  0.2584 -0.2652 -0.0625
14504TIP3    H164927   3.602   4.786  11.677  2.1393 -0.5581  0.6210
14504TIP3    H264928   3.487   4.691  11.700 -0.0491  1.3910 -1.6646
14505TIP3   OH264929   6.148   6.612   2.223 -0.4805 -0.0291 -0.2664
14505TIP3    H164930   6.190   6.598   2.138  0.1297  1.2038 -0.1980
14505TIP3    H264931   6.107   6.698   2.215  0.4365  0.5512  1.0072
14506TIP3   OH264932   1.665   2.462   3.472  0.0439 -0.3302  0.4693
14506TIP3    H164933   1.687   2.552   3.448 -0.6884 -0.1129  0.5768
14506TIP3    H264934   1.740   2.410   3.443  1.0124  0.4591  1.4490
14507TIP3   OH264935   4.456   2.404  13.371  0.5875  0.1445  1.0147
14507TIP3    H164936   4.525   2.449  13.420  1.3430  0.3835 -0.2163
14507TIP3    H264937   4.377   2.453  13.392  1.1033  0.9886  1.0523
14508TIP3   OH264938   3.248   4.338  15.207  0.1257  0.1450 -0.5842
14508TIP3    H164939   3.339   4.363  15.224  0.0458  0.4911 -0.6414
14508TIP3    H264940   3.229   4.371  15.119 -0.4241  1.1898 -0.0979
14509TIP3   OH264941   6.636   1.102  16.170  0.1984 -0.3220  0.3050
14509TIP3    H164942   6.670   1.079  16.083 -0.6323  0.0251 -0.1162
14509TIP3    H264943   6.711   1.089  16.228  0.6258 -1.0686 -0.3792
14510TIP3   OH264944   0.132   0.586  14.542 -0.1952 -0.1236  0.2286
14510TIP3    H164945   0.152   0.495  14.566 -0.0310 -0.3317 -0.6792
14510TIP3    H264946   0.194   0.638  14.594 -0.0055 -0.5536  0.4383
14511TIP3   OH264947   4.263   1.736  13.697 -0.1875  0.1411 -0.4973
14511TIP3    H164948   4.188   1.769  13.648  0.9142  0.4462 -2.0474
14511TIP3    H264949   4.278   1.802  13.764 -1.5056 -0.1033  0.0785
14512TIP3   OH264950   5.570   0.517  15.010 -0.2625 -0.3274 -0.5121
14512TIP3    H164951   5.579   0.598  14.959 -1.0134  0.8575  1.1510
14512TIP3    H264952   5.659   0.483  15.017 -0.0976 -0.3594 -2.2904
14513TIP3   OH264953   4.096   6.409   0.464  0.1004 -0.0498 -0.3081
14513TIP3    H164954   4.005   6.433   0.475 -0.1927 -0.8385 -0.9332
14513TIP3    H264955   4.106   6.392   0.371  0.6030 -1.0349 -0.0970
14514TIP3   OH264956   4.508   0.831  13.244 -0.8217  0.2132 -0.0429
14514TIP3    H164957   4.502   0.736  13.231  1.7770 -0.2582  1.3530
14514TIP3    H264958   4.423   0.856  13.278 -1.3517 -1.7677  0.2368
14515TIP3   OH264959   3.436   1.579  13.268 -0.1168  0.3786  0.5173
14515TIP3    H164960   3.524   1.554  13.295 -0.6746  0.6390  2.7941
14515TIP3    H264961   3.385   1.581  13.349 -2.5024 -0.7932 -0.8365
14516TIP3   OH264962   4.293   3.106   5.261  0.3060 -0.5477  0.1348
14516TIP3    H164963   4.323   3.166   5.329  0.0597 -1.4968  1.1095
14516TIP3    H264964   4.281   3.162   5.183  2.1602  0.2799  0.3843
14517TIP3   OH264965   2.363   6.179  12.821  0.5564  0.3523 -0.3008
14517TIP3    H164966   2.306   6.105  12.801  0.1210  0.9083 -1.2161
14517TIP3    H264967   2.452   6.143  12.818  0.3553 -0.1147 -0.8293
14518TIP3   OH264968   1.761   4.994  15.765 -0.1368  0.1118 -0.5893
14518TIP3    H164969   1.784   4.993  15.857 -1.4106  1.3193 -0.2295
14518TIP3    H264970   1.761   5.086  15.740 -3.5108  0.1897 -0.7693
14519TIP3   OH264971   3.492   2.002   3.888 -0.2427 -0.3963 -0.0141
14519TIP3    H164972   3.583   2.021   3.863 -0.2452  1.4165  1.1942
14519TIP3    H264973   3.439   2.043   3.820 -0.1766  1.0450  0.7677
14520TIP3   OH264974   2.814   1.628  12.672 -0.1980 -0.0821  0.0470
14520TIP3    H164975   2.793   1.645  12.580 -0.1854  2.1793  0.3990
14520TIP3    H264976   2.856   1.542  12.672  0.0050 -0.0271 -2.0929
14521TIP3   OH264977   1.396   5.283  16.693  0.1494  0.1731  0.4906
14521TIP3    H164978   1.331   5.320  16.753 -0.6320 -0.1626 -0.1319
14521TIP3    H264979   1.345   5.243  16.623  0.9241 -2.3997  1.2689
14522TIP3   OH264980   2.412   1.881  14.799  0.2412 -0.1556 -0.6491
14522TIP3    H164981   2.494   1.927  14.780  1.1568 -1.4376  0.1306
14522TIP3    H264982   2.344   1.943  14.771  1.4392  1.2731 -0.5334
14523TIP3   OH264983   0.180   2.281  17.248  0.3797 -0.4558 -0.3292
14523TIP3    H164984   0.256   2.235  17.212 -0.1095 -1.7474  0.2123
14523TIP3    H264985   0.218   2.346  17.307  1.1000  0.0151 -1.2767
14524TIP3   OH264986   1.865   0.748   4.612 -0.1023 -0.4172 -0.1215
14524TIP3    H164987   1.866   0.653   4.605  0.7283 -0.2981 -1.9809
14524TIP3    H264988   1.786   0.767   4.663 -0.5796 -2.0619 -0.1957
14525TIP3   OH264989   0.246   3.888   0.045 -0.3244  0.7472 -0.6621
14525TIP3    H164990   0.194   3.965   0.020 -0.5365  1.6226  2.0842
14525TIP3    H264991   0.310   3.922   0.107 -0.0633 -1.2034  0.1998
14526TIP3   OH264992   0.183   4.581   1.621 -0.1264  0.0301  0.8180
14526TIP3    H164993   0.264   4.530   1.624 -0.2694 -0.2359  0.3425
14526TIP3    H264994   0.188   4.640   1.696  0.9602  0.7027  0.2393
14527TIP3   OH264995   3.409   4.946  14.646 -0.0028 -0.1030 -0.1169
14527TIP3    H164996   3.457   4.942  14.729  0.4084  0.6729 -0.3000
14527TIP3    H264997   3.421   4.860  14.606  0.3764 -0.2506  0.3098
14528TIP3   OH264998   1.602   3.434  12.350 -0.2838 -0.1174 -0.0802
14528TIP3    H164999   1.693   3.408  12.362 -0.7110 -1.6926  0.0193
14528TIP3    H265000   1.603   3.491  12.274  0.9262  0.8251  0.6039
14529TIP3   OH265001   0.465   4.005  15.128  0.3183  0.0585  0.5521
14529TIP3    H165002   0.462   4.069  15.057 -0.0650 -1.0104 -0.4417
14529TIP3    H265003   0.495   3.924  15.085  1.8662 -0.1849  1.9613
14530TIP3   OH265004   1.009   2.370   2.327  0.0327  0.0232 -0.8408
14530TIP3    H165005   1.096   2.384   2.290  0.5667  1.3392  0.8449
14530TIP3    H265006   1.017   2.287   2.374  0.6516  0.5975  0.0820
14531TIP3   OH265007   2.778   1.576   2.437  0.4233  0.4008  0.3911
14531TIP3    H165008   2.689   1.554   2.410  0.3684  0.6952  0.3236
14531TIP3    H265009   2.805   1.646   2.377  0.7120  0.2907  0.3900
14532TIP3   OH265010   6.002   0.075   1.460  0.2837  0.0821 -0.6631
14532TIP3    H165011   6.086   0.120   1.449  0.6814  0.0227  1.6269
14532TIP3    H265012   5.993   0.021   1.382  1.7722  1.0313 -1.5393
14533TIP3   OH265013   0.984   2.296  13.207  0.2580  0.1304  0.2806
14533TIP3    H165014   1.059   2.247  13.240 -1.3411 -1.5903  1.5665
14533TIP3    H265015   0.974   2.267  13.116  0.6138 -0.3494  0.3915
14534TIP3   OH265016   6.010   1.621  14.452  0.0334 -0.5142  0.2816
14534TIP3    H165017   5.962   1.539  14.441  0.2932 -0.9506  2.1595
14534TIP3    H265018   6.098   1.595  14.480  0.2977  0.3895  0.3478
14535TIP3   OH265019   1.044   5.926   3.268  0.1066 -0.2121  0.0097
14535TIP3    H165020   1.121   5.923   3.325  0.1637  1.3879  0.0554
14535TIP3    H265021   1.004   6.011   3.286 -0.4815 -0.1298 -1.5465
14536TIP3   OH265022   0.289   3.066  12.583 -0.0320 -0.0941  0.3125
14536TIP3    H165023   0.340   3.102  12.655  0.9042  0.9490 -0.8254
14536TIP3    H265024   0.341   2.992  12.552  0.9439  1.0686 -0.9537
14537TIP3   OH265025   6.465   3.608   2.460 -0.1031  0.7188  0.1475
14537TIP3    H165026   6.489   3.700   2.459  0.4303  0.6196 -2.1628
14537TIP3    H265027   6.498   3.574   2.376  0.6674 -1.8064  1.3829
14538TIP3   OH265028   2.932   6.544  15.756  0.1783  0.0400 -0.1229
14538TIP3    H165029   2.922   6.624  15.807  0.1165 -0.9852  1.5132
14538TIP3    H265030   2.843   6.510  15.746  0.2582 -0.1075 -0.3718
14539TIP3   OH265031   2.115   4.828  10.979 -0.2798  0.5631  0.1438
14539TIP3    H165032   2.024   4.799  10.980 -0.6146  1.5393 -0.5653
14539TIP3    H265033   2.111   4.920  10.952  0.7694  1.1460  1.7926
14540TIP3   OH265034   3.449   3.535   1.246  0.2645 -0.0867  0.2804
14540TIP3    H165035   3.415   3.559   1.332 -0.6313  1.0385 -0.3483
14540TIP3    H265036   3.370   3.526   1.192  0.8516  0.0818 -0.6230
14541TIP3   OH265037   0.380   2.600  12.637 -0.0475  0.2736  0.3621
14541TIP3    H165038   0.359   2.527  12.695  0.8443  0.3719  0.8219
14541TIP3    H265039   0.392   2.675  12.695  3.2633 -0.1182  0.4116
14542TIP3   OH265040   2.414   0.367   0.043  0.5682 -0.4028  0.6001
14542TIP3    H165041   2.320   0.369   0.062  0.2481  0.8803 -0.9680
14542TIP3    H265042   2.455   0.395   0.125 -0.4033 -0.9430  1.2961
14543TIP3   OH265043   1.547   2.736  16.736 -0.3650  0.6769  0.2600
14543TIP3    H165044   1.555   2.804  16.803  2.0211  0.2181  0.5193
14543TIP3    H265045   1.635   2.699  16.728 -1.0325 -0.6638 -1.6994
14544TIP3   OH265046   3.431   4.145   2.729  0.1669  0.4745  0.1274
14544TIP3    H165047   3.469   4.136   2.816 -0.5487 -0.4097  0.3605
14544TIP3    H265048   3.340   4.117   2.739  0.2538 -0.3081 -1.0444
14545TIP3   OH265049   3.964   3.377  17.020 -0.3817 -0.5129  0.2887
14545TIP3    H165050   3.868   3.373  17.016 -0.3543 -0.0378 -1.6376
14545TIP3    H265051   3.988   3.441  16.953  1.2646 -0.0850  1.2504
14546TIP3   OH265052   0.598   3.844  11.822  0.1688 -0.2920  0.0028
14546TIP3    H165053   0.674   3.799  11.859 -0.5060 -2.1908 -0.7588
14546TIP3    H265054   0.528   3.778  11.824 -1.3032  1.1974  0.1146
14547TIP3   OH265055   6.111   1.151  11.177  0.2794 -0.2397 -0.0655
14547TIP3    H165056   6.168   1.076  11.159  0.3674  0.0353 -1.0035
14547TIP3    H265057   6.171   1.220  11.207  0.5751  0.2456 -1.6268
14548TIP3   OH265058   1.651   0.095   2.634  0.4158  0.0497  0.1560
14548TIP3    H165059   1.655   0.066   2.725  0.2075  1.5259  0.6690
14548TIP3    H265060   1.683   0.185   2.636 -1.7110  0.8999 -0.8386
14549TIP3   OH265061   6.089   0.943  13.788  0.6344 -0.4186  0.3651
14549TIP3    H165062   6.164   0.958  13.845  0.5953 -2.2117  0.9449
14549TIP3    H265063   6.013   0.972  13.839  0.5239 -2.6590  1.5807
14550TIP3   OH265064   0.518   5.094   5.312 -0.1037  0.0571 -0.1701
14550TIP3    H165065   0.574   5.168   5.290  0.2918  0.6512  2.5418
14550TIP3    H265066   0.467   5.078   5.232  0.1931  2.8649 -1.0243
14551TIP3   OH265067   6.303   0.675   6.678 -0.6226  0.1955 -0.0948
14551TIP3    H165068   6.295   0.757   6.630 -0.8543  1.4833  2.0123
14551TIP3    H265069   6.225   0.673   6.734  0.3941 -0.4393  1.3549
14552TIP3   OH265070   4.528   0.754  12.188 -0.6786  0.4875  0.1248
14552TIP3    H165071   4.531   0.663  12.159  1.5962  1.0611 -1.7594
14552TIP3    H265072   4.561   0.753  12.278 -1.1641 -0.5715  0.3023
14553TIP3   OH265073   3.883   4.402   5.253  0.7017 -0.3392 -0.2220
14553TIP3    H165074   3.861   4.346   5.327 -0.1600 -1.4290 -1.2512
14553TIP3    H265075   3.927   4.478   5.291 -3.4635  1.2967  1.9107
14554TIP3   OH265076   3.244   0.834   3.422  0.1556  0.2739 -0.0562
14554TIP3    H165077   3.187   0.846   3.347 -0.5398 -3.2829 -0.2739
14554TIP3    H265078   3.322   0.792   3.387  0.1108 -0.8288  1.0927
14555TIP3   OH265079   0.630   6.190  17.005  0.2581 -0.6337  0.9095
14555TIP3    H165080   0.570   6.178  17.079 -0.2471 -2.6967  0.2178
14555TIP3    H265081   0.690   6.116  17.010  0.4416 -0.6157 -0.5215
14556TIP3   OH265082   6.250   2.360   2.669  0.0025 -0.0989  0.1220
14556TIP3    H165083   6.314   2.383   2.736 -1.1645 -0.4586  1.4171
14556TIP3    H265084   6.232   2.267   2.683  1.4222 -0.8038 -2.2153
14557TIP3   OH265085   4.963   4.550  15.953 -0.1137 -0.2971 -0.0575
14557TIP3    H165086   4.953   4.484  15.884  1.7307 -1.0797  0.3611
14557TIP3    H265087   5.042   4.523  16.000 -1.4398  0.0234  2.5549
14558TIP3   OH265088   0.447   5.854   0.950 -0.0333 -0.3201 -0.1129
14558TIP3    H165089   0.359   5.849   0.914 -0.4031 -2.9306  0.9354
14558TIP3    H265090   0.455   5.777   1.007  2.4351  0.5915  0.9556
14559TIP3   OH265091   1.045   2.113  16.733 -0.1950  0.4690  0.0281
14559TIP3    H165092   1.134   2.119  16.697  0.0712  1.7020  0.8275
14559TIP3    H265093   1.058   2.107  16.827 -0.9605  1.6853  0.2341
14560TIP3   OH265094   3.221   0.876  14.475  1.1860  0.1552 -0.3727
14560TIP3    H165095   3.165   0.804  14.446  0.7509 -0.4875  1.8736
14560TIP3    H265096   3.197   0.949  14.419 -1.8834 -0.1159  0.4089
14561TIP3   OH265097   0.514   1.986   2.910 -0.2021 -0.3271 -0.1465
14561TIP3    H165098   0.541   1.975   2.818  2.3014 -0.3802  0.5272
14561TIP3    H265099   0.591   1.961   2.961 -1.8283 -1.2576  2.0419
14562TIP3   OH265100   6.506   0.538  15.001 -0.0954 -0.1880  0.4352
14562TIP3    H165101   6.590   0.581  14.989 -0.4470  0.6027  0.7493
14562TIP3    H265102   6.451   0.604  15.044 -0.3611 -1.2666  1.8086
14563TIP3   OH265103   6.367   1.691  12.094 -0.4512  0.2728  0.1883
14563TIP3    H165104   6.406   1.675  12.008 -0.8326 -0.5617  0.1662
14563TIP3    H265105   6.425   1.756  12.135 -0.0114  0.3303 -0.5141
14564TIP3   OH265106   4.804   2.122  14.872  0.1567 -0.1949 -0.2119
14564TIP3    H165107   4.722   2.073  14.879  0.2231 -0.3128 -0.2484
14564TIP3    H265108   4.831   2.110  14.781  1.5848 -2.3756  0.4368
14565TIP3   OH265109   4.576   0.050  17.049 -0.0394 -0.3079 -0.0614
14565TIP3    H165110   4.664   0.087  17.046  0.0890 -0.6459 -0.9747
14565TIP3    H265111   4.589  -0.043  17.065 -0.2754 -0.2228  0.6275
14566TIP3   OH265112   2.136   3.677  11.024  0.8789  0.0721  0.2856
14566TIP3    H165113   2.177   3.640  11.103 -0.3365 -0.4889  0.6791
14566TIP3    H265114   2.096   3.601  10.981 -0.5839  0.7311  0.4369
14567TIP3   OH265115   4.106   3.665   0.622 -0.6071  0.1686 -0.1931
14567TIP3    H165116   4.075   3.731   0.684  0.7648 -0.0526  0.7816
14567TIP3    H265117   4.198   3.688   0.607 -1.1946  0.9773 -3.1679
14568TIP3   OH265118   2.713   0.105  10.684  0.2417  0.1512  0.1047
14568TIP3    H165119   2.742   0.186  10.642 -0.4442 -0.5728 -1.8241
14568TIP3    H265120   2.740   0.035  10.625 -0.4992 -0.9385  1.0016
14569TIP3   OH265121   4.835   5.598  12.988 -0.1563  0.2449  0.0639
14569TIP3    H165122   4.777   5.574  12.916  0.3878 -1.9224  0.2950
14569TIP3    H265123   4.918   5.555  12.968  0.8994  1.9288  0.5844
14570TIP3   OH265124   6.273   2.091  11.650  0.0179 -0.3483 -0.3555
14570TIP3    H165125   6.228   2.146  11.714  1.6152 -0.1779  0.6723
14570TIP3    H265126   6.285   2.007  11.695  0.7848 -0.3647 -0.5853
14571TIP3   OH265127   3.572   1.262  14.673 -0.6029 -0.6849 -0.2865
14571TIP3    H165128   3.542   1.203  14.603  0.9366 -2.8359  0.7467
14571TIP3    H265129   3.524   1.234  14.750 -0.0162 -0.4433  0.1731
14572TIP3   OH265130   4.088   1.137   0.262  0.2353  0.0195  0.2314
14572TIP3    H165131   4.116   1.133   0.170  0.4187 -1.2105  0.3192
14572TIP3    H265132   4.115   1.224   0.292  1.5906 -0.1408 -0.4385
14573TIP3   OH265133   5.977   6.433  13.720 -0.0082  0.2395  0.2621
14573TIP3    H165134   5.954   6.385  13.640  1.8189 -2.5389  1.2446
14573TIP3    H265135   6.039   6.500  13.691 -3.3112  2.8936 -1.2902
14574TIP3   OH265136   6.577   4.116   2.918  0.1881 -0.7818  0.4526
14574TIP3    H165137   6.628   4.162   2.984  1.4260 -1.1200 -0.2380
14574TIP3    H265138   6.635   4.110   2.843 -0.4218 -2.3191  0.0735
14575TIP3   OH265139   0.749   1.474   1.734 -0.7994  0.0372 -0.0905
14575TIP3    H165140   0.670   1.526   1.720 -1.0867 -0.2945  0.2681
14575TIP3    H265141   0.719   1.383   1.725 -0.8373 -0.1747  1.7909
14576TIP3   OH265142   5.808   5.725   0.755  0.4164  0.0512 -0.0684
14576TIP3    H165143   5.758   5.643   0.758 -0.4165  0.5483 -0.0115
14576TIP3    H265144   5.899   5.697   0.759  0.1283 -0.8112  1.3336
14577TIP3   OH265145   1.688   0.531  14.927 -1.0446  0.1146  0.3458
14577TIP3    H165146   1.695   0.493  15.014 -0.5430  0.2907  0.3845
14577TIP3    H265147   1.677   0.456  14.869 -1.5914  0.0100  0.5801
14578TIP3   OH265148   1.578   0.705   1.371 -0.0823 -0.0577 -0.8650
14578TIP3    H165149   1.641   0.718   1.300  0.0116  1.0746 -0.6054
14578TIP3    H265150   1.601   0.773   1.435  0.0451 -1.2514  0.4076
14579TIP3   OH265151   2.985   0.727  16.288  0.4748  0.2191  0.4610
14579TIP3    H165152   2.954   0.636  16.288 -0.4596  0.5137 -0.5598
14579TIP3    H265153   2.967   0.758  16.199  1.4173  1.1969  0.5965
14580TIP3   OH265154   3.297   2.006   2.575  0.3120  0.0190  0.1307
14580TIP3    H165155   3.290   1.927   2.521  0.2931 -0.9092  1.4634
14580TIP3    H265156   3.390   2.027   2.574  0.2683  0.2033 -0.5269
14581TIP3   OH265157   3.620   0.649  11.124  0.1607 -0.3096 -0.1032
14581TIP3    H165158   3.581   0.615  11.205  0.9263 -2.1165 -0.4408
14581TIP3    H265159   3.557   0.713  11.093 -1.6006 -1.6989  0.4028
14582TIP3   OH265160   4.230   3.965  13.558 -0.1520 -0.0581 -0.3499
14582TIP3    H165161   4.194   3.877  13.552 -2.3849  0.6223  1.6950
14582TIP3    H265162   4.316   3.953  13.599 -0.1141 -1.2944 -0.7493
14583TIP3   OH265163   1.804   4.669   4.892  0.2835  0.0766  0.5678
14583TIP3    H165164   1.805   4.574   4.889 -0.9567  0.0746 -0.1733
14583TIP3    H265165   1.766   4.696   4.809  1.0096  1.2407  0.5917
14584TIP3   OH265166   0.700   6.244   3.584  0.3231  0.1050 -0.2197
14584TIP3    H165167   0.726   6.335   3.597 -0.8660  0.2206  1.8244
14584TIP3    H265168   0.773   6.193   3.619 -0.2025  0.3656  1.3564
14585TIP3   OH265169   6.550   0.817  15.853  0.6778 -0.0978  0.4499
14585TIP3    H165170   6.590   0.894  15.812 -0.8732  0.1224 -0.7557
14585TIP3    H265171   6.464   0.847  15.881 -0.6796 -1.7636 -1.6402
14586TIP3   OH265172   6.723   3.194   5.830 -0.0591  0.6623  0.4929
14586TIP3    H165173   6.659   3.206   5.761  0.4969  1.5661  0.1128
14586TIP3    H265174   6.797   3.151   5.787 -0.5757 -0.8652  1.0403
14587TIP3   OH265175   4.456   3.855   2.370 -0.8590  0.2011  0.0015
14587TIP3    H165176   4.431   3.763   2.359 -1.3236  0.3265 -0.0198
14587TIP3    H265177   4.402   3.903   2.307  0.1058  0.3930 -0.7001
14588TIP3   OH265178   2.219   0.632   3.619  0.3226  0.0059 -0.3427
14588TIP3    H165179   2.164   0.639   3.697  0.3305  0.1706 -0.3507
14588TIP3    H265180   2.255   0.544   3.623 -0.4335 -0.3193 -0.6764
14589TIP3   OH265181   0.025   6.469   5.492 -0.6250  0.2004  0.2437
14589TIP3    H165182  -0.021   6.492   5.412  0.3112  0.0238 -0.3667
14589TIP3    H265183  -0.024   6.395   5.528 -0.5204 -0.3176 -0.6634
14590TIP3   OH265184   5.347   3.968  16.107 -0.2415  0.1620  0.4966
14590TIP3    H165185   5.379   3.929  16.189  0.5111  0.6724  0.4486
14590TIP3    H265186   5.322   3.893  16.053  0.8439 -0.2542  0.5481
14591TIP3   OH265187   3.763   1.092   2.229  0.2061 -0.6098 -0.0624
14591TIP3    H165188   3.855   1.074   2.249  0.0939 -2.0555 -0.7438
14591TIP3    H265189   3.758   1.088   2.133  0.1366  3.1556 -0.3748
14592TIP3   OH265190   0.536   5.713  12.483 -0.5838 -0.3944 -0.2567
14592TIP3    H165191   0.574   5.797  12.508  0.2126 -0.1081 -2.2554
14592TIP3    H265192   0.449   5.735  12.450  0.2766 -0.0611 -2.4438
14593TIP3   OH265193   5.213   5.062   1.277 -0.0465 -0.0246 -0.0830
14593TIP3    H165194   5.119   5.046   1.289  0.1956 -0.9836  0.7137
14593TIP3    H265195   5.218   5.141   1.224 -1.3764 -2.0944 -3.6748
14594TIP3   OH265196   0.686   3.246   4.881 -0.2686  0.2141  0.0655
14594TIP3    H165197   0.649   3.159   4.894  4.2372 -1.9419  0.6793
14594TIP3    H265198   0.708   3.250   4.788 -1.1079  1.0531 -0.1115
14595TIP3   OH265199   0.938   6.741  16.395  0.1990 -0.1915 -0.5641
14595TIP3    H165200   0.843   6.747  16.399  0.2508  2.4797 -1.2495
14595TIP3    H265201   0.969   6.807  16.458  1.6009 -1.0161 -0.3410
14596TIP3   OH265202   5.459   0.155   1.255  0.3493  0.2356 -0.0671
14596TIP3    H165203   5.457   0.225   1.189  0.8213  1.7439  1.4643
14596TIP3    H265204   5.407   0.189   1.328  1.2737 -0.6558  1.0437
14597TIP3   OH265205   2.093   0.549   4.211  0.8626 -0.0348  0.0433
14597TIP3    H165206   2.015   0.597   4.183  0.5460 -1.0405 -0.8520
14597TIP3    H265207   2.163   0.582   4.155  0.6911 -0.4525 -0.4207
14598TIP3   OH265208   3.813   1.362  12.575 -0.3931  0.0721 -0.2846
14598TIP3    H165209   3.907   1.371  12.594 -0.3415 -0.3292 -0.3313
14598TIP3    H265210   3.785   1.287  12.628 -1.0234  1.0965  0.8739
14599TIP3   OH265211   4.052   3.505  13.837 -0.1790  0.2307  0.1034
14599TIP3    H165212   4.037   3.426  13.785  4.2439  0.0474 -1.2645
14599TIP3    H265213   4.072   3.473  13.925  0.7177 -0.1208 -0.2248
14600TIP3   OH265214   5.274   4.202   3.974 -0.1458 -0.2685 -0.2585
14600TIP3    H165215   5.239   4.291   3.973  0.6913  0.0623 -0.5385
14600TIP3    H265216   5.199   4.147   3.948 -0.0647  0.5939 -2.5117
14601TIP3   OH265217   0.189   3.730  15.613  0.6514 -0.4915 -0.0467
14601TIP3    H165218   0.205   3.820  15.643  2.3715 -0.9129  0.3734
14601TIP3    H265219   0.171   3.739  15.520  0.2581  0.3350  0.0965
14602TIP3   OH265220   2.389   4.437   4.746 -0.3443  0.2627 -0.1512
14602TIP3    H165221   2.337   4.357   4.731 -0.0955  0.3645 -1.7604
14602TIP3    H265222   2.474   4.405   4.777  0.2458 -0.2478 -2.1263
14603TIP3   OH265223   1.948   2.380  11.780 -0.7894 -0.1888  0.5333
14603TIP3    H165224   1.871   2.399  11.725 -0.4761  1.0182  0.4770
14603TIP3    H265225   2.023   2.391  11.721 -0.5758 -2.3992  0.3088
14604TIP3   OH265226   2.538   4.583  13.605  0.4116  0.2313 -0.4344
14604TIP3    H165227   2.625   4.549  13.585 -0.1059  0.0141 -2.6778
14604TIP3    H265228   2.513   4.540  13.687  2.0413 -0.3846 -0.2176
14605TIP3   OH265229   5.272   1.383   1.501 -0.0258 -0.9136 -0.7806
14605TIP3    H165230   5.326   1.384   1.422  0.2158 -0.0305 -0.6179
14605TIP3    H265231   5.185   1.355   1.470 -0.3604  0.9367 -1.6707
14606TIP3   OH265232   3.055   2.334   2.702  0.4613 -0.2096  0.0776
14606TIP3    H165233   2.966   2.327   2.667  0.9844 -0.1948 -1.2949
14606TIP3    H265234   3.076   2.427   2.695  0.2730 -0.0499  1.2711
14607TIP3   OH265235   2.781   3.573  14.812  0.1021 -0.1694  0.5102
14607TIP3    H165236   2.738   3.580  14.727  0.6571  1.3807  0.3297
14607TIP3    H265237   2.744   3.494  14.851 -0.4591 -0.6804 -0.9924
14608TIP3   OH265238   3.315   5.676  12.240 -0.1679  0.4213 -0.3330
14608TIP3    H165239   3.326   5.640  12.152 -1.6923  0.2519 -0.4896
14608TIP3    H265240   3.401   5.711  12.263  0.5722 -0.6305 -1.3858
14609TIP3   OH265241   6.501   3.904  13.222 -0.0589  0.4666 -0.6510
14609TIP3    H165242   6.590   3.917  13.190  0.6058  0.1059  0.9652
14609TIP3    H265243   6.460   3.991  13.215  1.5593  1.5542  1.8359
14610TIP3   OH265244   6.469   5.066  13.382  0.1702 -0.4368  0.2158
14610TIP3    H165245   6.422   4.995  13.338  0.5215  0.0092 -0.9184
14610TIP3    H265246   6.527   5.022  13.443 -0.3086 -1.0805  0.2169
14611TIP3   OH265247   0.939   0.935   0.649  0.2686 -0.7709  0.6840
14611TIP3    H165248   0.993   1.000   0.605 -0.3910 -0.4301  0.3544
14611TIP3    H265249   0.919   0.870   0.581 -0.8236 -0.1987  0.4356
14612TIP3   OH265250   5.225   1.491  14.619 -0.3705 -0.5108 -0.5321
14612TIP3    H165251   5.313   1.500  14.656 -0.3447  0.0535 -0.7214
14612TIP3    H265252   5.199   1.401  14.641  0.5741 -0.9580 -1.1718
14613TIP3   OH265253   2.725   6.333   3.355 -0.8308 -0.3433 -0.2425
14613TIP3    H165254   2.716   6.343   3.260 -1.4530  0.1875 -0.1321
14613TIP3    H265255   2.708   6.240   3.371  3.1319 -1.4146 -1.0706
14614TIP3   OH265256   6.090   1.752   5.623 -0.9470 -0.1751  0.1114
14614TIP3    H165257   6.054   1.836   5.594 -0.0187  0.3427  0.4339
14614TIP3    H265258   6.024   1.687   5.598 -1.1053  0.5035 -1.3008
14615TIP3   OH265259   4.880   4.406  14.938 -0.1999  0.7564 -0.3368
14615TIP3    H165260   4.880   4.324  14.888 -0.9951  0.0878  0.7097
14615TIP3    H265261   4.972   4.429  14.948  0.0695 -0.3401 -0.1534
14616TIP3   OH265262   1.299   5.885   1.087 -0.1272  0.5633 -0.2952
14616TIP3    H165263   1.336   5.898   0.999  1.1639  2.5226  0.4637
14616TIP3    H265264   1.209   5.919   1.080 -0.2967 -0.0220 -1.0468
14617TIP3   OH265265   2.387   3.513  14.458  0.2287 -0.2424 -0.1068
14617TIP3    H165266   2.413   3.435  14.507 -0.1220  0.0148  0.5001
14617TIP3    H265267   2.402   3.585  14.519  2.7540  0.4599 -1.4245
14618TIP3   OH265268   3.714   3.508  10.817  0.2122  0.1197 -0.0522
14618TIP3    H165269   3.640   3.521  10.758 -0.8032 -1.3263  0.8580
14618TIP3    H265270   3.720   3.413  10.828  0.5387  0.3342  1.9436
14619TIP3   OH265271   6.171   6.118  12.366  0.7806 -0.0368  0.1391
14619TIP3    H165272   6.159   6.152  12.455 -1.4876  0.9700 -0.4654
14619TIP3    H265273   6.082   6.115  12.330  1.4613 -1.9113 -1.5819
14620TIP3   OH265274   3.994   2.543  15.652  0.2891 -0.1877  0.1174
14620TIP3    H165275   4.081   2.566  15.686  0.2006  1.0502 -0.4430
14620TIP3    H265276   3.934   2.562  15.724  0.1951  1.6345 -0.4014
14621TIP3   OH265277   1.929   0.804   1.676  0.0465  0.1455 -0.2947
14621TIP3    H165278   2.006   0.776   1.727 -0.2120 -0.2902 -0.1439
14621TIP3    H265279   1.854   0.779   1.730 -0.2397 -0.4834 -0.9668
14622TIP3   OH265280   1.142   0.570  11.301  0.2707 -0.0690 -0.2005
14622TIP3    H165281   1.072   0.518  11.261  0.9220 -1.3231  0.2174
14622TIP3    H265282   1.168   0.632  11.233 -0.9827  0.1559 -0.4899
14623TIP3   OH265283   5.033   1.891   2.458 -0.4209  0.4112  0.1254
14623TIP3    H165284   5.029   1.897   2.553 -1.7684 -1.2197  0.2292
14623TIP3    H265285   4.959   1.942   2.427 -1.4695 -1.0353  0.1278
14624TIP3   OH265286   3.411   0.819  14.274  0.1785  0.2803 -0.9441
14624TIP3    H165287   3.420   0.901  14.227  0.5843  1.5449  1.1931
14624TIP3    H265288   3.356   0.840  14.350 -0.0433 -1.5183 -0.5426
14625TIP3   OH265289   3.101   0.926  16.634  0.6653  0.1036  0.6857
14625TIP3    H165290   3.155   0.893  16.562  1.6003  1.0660  0.9270
14625TIP3    H265291   3.139   1.012  16.656 -1.2631  1.0587  0.5214
14626TIP3   OH265292   6.727   5.848  13.866 -0.0722 -0.2225 -1.0605
14626TIP3    H165293   6.652   5.824  13.812 -0.7745  0.0320 -0.2335
14626TIP3    H265294   6.792   5.780  13.849 -1.9659 -2.8448  1.1704
14627TIP3   OH265295   2.807   3.001   4.646 -0.1980  0.8675 -0.0084
14627TIP3    H165296   2.785   3.061   4.575 -0.9261  0.7932  0.1434
14627TIP3    H265297   2.856   3.054   4.708  0.2537  0.9883 -0.4628
14628TIP3   OH265298   6.505   4.795   0.359 -0.1723  0.0888 -0.1711
14628TIP3    H165299   6.521   4.881   0.321 -0.4199  0.5634  0.7471
14628TIP3    H265300   6.457   4.813   0.440 -3.5010 -1.0878 -1.6545
14629TIP3   OH265301   3.416   0.579  14.076  0.0473  0.0765 -0.2779
14629TIP3    H165302   3.377   0.663  14.101  1.2787  0.8908 -1.0037
14629TIP3    H265303   3.504   0.581  14.113 -0.7018 -1.9805  1.8323
14630TIP3   OH265304   1.215   0.839  11.227 -0.2352  0.4565 -0.1603
14630TIP3    H165305   1.252   0.866  11.311 -0.3044 -0.8589  0.3203
14630TIP3    H265306   1.147   0.904  11.208 -0.8534  0.2734  1.2718
14631TIP3   OH265307   2.092   1.764  13.247  0.0905 -0.1451 -0.2855
14631TIP3    H165308   2.051   1.820  13.313  3.5366  2.8072 -0.3198
14631TIP3    H265309   2.151   1.707  13.296  0.6056  0.1225 -0.5767
14632TIP3   OH265310   2.290   0.501  16.784  0.0304 -0.0037  0.1832
14632TIP3    H165311   2.325   0.437  16.845  2.1283  1.4608  0.6352
14632TIP3    H265312   2.249   0.568  16.841  1.9394  1.3348  0.0741
14633TIP3   OH265313   3.616   4.959   3.441  0.2996  0.2331 -0.0603
14633TIP3    H165314   3.598   5.030   3.502  1.4524 -0.1202  0.7264
14633TIP3    H265315   3.688   4.991   3.387 -0.0440  0.1577 -0.5709
14634TIP3   OH265316   6.624   1.795   1.013  0.6052 -0.0078  0.0392
14634TIP3    H165317   6.544   1.742   1.019  0.1638  0.6332 -0.1126
14634TIP3    H265318   6.642   1.800   0.919 -2.2708  4.3150 -0.5604
14635TIP3   OH265319   5.327   0.331  16.054 -0.1825  0.3629 -0.0724
14635TIP3    H165320   5.317   0.426  16.063 -1.1934  0.4229 -1.4177
14635TIP3    H265321   5.259   0.294  16.109 -0.6748  0.4745 -0.5919
14636TIP3   OH265322   3.332   6.705  13.070  0.5841  0.5844 -0.6093
14636TIP3    H165323   3.242   6.739  13.072  0.4335  0.2359 -1.2676
14636TIP3    H265324   3.326   6.622  13.023  1.4785  1.2877 -2.0638
14637TIP3   OH265325   2.298   6.442   0.048 -0.7778 -0.1117  0.1210
14637TIP3    H165326   2.394   6.433   0.054 -0.8048 -1.2314 -0.7746
14637TIP3    H265327   2.275   6.500   0.121  0.2784 -2.1505  2.2326
14638TIP3   OH265328   1.496   1.297  17.094 -0.8668 -0.0545 -0.3899
14638TIP3    H165329   1.577   1.346  17.109 -0.1135 -1.2487 -0.3742
14638TIP3    H265330   1.469   1.321  17.006  0.0002 -0.3070 -0.7334
14639TIP3   OH265331   2.149   4.162  13.341 -0.4423  0.0523  0.1698
14639TIP3    H165332   2.055   4.156  13.325 -1.1285  1.5142  2.9670
14639TIP3    H265333   2.164   4.255  13.359  2.0121  0.2836 -2.3106
14640TIP3   OH265334   0.804   3.026  16.287 -0.3461  0.3954  0.0705
14640TIP3    H165335   0.750   3.104  16.272 -0.0506  0.2774 -1.8668
14640TIP3    H265336   0.820   3.026  16.381 -0.6369  2.4878  0.1667
14641TIP3   OH265337   3.346   3.074  15.866  0.3682  0.0324  0.1954
14641TIP3    H165338   3.319   2.992  15.907  0.5000 -0.3830 -0.5440
14641TIP3    H265339   3.325   3.063  15.774  1.1532  0.5060 -0.0441
14642TIP3   OH265340   3.863   5.718  12.309 -0.0765  0.0685 -0.1496
14642TIP3    H165341   3.786   5.676  12.348 -0.5259 -2.0345 -3.0286
14642TIP3    H265342   3.829   5.799  12.272 -0.4510  0.1685  0.3900
14643TIP3   OH265343   4.344   6.063  14.091  0.6280  0.0643  0.0395
14643TIP3    H165344   4.312   6.007  14.021 -1.1406 -1.0903  1.6826
14643TIP3    H265345   4.423   6.019  14.124  0.9909  0.1808 -0.6636
14644TIP3   OH265346   0.412   1.637   2.209 -0.0332  0.0458  0.1570
14644TIP3    H165347   0.444   1.577   2.276  1.2354  0.4990 -0.0245
14644TIP3    H265348   0.414   1.585   2.128  0.4448  0.1420  0.1087
14645TIP3   OH265349   3.080   6.608  14.384 -0.4167  0.5713 -0.1194
14645TIP3    H165350   3.159   6.576  14.339 -0.9701  0.9083 -1.3841
14645TIP3    H265351   3.033   6.528  14.409 -0.9479  0.3539 -1.7199
14646TIP3   OH265352   2.785   3.929  15.145 -0.1301 -0.6461  0.2224
14646TIP3    H165353   2.855   3.962  15.201 -0.7548 -2.1229  1.9614
14646TIP3    H265354   2.780   3.835  15.164  0.2099 -1.4662 -3.0190
14647TIP3   OH265355   4.509   2.740  14.882  0.1373  0.8566 -0.8506
14647TIP3    H165356   4.533   2.775  14.968 -1.3476 -0.0513 -0.0299
14647TIP3    H265357   4.483   2.817  14.832 -1.4750  1.1575  0.3832
14648TIP3   OH265358   4.900   3.080  14.801  0.4971 -0.6376  0.5651
14648TIP3    H165359   4.864   3.147  14.860  1.5954 -0.9723  1.6584
14648TIP3    H265360   4.825   3.025  14.779 -0.1284  0.0779  0.8664
14649TIP3   OH265361   5.427   5.744  15.168 -0.2003 -0.4656  0.1234
14649TIP3    H165362   5.340   5.712  15.194 -0.1140 -1.3187 -0.5603
14649TIP3    H265363   5.409   5.804  15.096 -0.2216 -0.8016 -0.1570
14650TIP3   OH265364   0.411   6.447  11.409  0.1038 -0.0639 -0.2287
14650TIP3    H165365   0.436   6.535  11.382 -0.6282  0.0809 -0.4609
14650TIP3    H265366   0.351   6.460  11.483 -0.5521 -0.3301 -0.6966
14651TIP3   OH265367   6.688   5.416   4.359 -0.1683  0.2644 -0.6189
14651TIP3    H165368   6.656   5.483   4.298  2.9217  1.9937 -0.5566
14651TIP3    H265369   6.658   5.446   4.445  0.5212  1.1912 -0.6834
14652TIP3   OH265370   5.365   6.681   3.687 -0.3912  0.5180 -0.0513
14652TIP3    H165371   5.386   6.774   3.675  1.8424  0.1174  0.4647
14652TIP3    H265372   5.430   6.635   3.634 -0.0755 -0.8111  1.4501
14653TIP3   OH265373   4.765   4.845  12.443 -0.1409  0.0102 -0.0071
14653TIP3    H165374   4.732   4.907  12.378 -1.0333  0.0614  0.4786
14653TIP3    H265375   4.809   4.777  12.392 -3.6105 -1.7176 -0.9980
14654TIP3   OH265376   1.451   1.579  15.085 -0.3279  0.4238  0.1502
14654TIP3    H165377   1.529   1.624  15.053 -0.9553  1.5690  0.1908
14654TIP3    H265378   1.479   1.488  15.097  0.3948  0.3296 -1.9416
14655TIP3   OH265379   2.502   4.244  16.467 -0.8228 -0.2439 -0.0002
14655TIP3    H165380   2.489   4.149  16.471 -4.7564  0.1078 -0.2083
14655TIP3    H265381   2.493   4.273  16.558 -0.1581 -0.0138 -0.0045
14656TIP3   OH265382   1.151   2.012   5.682  0.4140 -0.5610 -0.0981
14656TIP3    H165383   1.237   1.977   5.659  0.9225  0.6504 -0.1361
14656TIP3    H265384   1.170   2.083   5.744 -0.6425 -1.0005  0.7775
14657TIP3   OH265385   3.796   1.427  11.479  0.3508 -0.0319 -0.1075
14657TIP3    H165386   3.811   1.382  11.562 -0.8063 -0.8756 -0.3394
14657TIP3    H265387   3.798   1.358  11.413  3.4328  0.8721 -1.1293
14658TIP3   OH265388   1.000   1.741   4.485 -0.1149  0.4208  0.0125
14658TIP3    H165389   1.042   1.778   4.563  0.8442  1.6052 -1.0054
14658TIP3    H265390   1.056   1.770   4.412  0.1511 -2.2614 -0.9856
14659TIP3   OH265391   6.544   3.398  12.569  0.1997 -0.7474  0.5645
14659TIP3    H165392   6.600   3.361  12.501 -0.7247 -0.2775 -0.4818
14659TIP3    H265393   6.461   3.351  12.560  0.4342 -1.5315  2.1897
14660TIP3   OH265394   2.127   5.000   0.007  0.2205 -0.1472  0.1047
14660TIP3    H165395   2.039   4.982  -0.027 -0.4431  1.5734  0.7812
14660TIP3    H265396   2.141   4.933   0.074 -1.5277  0.7994  1.5350
14661TIP3   OH265397   5.289   2.674  11.626 -0.1772  0.3633  0.6615
14661TIP3    H165398   5.237   2.754  11.633  0.7118  1.2687 -1.8252
14661TIP3    H265399   5.226   2.603  11.632 -1.5784  1.3881 -0.9195
14662TIP3   OH265400   3.908   3.934  13.508  0.0346  0.1332 -0.6113
14662TIP3    H165401   3.960   3.892  13.576 -1.1509 -1.6800 -0.7686
14662TIP3    H265402   3.899   3.868  13.439 -0.7752  1.0966 -1.4669
14663TIP3   OH265403   6.158   0.676  14.983 -0.3319  0.0238 -0.1998
14663TIP3    H165404   6.070   0.681  14.945 -0.8039 -3.0566  0.1898
14663TIP3    H265405   6.216   0.668  14.907 -0.6634 -0.3239 -0.4247
14664TIP3   OH265406   4.767   1.477   0.358 -0.1914  0.2654  0.1203
14664TIP3    H165407   4.828   1.404   0.357 -0.8432 -0.2812 -0.1574
14664TIP3    H265408   4.812   1.547   0.310 -0.4932 -0.7278 -1.7217
14665TIP3   OH265409   4.814   4.050  13.918  0.0743 -0.2123 -0.4656
14665TIP3    H165410   4.861   4.130  13.893 -0.9523  0.7126  0.4701
14665TIP3    H265411   4.881   3.994  13.957  0.5658  0.7566  0.1221
14666TIP3   OH265412   5.406   5.801  11.707 -0.3575 -0.4675 -0.6014
14666TIP3    H165413   5.386   5.737  11.640 -1.2494  0.3997 -1.1893
14666TIP3    H265414   5.501   5.813  11.702 -0.0516 -2.2605  0.0388
14667TIP3   OH265415   3.879   0.665   0.485 -0.2836 -0.0882  0.0063
14667TIP3    H165416   3.941   0.593   0.476 -0.7469 -0.4813 -0.1212
14667TIP3    H265417   3.869   0.699   0.396  0.3130  0.4599  0.1463
14668TIP3   OH265418   4.088   0.932   3.416 -0.4728 -0.2280 -0.1567
14668TIP3    H165419   4.094   1.023   3.387 -0.0137 -0.3964 -0.5902
14668TIP3    H265420   4.177   0.909   3.442 -0.7500 -0.2816  0.7903
14669TIP3   OH265421   4.618   1.624  14.683 -0.1480  0.0684 -0.4721
14669TIP3    H165422   4.620   1.545  14.628  2.4556 -1.4663  1.5994
14669TIP3    H265423   4.527   1.653  14.680 -0.9787 -2.4067 -2.1696
14670TIP3   OH265424   6.066   5.101  11.473 -0.1755  0.0237 -0.5195
14670TIP3    H165425   5.998   5.118  11.408  1.0924  2.1213 -1.4338
14670TIP3    H265426   6.034   5.143  11.553  0.1749  1.4135 -1.0702
14671TIP3   OH265427   3.638   4.027  14.235 -0.4157 -0.5623 -0.1493
14671TIP3    H165428   3.660   3.978  14.156  1.2070 -0.3636  0.1465
14671TIP3    H265429   3.688   3.984  14.305  0.0703  0.7154  0.3258
14672TIP3   OH265430   3.471   1.318  13.725  0.2519 -0.2640  0.0364
14672TIP3    H165431   3.523   1.256  13.674  0.3351 -0.5802  0.4919
14672TIP3    H265432   3.487   1.403  13.684 -0.2131 -0.6025 -0.8729
14673TIP3   OH265433   5.521   4.840  13.406 -0.2983  0.1796  0.0617
14673TIP3    H165434   5.520   4.887  13.489  0.4433  0.3471 -0.0112
14673TIP3    H265435   5.494   4.905  13.341  1.6259  0.8081 -0.1666
14674TIP3   OH265436   3.274   3.626   1.862 -0.6038  0.0129  0.2229
14674TIP3    H165437   3.336   3.593   1.928  2.3308 -1.3849 -2.9092
14674TIP3    H265438   3.260   3.551   1.805 -0.6059  1.8816 -2.3794
14675TIP3   OH265439   0.366   5.620   1.083 -0.7730  0.4421 -0.0909
14675TIP3    H165440   0.392   5.536   1.043  0.2757  0.6388  0.1521
14675TIP3    H265441   0.382   5.608   1.176  1.0109  1.4646 -0.2264
14676TIP3   OH265442   2.419   1.424   3.538  0.4890  0.4000 -0.4767
14676TIP3    H165443   2.430   1.358   3.469  1.6474  1.5993 -1.4870
14676TIP3    H265444   2.352   1.483   3.503 -0.8161 -0.3975  0.5854
14677TIP3   OH265445   2.928   2.720  15.625  0.1545  0.0782  0.6053
14677TIP3    H165446   2.907   2.648  15.565  2.0396  0.0347 -0.0553
14677TIP3    H265447   2.876   2.793  15.592 -0.4406 -0.5037  0.2123
14678TIP3   OH265448   4.068   3.055   4.501 -0.3663  0.6040  0.7055
14678TIP3    H165449   3.979   3.024   4.520 -0.8839  1.1917 -0.6314
14678TIP3    H265450   4.112   3.055   4.586 -1.5219 -0.0616  1.3327
14679TIP3   OH265451   5.605   4.809   0.001 -0.2714  0.4306 -0.6848
14679TIP3    H165452   5.579   4.761  -0.077 -2.1078 -0.2903  0.3187
14679TIP3    H265453   5.625   4.898  -0.031  0.1872 -0.1548 -2.1000
14680TIP3   OH265454   1.003   3.595   4.853  0.0582 -0.0176  0.0585
14680TIP3    H165455   1.009   3.500   4.868 -0.5258 -0.0045  0.4331
14680TIP3    H265456   0.924   3.605   4.799  1.3499  0.0652 -1.9033
14681TIP3   OH265457   2.520   5.889  12.199  0.0695  0.3041  0.4918
14681TIP3    H165458   2.524   5.827  12.127 -0.2803  2.3557 -1.4034
14681TIP3    H265459   2.586   5.955  12.178 -0.4317  1.2596  1.7448
14682TIP3   OH265460   5.571   1.250   6.285  0.4568 -0.5853  0.3413
14682TIP3    H165461   5.528   1.204   6.358  0.5896  0.0371  0.8267
14682TIP3    H265462   5.499   1.290   6.237  0.3812 -0.8409  0.2398
14683TIP3   OH265463   2.480   2.512   4.234 -0.0606 -0.0134  0.1747
14683TIP3    H165464   2.488   2.601   4.201  0.4713 -0.1563 -0.0863
14683TIP3    H265465   2.386   2.492   4.228 -0.1322  0.4001 -0.0874
14684TIP3   OH265466   5.957   5.218   4.966  0.1987 -0.0165  0.6946
14684TIP3    H165467   5.999   5.197   5.050  0.7324 -1.0805  0.1822
14684TIP3    H265468   6.019   5.186   4.900  0.2421  1.6735 -0.1346
14685TIP3   OH265469   3.564   3.446   4.283  0.6045  0.0540  0.0500
14685TIP3    H165470   3.523   3.363   4.261 -0.0066  0.0279  1.2572
14685TIP3    H265471   3.525   3.472   4.366  1.5711  1.0229  0.2266
14686TIP3   OH265472   0.498   2.342   5.404  0.2884  0.1446 -0.1386
14686TIP3    H165473   0.578   2.356   5.353  2.0635 -2.2924  1.6812
14686TIP3    H265474   0.522   2.370   5.493 -0.6576 -1.1208  0.5477
14687TIP3   OH265475   3.093   2.423   4.976 -0.2752  0.1408 -0.1512
14687TIP3    H165476   3.162   2.489   4.984 -0.1123  0.0639 -0.8830
14687TIP3    H265477   3.012   2.472   4.967 -0.4669  0.2453  1.6431
14688TIP3   OH265478   4.985   6.663   1.479  0.8614 -0.1728  0.0127
14688TIP3    H165479   4.935   6.716   1.541  0.5491  0.4176 -0.7242
14688TIP3    H265480   5.024   6.594   1.532  1.2419  0.7656  0.9904
14689TIP3   OH265481   3.032   3.634   3.004 -0.4210 -0.1829  0.2537
14689TIP3    H165482   3.111   3.621   2.952 -1.2066  0.4192 -1.1457
14689TIP3    H265483   2.978   3.557   2.986 -0.1559 -0.6163  1.2448
14690TIP3   OH265484   3.825   1.247   0.518 -0.2059 -0.0332  0.0932
14690TIP3    H165485   3.894   1.182   0.532  0.2049 -0.1654 -2.2221
14690TIP3    H265486   3.871   1.331   0.515 -0.3136  0.0154 -0.2030
14691TIP3   OH265487   0.668   0.602   4.732  0.5810 -0.5676  0.0224
14691TIP3    H165488   0.742   0.567   4.682  1.1654 -2.2315  1.9078
14691TIP3    H265489   0.704   0.678   4.779  0.5331 -0.1428 -0.6217
14692TIP3   OH265490   2.156   2.338  14.401 -0.1138 -0.3282 -0.1255
14692TIP3    H165491   2.142   2.274  14.470 -0.7327 -0.3683 -0.2809
14692TIP3    H265492   2.194   2.414  14.446  4.2599 -2.0505 -0.4462
14693TIP3   OH265493   2.895   3.276   4.466 -0.3464  0.2670 -0.3173
14693TIP3    H165494   2.975   3.269   4.415  0.0521  1.4171  0.1131
14693TIP3    H265495   2.857   3.360   4.439 -0.9045  0.1798  0.1778
14694TIP3   OH265496   0.356   0.284   6.704 -0.3497 -0.5078 -0.4541
14694TIP3    H165497   0.445   0.292   6.739 -0.7174 -0.1337  0.4237
14694TIP3    H265498   0.320   0.207   6.747 -0.7104 -0.2072 -0.2068
14695TIP3   OH265499   2.306   0.690   1.894 -0.4949 -0.2330  0.2867
14695TIP3    H165500   2.235   0.641   1.854 -1.4868  0.5065  1.0807
14695TIP3    H265501   2.385   0.640   1.872 -1.1902 -0.8236 -0.9938
14696TIP3   OH265502   5.335   2.927   2.391 -0.3235 -0.1209 -0.2039
14696TIP3    H165503   5.428   2.947   2.378 -0.2406 -0.6420 -0.4596
14696TIP3    H265504   5.293   2.950   2.309 -0.7800  2.0496  0.5819
14697TIP3   OH265505   1.707   6.509   2.229  0.0815 -0.5449  0.2900
14697TIP3    H165506   1.630   6.498   2.174  0.8636 -1.3806 -0.6840
14697TIP3    H265507   1.683   6.578   2.290 -1.2909 -0.5145 -0.2419
14698TIP3   OH265508   3.928   5.551  12.993  0.3179 -0.6739 -0.0254
14698TIP3    H165509   3.930   5.485  12.924 -1.0147 -0.4001 -0.3518
14698TIP3    H265510   3.900   5.504  13.071 -3.3962 -0.0897 -0.8446
14699TIP3   OH265511   3.937   3.830   5.211  0.2290 -0.1541 -0.4749
14699TIP3    H165512   4.010   3.846   5.151  0.5791 -1.1023 -0.3185
14699TIP3    H265513   3.882   3.766   5.166  0.0193 -0.1954 -0.1679
14700TIP3   OH265514   3.341   4.051   3.264  0.1055  0.0253 -0.2255
14700TIP3    H165515   3.279   3.980   3.282 -1.0453  0.8139 -0.9338
14700TIP3    H265516   3.420   4.027   3.313 -1.1665 -0.3880  1.7441
14701TIP3   OH265517   3.252   0.185  14.575  0.0373 -0.5348  0.7828
14701TIP3    H165518   3.234   0.279  14.584 -0.4204 -0.4835 -0.4014
14701TIP3    H265519   3.256   0.171  14.480  0.2264 -1.6928  0.9481
14702TIP3   OH265520   6.477   0.204   0.720 -0.2542  0.4522 -0.1537
14702TIP3    H165521   6.536   0.131   0.739 -0.4512  0.1911 -0.5202
14702TIP3    H265522   6.443   0.230   0.805  0.4215  0.6388  0.0662
14703TIP3   OH265523   2.177   0.688  16.938  0.5132  0.0531 -0.7221
14703TIP3    H165524   2.234   0.738  16.996 -0.0256  0.4110 -0.4886
14703TIP3    H265525   2.109   0.654  16.995  0.7837 -0.8192 -0.9126
14704TIP3   OH265526   4.633   1.255  10.673  0.1653 -0.3043  0.2431
14704TIP3    H165527   4.712   1.222  10.715 -0.2864 -0.7556  0.7555
14704TIP3    H265528   4.665   1.317  10.606  1.0696 -2.2554 -1.2253
14705TIP3   OH265529   3.603   2.202   0.132  0.1112 -0.2936  0.1407
14705TIP3    H165530   3.611   2.130   0.195  0.8653 -0.4630 -0.1432
14705TIP3    H265531   3.673   2.187   0.069  0.3928  0.7773  0.1711
14706TIP3   OH265532   6.314   6.199   5.654  0.1299  0.3098 -0.2028
14706TIP3    H165533   6.270   6.119   5.682 -0.1107  0.0278 -1.3508
14706TIP3    H265534   6.308   6.199   5.558  0.5399  1.4639 -0.2562
14707TIP3   OH265535   2.781   4.862  15.992  0.3263  0.5098 -0.3307
14707TIP3    H165536   2.839   4.914  15.937  0.3795  0.3336 -0.4418
14707TIP3    H265537   2.825   4.858  16.077 -0.8347  2.7474  0.4617
14708TIP3   OH265538   2.990   5.634   4.278  0.0138  0.5118  0.1001
14708TIP3    H165539   3.065   5.596   4.324  1.7830  1.8411 -1.5616
14708TIP3    H265540   2.919   5.571   4.293  1.8030 -1.5244  0.5781
14709TIP3   OH265541   1.670   2.536   4.928  0.3856  0.0738  0.4676
14709TIP3    H165542   1.660   2.478   4.853 -1.6384  0.5848  0.2942
14709TIP3    H265543   1.672   2.624   4.890 -1.6470  0.4057  1.0283
14710TIP3   OH265544   3.486   6.322   4.879 -0.0727  0.6931 -0.2257
14710TIP3    H165545   3.561   6.262   4.873 -0.3070  0.4675 -0.9804
14710TIP3    H265546   3.426   6.279   4.939 -0.2675  0.1294 -0.8092
14711TIP3   OH265547   6.071   6.612   1.754 -0.5413 -0.7433  0.2328
14711TIP3    H165548   6.017   6.580   1.682 -1.1324 -0.0502  0.3537
14711TIP3    H265549   6.072   6.707   1.743 -0.5770 -0.6320  1.0825
14712TIP3   OH265550   5.101   2.555  15.430 -0.5686 -0.3671 -0.0994
14712TIP3    H165551   5.083   2.491  15.362  0.8034 -0.4006 -0.4613
14712TIP3    H265552   5.117   2.637  15.383  0.9374 -0.5095  0.1031
14713TIP3   OH265553   2.673   1.392  11.642 -0.0935  0.1780  0.0192
14713TIP3    H165554   2.613   1.329  11.605 -0.4025  1.5607 -2.0152
14713TIP3    H265555   2.756   1.377  11.596 -0.2331  1.3581 -0.6640
14714TIP3   OH265556   6.276   3.254  16.120  0.2450 -0.2058  0.1018
14714TIP3    H165557   6.212   3.234  16.052 -0.2209  1.5099 -0.0115
14714TIP3    H265558   6.357   3.274  16.073 -0.0669  0.9420  0.0173
14715TIP3   OH265559   5.957   6.715   1.224 -0.7657  0.9063  0.2521
14715TIP3    H165560   5.881   6.684   1.175  0.3628 -0.5814 -0.6865
14715TIP3    H265561   5.995   6.784   1.169 -1.3485  1.5430  0.6477
14716TIP3   OH265562   6.382   1.024  17.159 -0.1940  0.2159 -0.5376
14716TIP3    H165563   6.463   0.974  17.151 -0.3838  0.0113 -1.3404
14716TIP3    H265564   6.394   1.078  17.237  0.0153 -1.0972  0.3820
14717TIP3   OH265565   5.113   1.038  10.758 -0.3616  0.2254  0.1010
14717TIP3    H165566   5.186   0.976  10.751 -0.8296 -0.2379 -0.8140
14717TIP3    H265567   5.153   1.119  10.790  0.6544  0.1495 -0.9208
14718TIP3   OH265568   4.707   0.228  11.099  0.7015  0.0406  0.3881
14718TIP3    H165569   4.749   0.271  11.025 -1.2704 -0.1521 -0.9461
14718TIP3    H265570   4.723   0.134  11.084 -1.0239 -0.1310 -0.7876
14719TIP3   OH265571   3.457   0.900  15.989 -0.3612 -0.1086 -0.5358
14719TIP3    H165572   3.402   0.946  15.926  0.5924  1.3480 -0.3522
14719TIP3    H265573   3.547   0.921  15.963  0.1138 -1.5229 -0.1623
14720TIP3   OH265574   6.728   6.007  14.858  0.0674  0.1652  0.6458
14720TIP3    H165575   6.797   5.945  14.836  0.9019  1.6751 -1.3317
14720TIP3    H265576   6.656   5.985  14.799 -0.0406  0.4306  0.6769
14721TIP3   OH265577   4.011   0.947  12.547 -0.4965  0.3309  0.3615
14721TIP3    H165578   4.064   1.006  12.493 -2.0069 -0.9143 -2.6940
14721TIP3    H265579   3.923   0.952  12.510 -0.5176 -4.6078 -0.9649
14722TIP3   OH265580   6.592   2.611   6.005 -0.2337 -0.2575  0.2349
14722TIP3    H165581   6.611   2.673   6.075  0.3170  0.1795 -0.2930
14722TIP3    H265582   6.545   2.540   6.048 -1.6519  0.9117  0.7099
14723TIP3   OH265583   4.574   6.701  10.718 -0.5513  0.0795  0.5466
14723TIP3    H165584   4.481   6.680  10.706 -0.5899  0.8360 -0.5343
14723TIP3    H265585   4.577   6.796  10.723  0.3461  0.1729 -1.2000
14724TIP3   OH265586   3.760   2.122  11.970  0.2348  0.2415 -0.3514
14724TIP3    H165587   3.680   2.073  11.955  0.3147 -0.8355  2.3279
14724TIP3    H265588   3.731   2.204  12.011  0.4274  0.5584 -0.8288
14725TIP3   OH265589   6.517   4.512   5.003  0.1025  0.4745 -0.2233
14725TIP3    H165590   6.594   4.462   4.977 -0.5417 -0.8374  0.3269
14725TIP3    H265591   6.551   4.600   5.020  1.9729 -0.6176  2.3528
14726TIP3   OH265592   0.263   2.255  12.649 -0.0601  0.0975  0.0265
14726TIP3    H165593   0.286   2.286  12.562  0.8920 -2.3326 -0.6828
14726TIP3    H265594   0.183   2.204  12.636 -0.8219  1.0383  0.8861
14727TIP3   OH265595   2.447   0.919   0.095  0.6959  0.3863 -0.9038
14727TIP3    H165596   2.394   0.954   0.023 -0.4555  0.4417 -0.0644
14727TIP3    H265597   2.426   0.825   0.097  0.6941  0.3905 -0.6243
14728TIP3   OH265598   4.168   4.971  10.416  0.4477 -0.9223  1.2662
14728TIP3    H165599   4.208   5.023  10.346 -1.1032  0.0147  1.0243
14728TIP3    H265600   4.170   5.029  10.493 -3.6907  0.7772  0.3774
14729TIP3   OH265601   1.479   0.633  14.615 -0.4935 -0.2711 -0.0094
14729TIP3    H165602   1.513   0.576  14.547  0.6524  1.0554 -0.6185
14729TIP3    H265603   1.558   0.672  14.655 -1.2147  2.0357 -0.6858
14730TIP3   OH265604   2.365   5.667  12.621  0.2149  0.8661 -0.0635
14730TIP3    H165605   2.459   5.648  12.624  0.2556  1.0703 -0.0038
14730TIP3    H265606   2.353   5.716  12.540 -0.2863 -1.4616 -1.4823
14731TIP3   OH265607   1.299   5.381   1.618 -0.0970 -0.2734  0.1112
14731TIP3    H165608   1.294   5.468   1.578 -0.1000  0.2030  1.1110
14731TIP3    H265609   1.238   5.328   1.567 -0.8775  0.5743  0.1290
14732TIP3   OH265610   1.201   5.417  16.496 -0.1834 -0.0054 -0.1009
14732TIP3    H165611   1.194   5.337  16.445 -0.3528 -0.3663  0.4811
14732TIP3    H265612   1.115   5.458  16.488  0.0359  0.3339 -0.7474
14733TIP3   OH265613   5.471   5.522   2.961 -0.3035 -0.4499 -0.0876
14733TIP3    H165614   5.549   5.539   3.014  0.3446 -2.0124 -0.4929
14733TIP3    H265615   5.412   5.595   2.982  0.6054 -0.1077  1.4801
14734TIP3   OH265616   5.658   3.570  11.333 -0.5368 -0.0167 -0.0194
14734TIP3    H165617   5.638   3.634  11.265 -0.2777 -0.9751 -1.0266
14734TIP3    H265618   5.583   3.572  11.391 -0.5003  1.2491  0.0183
14735TIP3   OH265619   2.721   4.406  16.232  0.6553  0.2948  0.0681
14735TIP3    H165620   2.769   4.473  16.280  0.8365 -0.2525  0.6762
14735TIP3    H265621   2.668   4.454  16.168  1.4612  0.9491 -0.1149
14736TIP3   OH265622   3.462   5.308   4.246 -0.2874  0.7659  0.4910
14736TIP3    H165623   3.460   5.308   4.342  1.8325 -0.8653  0.6097
14736TIP3    H265624   3.439   5.218   4.222 -0.4706  1.0774 -0.5333
14737TIP3   OH265625   0.842   1.144  16.018  0.2082 -0.4601  0.0081
14737TIP3    H165626   0.754   1.107  16.019 -0.5324  0.9599 -2.7890
14737TIP3    H265627   0.844   1.205  16.091 -1.1612 -0.4657  0.0659
14738TIP3   OH265628   4.817   5.306   0.279 -0.2932 -0.4575  0.1328
14738TIP3    H165629   4.758   5.253   0.224 -1.0394  0.9460 -0.4814
14738TIP3    H265630   4.787   5.290   0.368 -0.8848 -0.6321 -0.0892
14739TIP3   OH265631   5.827   1.282   1.077  0.1264  0.1822  0.1828
14739TIP3    H165632   5.875   1.345   1.130 -0.6599  3.1750 -2.3155
14739TIP3    H265633   5.735   1.299   1.098 -0.0719 -0.5975 -0.0394
14740TIP3   OH265634   5.735   2.641  16.469 -0.0602  0.2441 -0.6528
14740TIP3    H165635   5.692   2.727  16.460 -0.9252 -0.2890 -1.7917
14740TIP3    H265636   5.795   2.636  16.395  0.4598  0.1087 -0.2318
14741TIP3   OH265637   5.193   1.557   4.608  0.2602 -0.0524  0.4365
14741TIP3    H165638   5.149   1.555   4.523  0.4678 -2.3376  0.3328
14741TIP3    H265639   5.281   1.589   4.589  0.5874 -1.3891 -0.3744
14742TIP3   OH265640   1.694   6.037   6.637  0.2094  0.2118  0.5103
14742TIP3    H165641   1.620   6.068   6.690  0.2631  0.2801  0.5473
14742TIP3    H265642   1.695   6.095   6.561  1.4417  1.5296  1.4777
14743TIP3   OH265643   5.821   0.691  12.339 -0.2574 -0.2484 -0.2989
14743TIP3    H165644   5.745   0.702  12.281 -1.4035 -0.5297  1.1095
14743TIP3    H265645   5.845   0.599  12.329  0.4791  0.0281 -1.3825
14744TIP3   OH265646   2.020   5.237   6.731  0.4248  0.0450 -1.0277
14744TIP3    H165647   1.954   5.258   6.797  0.1832  1.0546 -1.5684
14744TIP3    H265648   2.095   5.290   6.754  1.9369 -2.6756  0.8702
14745TIP3   OH265649   5.906   1.014   1.732 -0.3761 -0.2945 -0.3900
14745TIP3    H165650   5.823   0.971   1.712 -0.4063 -1.0001  1.1513
14745TIP3    H265651   5.957   1.004   1.652 -1.8314  0.3448 -1.4404
14746TIP3   OH265652   3.309   4.711   3.684 -0.4269 -0.3287  0.4072
14746TIP3    H165653   3.239   4.729   3.622 -0.8960 -1.2809  0.6420
14746TIP3    H265654   3.286   4.761   3.763  1.2225  2.5613 -0.7989
14747TIP3   OH265655   1.638   3.188   0.790  0.0869  0.4902  0.0754
14747TIP3    H165656   1.591   3.265   0.758  1.3319  0.6648 -1.5014
14747TIP3    H265657   1.689   3.220   0.864 -0.3590  0.8789  0.2195
14748TIP3   OH265658   4.905   3.425  14.692 -0.0672 -0.2204  0.0147
14748TIP3    H165659   4.820   3.435  14.734  0.8728 -1.1649  2.3021
14748TIP3    H265660   4.933   3.337  14.715  1.3957 -0.0660 -1.0121
14749TIP3   OH265661   4.493   4.289  15.030 -0.4230  0.9928  0.1514
14749TIP3    H165662   4.541   4.364  15.066 -0.7426  0.5167  1.6058
14749TIP3    H265663   4.489   4.307  14.936  1.7428  1.5352  0.0999
14750TIP3   OH265664   4.685   0.587   1.660 -0.2699  0.2355  0.3430
14750TIP3    H165665   4.731   0.616   1.739  0.9855 -2.3546  0.6755
14750TIP3    H265666   4.672   0.493   1.673 -0.8797 -0.0951 -2.1535
14751TIP3   OH265667   5.269   5.156   0.468  0.1005  0.0574 -0.0187
14751TIP3    H165668   5.291   5.199   0.385 -1.2131  1.0414  0.1087
14751TIP3    H265669   5.256   5.064   0.445  1.9213 -0.1318 -0.4905
14752TIP3   OH265670   0.432   4.503   4.811  0.3081 -0.2697 -0.2491
14752TIP3    H165671   0.489   4.456   4.872 -1.4827 -2.1123  0.1238
14752TIP3    H265672   0.366   4.543   4.867 -0.2173 -0.3071 -0.8391
14753TIP3   OH265673   1.695   0.833  14.124  0.0942  0.0380 -0.1058
14753TIP3    H165674   1.688   0.757  14.066 -1.4728  0.7005 -0.8595
14753TIP3    H265675   1.657   0.905  14.074  0.3318  1.0271  1.0834
14754TIP3   OH265676   3.723   2.357   4.114  0.0804  0.2136  0.0566
14754TIP3    H165677   3.805   2.332   4.156  0.5157  0.9690 -0.3159
14754TIP3    H265678   3.749   2.388   4.027 -0.2259  3.1225  0.8987
14755TIP3   OH265679   6.361   5.113   2.407  0.4019  0.3217  0.8787
14755TIP3    H165680   6.416   5.064   2.346  1.1679  0.7972  1.1813
14755TIP3    H265681   6.284   5.136   2.356 -0.4469 -2.0009  0.9735
14756TIP3   OH265682   5.121   3.361  15.815  0.2118  0.2403  0.2486
14756TIP3    H165683   5.110   3.449  15.780 -1.2921 -0.3783 -0.9213
14756TIP3    H265684   5.065   3.358  15.893 -1.2913 -0.2468 -0.8137
14757TIP3   OH265685   2.359   6.147  16.048  0.5684 -0.0318  0.2104
14757TIP3    H165686   2.305   6.081  16.090  2.3175 -1.3946  0.4477
14757TIP3    H265687   2.334   6.143  15.956 -1.3617  1.0596  0.6318
14758TIP3   OH265688   6.328   3.712  12.517 -0.2612  0.4219  0.2181
14758TIP3    H165689   6.361   3.724  12.606  0.7173 -0.9884  0.0723
14758TIP3    H265690   6.386   3.765  12.462 -1.6427  2.3183  0.5175
14759TIP3   OH265691   3.528   1.254   7.095 -0.4550 -0.3386  0.2739
14759TIP3    H165692   3.585   1.330   7.100 -0.9463  0.0666 -0.2082
14759TIP3    H265693   3.453   1.283   7.044  0.1201 -1.6105 -1.4174
14760TIP3   OH265694   5.115   6.018  14.058 -0.8569 -0.2376 -0.0462
14760TIP3    H165695   5.120   6.113  14.050 -1.7472 -0.2225 -0.5450
14760TIP3    H265696   5.177   5.997  14.128  0.7039  0.5202 -1.1204
14761TIP3   OH265697   1.304   6.724   1.128  0.4704  0.4215 -0.1916
14761TIP3    H165698   1.356   6.770   1.193 -0.7722  1.3957  0.1680
14761TIP3    H265699   1.357   6.650   1.102  0.1927 -1.2775  3.4949
14762TIP3   OH265700   1.672   3.479  13.175 -0.5898 -0.2971 -0.2188
14762TIP3    H165701   1.739   3.412  13.186  0.4289  0.7689  0.3542
14762TIP3    H265702   1.651   3.478  13.082  2.1830  1.0918 -0.9607
14763TIP3   OH265703   0.986   0.911  16.787 -0.4338  0.0140 -0.1754
14763TIP3    H165704   1.034   0.967  16.727 -0.5080  0.5620  0.2700
14763TIP3    H265705   1.007   0.822  16.759 -0.1697  0.2592 -0.7721
14764TIP3   OH265706   2.425   3.261   3.395  0.4498  0.3505  0.3346
14764TIP3    H165707   2.400   3.176   3.432 -1.0055  0.9990  0.9320
14764TIP3    H265708   2.497   3.292   3.450  0.4158 -0.1219  0.6460
14765TIP3   OH265709   2.816   6.286   0.030 -0.2697 -0.2952 -0.0365
14765TIP3    H165710   2.892   6.239   0.064 -0.5315 -1.2581 -0.7282
14765TIP3    H265711   2.798   6.354   0.095  1.5087  0.2973 -0.1304
14766TIP3   OH265712   0.590   3.361   5.759 -0.4583  0.6149  0.6013
14766TIP3    H165713   0.611   3.393   5.847 -0.7113  1.5890  0.3159
14766TIP3    H265714   0.495   3.362   5.755 -0.5886 -1.9425  1.2043
14767TIP3   OH265715   0.015   3.573   5.727 -0.2211 -0.1556  1.0477
14767TIP3    H165716  -0.072   3.540   5.752 -0.7044  1.0004  0.9758
14767TIP3    H265717   0.052   3.504   5.672 -0.1776 -1.6351  2.8371
14768TIP3   OH265718   3.817   2.199   5.295 -0.1640  0.3220 -0.4053
14768TIP3    H165719   3.804   2.229   5.205 -0.7820  1.9384  0.1869
14768TIP3    H265720   3.749   2.134   5.309 -0.3699  0.4157 -0.9660
14769TIP3   OH265721   5.947   5.356   0.043  0.0065 -0.1723  0.3509
14769TIP3    H165722   5.924   5.269   0.011  2.0927 -0.8430  0.4817
14769TIP3    H265723   5.892   5.416  -0.007  1.1590 -1.3427 -2.5938
14770TIP3   OH265724   0.973   5.807  15.655  0.0166  0.4023 -0.2358
14770TIP3    H165725   1.044   5.787  15.593 -0.4036 -0.2659 -0.5145
14770TIP3    H265726   0.938   5.891  15.626 -1.3756 -0.7305 -2.0712
14771TIP3   OH265727   5.315   6.171  16.630 -0.1928  0.3136 -0.7649
14771TIP3    H165728   5.328   6.107  16.701 -0.1811 -0.9357 -1.8489
14771TIP3    H265729   5.349   6.253  16.665  0.3918 -0.4146  0.4482
14772TIP3   OH265730   6.091   6.129   0.879  0.1435 -0.0133 -0.0652
14772TIP3    H165731   6.003   6.091   0.880 -1.4085  2.9972 -2.9109
14772TIP3    H265732   6.097   6.178   0.961 -1.0645  0.1237 -0.0361
14773TIP3   OH265733   4.397   2.099  16.728 -0.0757 -0.1147  0.2361
14773TIP3    H165734   4.440   2.037  16.788  0.0117 -0.6070 -0.3235
14773TIP3    H265735   4.327   2.048  16.687 -1.5956  0.8382  1.5556
14774TIP3   OH265736   0.888   3.606   1.561  0.6804 -0.2622 -0.4761
14774TIP3    H165737   0.884   3.654   1.478  2.0549  1.9639  0.6566
14774TIP3    H265738   0.851   3.666   1.625 -0.5062 -2.0070  0.5538
14775TIP3   OH265739   3.310   3.612   0.341 -0.1425  0.1235  0.3294
14775TIP3    H165740   3.375   3.548   0.313  0.6883  0.0114  2.3089
14775TIP3    H265741   3.234   3.559   0.364  0.3185 -0.1252  1.3474
14776TIP3   OH265742   4.940   4.649   4.640  0.4098  0.3049  0.6459
14776TIP3    H165743   4.854   4.605   4.636  0.5557 -0.0830  1.5839
14776TIP3    H265744   4.923   4.730   4.687  0.2521  1.0100 -0.5959
14777TIP3   OH265745   3.089   6.647   5.524  0.4533 -0.2434 -0.1734
14777TIP3    H165746   2.997   6.637   5.501  0.3168  2.0627 -0.8460
14777TIP3    H265747   3.089   6.674   5.615  0.4545 -0.0805 -0.2217
14778TIP3   OH265748   0.495   4.659  17.018  0.0138 -0.2395  0.0799
14778TIP3    H165749   0.522   4.625  17.103  0.6197 -1.2616 -0.4981
14778TIP3    H265750   0.400   4.671  17.026  0.1907  0.5921  1.1867
14779TIP3   OH265751   1.127   6.239  14.803  0.0968  0.0771  0.0538
14779TIP3    H165752   1.091   6.324  14.829  1.6093  0.8020 -0.1158
14779TIP3    H265753   1.180   6.258  14.726 -1.1061 -1.3817 -1.2021
14780TIP3   OH265754   3.301   3.322  15.629 -0.0557  0.0178 -0.2409
14780TIP3    H165755   3.278   3.335  15.721  1.2715  1.9501 -0.1387
14780TIP3    H265756   3.348   3.238  15.628 -2.5640 -1.5186  0.2988
14781TIP3   OH265757   1.844   1.054   6.240 -0.1638 -0.2043  0.2376
14781TIP3    H165758   1.889   0.978   6.276  0.8996  0.1323 -0.3194
14781TIP3    H265759   1.915   1.108   6.203 -1.2340 -1.3368 -3.8945
14782TIP3   OH265760   2.114   6.556  16.428 -0.0976  0.2221  0.1710
14782TIP3    H165761   2.085   6.482  16.373 -0.1556 -0.2661  0.8487
14782TIP3    H265762   2.039   6.574  16.484  0.0510  0.5592  0.2587
14783TIP3   OH265763   4.111   5.389  16.971  0.0734 -0.4957 -0.3008
14783TIP3    H165764   4.138   5.341  17.049  1.0264 -1.6931 -1.3358
14783TIP3    H265765   4.171   5.360  16.902 -0.6840  0.5950 -1.4759
14784TIP3   OH265766   3.309   5.243  13.478 -0.1825  0.0578  0.6242
14784TIP3    H165767   3.322   5.215  13.568  2.3376  0.7369  0.5615
14784TIP3    H265768   3.383   5.302  13.460 -0.9185  0.4016 -1.7013
14785TIP3   OH265769   1.621   2.930  12.552  0.3751  0.2768  0.1635
14785TIP3    H165770   1.587   2.876  12.481 -0.1322  0.6015  0.1585
14785TIP3    H265771   1.630   2.869  12.626  2.0471 -0.3407 -0.4922
14786TIP3   OH265772   4.654   6.538   2.426 -0.6457  0.3461  0.8605
14786TIP3    H165773   4.642   6.447   2.398 -3.1263  0.9710 -0.4281
14786TIP3    H265774   4.622   6.539   2.516  0.0379 -0.1589  1.1217
14787TIP3   OH265775   2.091   1.063   6.474 -0.0675 -0.3479 -0.2587
14787TIP3    H165776   2.008   1.087   6.515 -0.2423 -2.6973  0.9638
14787TIP3    H265777   2.075   0.975   6.440  1.8061 -0.6808 -0.3521
14788TIP3   OH265778   5.752   0.769  13.731 -0.5952  0.0235  0.1769
14788TIP3    H165779   5.674   0.787  13.783 -1.5482  0.8891 -1.4762
14788TIP3    H265780   5.719   0.752  13.643  0.9945 -0.9425 -0.2689
14789TIP3   OH265781   3.855   5.201   3.854 -0.1624 -0.1905 -0.1710
14789TIP3    H165782   3.919   5.164   3.915 -2.2101 -0.9277  1.6792
14789TIP3    H265783   3.878   5.164   3.769  0.9003 -1.6729  0.7204
14790TIP3   OH265784   0.205   4.229  15.838 -0.3347  0.2723 -0.1879
14790TIP3    H165785   0.260   4.242  15.915 -1.3451  0.0312  0.6076
14790TIP3    H265786   0.185   4.317  15.807 -0.9482  0.4161  0.5959
14791TIP3   OH265787   4.011   2.188   3.549 -0.0939 -0.0400  0.1702
14791TIP3    H165788   4.086   2.128   3.556  0.9135  1.2266  0.7802
14791TIP3    H265789   3.970   2.166   3.466  2.1218  0.4795 -1.1457
14792TIP3   OH265790   5.593   4.633  10.544 -0.4971  0.4125  0.1761
14792TIP3    H165791   5.636   4.552  10.516 -1.6198  0.0355 -0.5133
14792TIP3    H265792   5.502   4.609  10.557 -0.4673  1.1270  1.9583
14793TIP3   OH265793   0.826   3.107  14.992  0.0046  0.3575  0.1313
14793TIP3    H165794   0.730   3.103  14.985 -0.2644  0.8542  2.5834
14793TIP3    H265795   0.847   3.050  15.066  1.6045  0.4051 -0.2549
14794TIP3   OH265796   6.602   5.980   3.145 -0.1712 -0.0003 -0.5039
14794TIP3    H165797   6.648   5.925   3.082  1.9769  1.4889 -0.3251
14794TIP3    H265798   6.530   5.925   3.177  0.2946 -1.7178 -2.2545
14795TIP3   OH265799   1.927   2.860  11.915  0.0630  0.0034 -0.1958
14795TIP3    H165800   1.958   2.939  11.960 -3.0055  1.3185 -0.1691
14795TIP3    H265801   1.882   2.810  11.983 -2.1551  0.6339 -1.1095
14796TIP3   OH265802   5.422   0.914  12.401  0.5929  0.3515  0.6365
14796TIP3    H165803   5.340   0.960  12.385  0.4180 -0.4654 -0.9725
14796TIP3    H265804   5.412   0.830  12.357  2.1250  0.0474  0.7955
14797TIP3   OH265805   5.305   0.464  11.830 -0.0902  0.3949  0.4231
14797TIP3    H165806   5.367   0.531  11.803 -1.9791  1.3543 -1.7917
14797TIP3    H265807   5.359   0.385  11.838  1.6011  1.4054 -0.3380
14798TIP3   OH265808   5.369   0.193   3.735 -0.4141  0.6171 -0.1048
14798TIP3    H165809   5.445   0.240   3.700  0.3286 -0.6152 -0.2474
14798TIP3    H265810   5.386   0.186   3.829 -0.6595  0.8664 -0.0404
14799TIP3   OH265811   1.934   4.531   5.439  0.0328  0.6108  0.1984
14799TIP3    H165812   1.940   4.602   5.376 -0.1713 -0.1721 -0.7237
14799TIP3    H265813   1.957   4.453   5.390  2.0546  0.2399  1.6213
14800TIP3   OH265814   1.503   1.209   4.831  0.0787 -0.0971  0.4382
14800TIP3    H165815   1.540   1.230   4.917  0.7651 -2.1635  0.7000
14800TIP3    H265816   1.411   1.193   4.849  0.3740 -1.3009  0.9529
14801TIP3   OH265817   5.839   0.663   4.705  0.5481 -0.6346  0.3709
14801TIP3    H165818   5.822   0.743   4.755  0.3167  0.2838 -1.1069
14801TIP3    H265819   5.919   0.627   4.743  1.3495  0.9746  0.2873
14802TIP3   OH265820   2.536   5.817   4.901  0.0632 -0.8126 -0.0212
14802TIP3    H165821   2.566   5.835   4.990 -0.4418 -1.2478  0.2476
14802TIP3    H265822   2.569   5.889   4.848 -0.9374  0.2680  0.7972
14803TIP3   OH265823   4.325   2.097  15.416 -0.0178 -0.3981  0.0713
14803TIP3    H165824   4.315   2.187  15.447  1.5410  0.3889 -1.5585
14803TIP3    H265825   4.235   2.062  15.415 -0.7018  1.2641  0.3386
14804TIP3   OH265826   1.521   5.532  14.767  0.8786 -0.7910 -0.2814
14804TIP3    H165827   1.524   5.539  14.672 -1.8352 -0.9835 -0.4691
14804TIP3    H265828   1.483   5.446  14.784  1.7143 -0.9345  1.0041
14805TIP3   OH265829   1.386   5.155  11.660 -0.2347 -0.4210  0.5230
14805TIP3    H165830   1.359   5.085  11.720  1.1673  0.9404  2.8847
14805TIP3    H265831   1.470   5.184  11.693 -1.5367  3.6383  0.8361
14806TIP3   OH265832   0.274   3.443  12.769  0.6345  0.2038  0.0446
14806TIP3    H165833   0.331   3.387  12.716 -0.6521 -0.2309 -0.9554
14806TIP3    H265834   0.220   3.382  12.819  0.6143  0.5902  0.4976
14807TIP3   OH265835   1.907   0.523   4.767 -0.3723  0.2814 -0.8406
14807TIP3    H165836   2.002   0.510   4.771 -0.7458 -3.3353 -0.3436
14807TIP3    H265837   1.885   0.567   4.849  0.5972 -2.0736  0.7996
14808TIP3   OH265838   6.261   1.678  14.739  0.9144 -0.1898 -0.0762
14808TIP3    H165839   6.300   1.754  14.695  0.9651 -1.4413 -2.3239
14808TIP3    H265840   6.235   1.712  14.825  1.3773  2.2425 -0.8028
14809TIP3   OH265841   4.888   5.741   0.010 -0.4380  0.2709 -0.2317
14809TIP3    H165842   4.907   5.745   0.104  1.4851 -0.3725 -0.5528
14809TIP3    H265843   4.804   5.786   0.001 -0.3492  0.9281  1.7077
14810TIP3   OH265844   2.226   1.817  17.207 -0.3994 -0.0869  0.2437
14810TIP3    H165845   2.217   1.744  17.268 -0.6130  0.8425  1.3559
14810TIP3    H265846   2.311   1.802  17.165  1.4361  1.0018  3.2261
14811TIP3   OH265847   6.113   5.600  15.777  0.8446 -0.3837  0.6371
14811TIP3    H165848   6.109   5.683  15.730  0.5835  0.2635  1.7555
14811TIP3    H265849   6.023   5.568  15.777  0.9618 -0.7256  0.1220
14812TIP3   OH265850   0.211   5.046   6.620 -0.0210  0.3553 -0.2423
14812TIP3    H165851   0.216   4.970   6.678 -0.9113  0.2381 -0.3071
14812TIP3    H265852   0.124   5.042   6.582  0.3657  0.7294 -1.1971
14813TIP3   OH265853   4.504   1.274  11.386  0.2094  0.3490  0.1160
14813TIP3    H165854   4.513   1.350  11.329  0.4420  1.2349  1.3010
14813TIP3    H265855   4.485   1.311  11.472  0.8040 -0.9166  0.8149
14814TIP3   OH265856   1.733   3.100  16.297  0.0698  0.8884 -0.5119
14814TIP3    H165857   1.682   3.027  16.331  0.1565  0.9545 -0.2392
14814TIP3    H265858   1.766   3.069  16.213  1.1276  0.1408  0.1466
14815TIP3   OH265859   4.722   5.173   2.545  0.0308  0.2694 -0.1684
14815TIP3    H165860   4.704   5.104   2.480 -0.9893  0.5786 -0.2244
14815TIP3    H265861   4.686   5.138   2.627 -2.2821  1.5045 -0.5768
14816TIP3   OH265862   4.314   3.795  14.983 -1.4321  0.8408 -0.0828
14816TIP3    H165863   4.279   3.836  14.904 -0.2352 -0.5733 -1.4249
14816TIP3    H265864   4.339   3.707  14.955 -0.6897  0.3988  1.8106
14817TIP3   OH265865   1.253   2.671  14.404  0.0776 -0.2082 -0.6840
14817TIP3    H165866   1.275   2.741  14.342  0.4432  0.8910  0.6308
14817TIP3    H265867   1.188   2.710  14.463  1.2020 -0.5300  0.8342
14818TIP3   OH265868   4.689   3.135   5.466  0.4594  0.6086 -0.1032
14818TIP3    H165869   4.718   3.098   5.550 -0.0039  0.5694  0.0492
14818TIP3    H265870   4.603   3.094   5.452 -1.6383  3.9534  1.6732
14819TIP3   OH265871   1.441   1.804   3.525 -0.2908  0.2820 -0.2972
14819TIP3    H165872   1.403   1.882   3.566  0.3133  1.1108 -1.2329
14819TIP3    H265873   1.470   1.835   3.439  0.1186 -0.9511 -0.6223
14820TIP3   OH265874   2.119   3.255   5.511  0.5765 -0.5132 -0.6175
14820TIP3    H165875   2.119   3.201   5.590 -0.6393  0.4761  0.1077
14820TIP3    H265876   2.155   3.199   5.443  1.5246 -1.4392  0.6057
14821TIP3   OH265877   2.714   0.845   0.215  0.1794 -0.5533  0.0462
14821TIP3    H165878   2.761   0.764   0.192 -1.1916 -0.5446 -3.3717
14821TIP3    H265879   2.631   0.838   0.169 -0.2648  2.5241  0.1754
14822TIP3   OH265880   0.744   6.659   3.091  0.2563  0.0058  0.2329
14822TIP3    H165881   0.655   6.639   3.060  0.4919  1.3509 -1.4802
14822TIP3    H265882   0.776   6.726   3.030  2.3372 -0.2039  1.0163
14823TIP3   OH265883   6.580   4.610   2.655 -0.5468 -0.1099  0.5966
14823TIP3    H165884   6.579   4.653   2.570  2.1564 -0.1225  0.4706
14823TIP3    H265885   6.586   4.517   2.634  3.9264 -0.0218  0.5382
14824TIP3   OH265886   2.840   3.370   1.947  0.3202 -0.2073  0.0368
14824TIP3    H165887   2.869   3.335   2.031 -2.9600 -0.3136  1.3028
14824TIP3    H265888   2.858   3.300   1.884  0.9929 -0.9697  1.0488
14825TIP3   OH265889   5.912   4.808   0.035  0.0908 -0.6584 -1.0542
14825TIP3    H165890   5.859   4.739  -0.006  0.0329 -1.2921  0.0522
14825TIP3    H265891   5.871   4.823   0.120 -0.9938  2.0609 -1.9352
14826TIP3   OH265892   5.730   0.424  16.268  0.3536  0.0814 -0.2609
14826TIP3    H165893   5.686   0.461  16.192  0.1387 -1.9624 -1.2064
14826TIP3    H265894   5.797   0.366  16.231  1.0477 -0.0368  1.1164
14827TIP3   OH265895   5.374   5.029   0.116  0.1445  0.3087  0.3910
14827TIP3    H165896   5.438   5.099   0.127 -0.3102  0.4866  2.2567
14827TIP3    H265897   5.297   5.073   0.080 -0.8114  1.2493  3.3135
14828TIP3   OH265898   0.321   2.084   1.690  0.7439  0.3619  0.0825
14828TIP3    H165899   0.239   2.037   1.673  1.5307 -0.8277 -0.5857
14828TIP3    H265900   0.294   2.175   1.704 -0.8873 -0.3563  2.0060
14829TIP3   OH265901   0.104   5.625   4.671 -0.2859 -0.5281  0.3300
14829TIP3    H165902   0.178   5.564   4.674 -0.4588 -0.7298  0.5289
14829TIP3    H265903   0.145   5.711   4.677 -0.0213 -0.6105 -0.2318
14830TIP3   OH265904   0.284   5.881  14.047 -0.2073  1.0715 -0.5273
14830TIP3    H165905   0.238   5.807  14.007  0.1447  0.1138  0.7671
14830TIP3    H265906   0.214   5.935  14.084 -0.4016  0.6626 -0.2899
14831TIP3   OH265907   3.054   5.639  12.142  0.6484  0.0562  0.2546
14831TIP3    H165908   3.002   5.714  12.169 -0.3703 -1.1845  1.9876
14831TIP3    H265909   3.130   5.641  12.200  0.1257 -0.7454  1.0062
14832TIP3   OH265910   3.297   2.114   0.307 -0.4307  0.3685 -0.2111
14832TIP3    H165911   3.211   2.123   0.348 -0.0147 -0.1299  0.7911
14832TIP3    H265912   3.281   2.131   0.214 -1.3365  1.8832  0.1854
14833TIP3   OH265913   0.256   5.333  16.340 -0.0275 -0.5930  0.2646
14833TIP3    H165914   0.213   5.252  16.313 -2.6024  0.5260  0.7333
14833TIP3    H265915   0.293   5.369  16.259 -1.8142 -0.5818 -0.5890
14834TIP3   OH265916   6.084   2.918  12.051  0.1263 -0.4541 -0.1678
14834TIP3    H165917   6.133   2.912  11.969 -0.4431 -0.8281 -0.4819
14834TIP3    H265918   6.037   3.001  12.044 -1.5624 -1.4348 -1.1556
14835TIP3   OH265919   2.852   2.515  15.468 -0.5598  0.1835  0.2979
14835TIP3    H165920   2.818   2.427  15.455 -0.1277  0.2728 -2.0247
14835TIP3    H265921   2.797   2.570  15.413  0.1297  1.1135  0.5137
14836TIP3   OH265922   0.203   0.863   2.686  0.2834  0.3464 -0.5404
14836TIP3    H165923   0.230   0.780   2.646  0.7292  1.4652 -2.7272
14836TIP3    H265924   0.116   0.880   2.652 -0.8430 -0.3374  1.8122
14837TIP3   OH265925   1.104   1.333  17.164 -0.3539  0.4962  0.3223
14837TIP3    H165926   1.199   1.328  17.178 -0.4749 -0.7120  0.7775
14837TIP3    H265927   1.088   1.273  17.091 -0.6029  1.7571 -0.6970
14838TIP3   OH265928   3.150   0.871  12.375  0.0436  0.1091  0.4918
14838TIP3    H165929   3.113   0.923  12.447  1.0821 -0.1159  1.2125
14838TIP3    H265930   3.075   0.824  12.338 -0.5686  0.5108  1.1908
14839TIP3   OH265931   4.686   4.575   5.359  0.3510 -0.1738  0.1957
14839TIP3    H165932   4.780   4.594   5.358  0.5893 -1.1507 -1.6606
14839TIP3    H265933   4.671   4.528   5.277 -1.8922  0.5319  0.1463
14840TIP3   OH265934   1.366   6.093  13.436 -0.6399 -0.2294 -0.3426
14840TIP3    H165935   1.347   6.024  13.371  0.2405  1.0382 -2.0223
14840TIP3    H265936   1.457   6.077  13.461 -1.1810 -1.1324  1.1770
14841TIP3   OH265937   2.397   1.677  14.618 -0.3088  0.1146 -0.1427
14841TIP3    H165938   2.397   1.750  14.680  1.6622 -1.6359  2.1229
14841TIP3    H265939   2.488   1.669  14.590 -0.4011 -1.6289 -0.0666
14842TIP3   OH265940   6.385   0.230  13.269 -0.3188 -0.0125 -0.6869
14842TIP3    H165941   6.430   0.310  13.297 -1.9986  0.8914 -0.4246
14842TIP3    H265942   6.417   0.162  13.329  2.0287  0.1640 -1.6672
14843TIP3   OH265943   5.937   3.526  14.041 -0.5997  0.1810  0.4032
14843TIP3    H165944   5.884   3.606  14.038 -0.5076  0.2230 -0.1013
14843TIP3    H265945   5.920   3.490  14.128 -1.3868  0.2363  0.2759
14844TIP3   OH265946   4.775   4.323  11.779  0.0205  0.3266  0.5187
14844TIP3    H165947   4.784   4.342  11.872  0.9948 -0.3021  0.5678
14844TIP3    H265948   4.756   4.408  11.739 -0.8650  0.5269  1.3380
14845TIP3   OH265949   1.997   0.264   4.969 -0.5323  0.7269  0.1789
14845TIP3    H165950   1.989   0.288   5.061  0.4650 -0.7098  0.6689
14845TIP3    H265951   2.058   0.327   4.933  1.1810 -0.2851  1.1782
14846TIP3   OH265952   4.876   2.661  12.032 -0.3448  0.1272  0.2690
14846TIP3    H165953   4.875   2.757  12.032 -0.8632  0.1313  1.3826
14846TIP3    H265954   4.830   2.637  11.951  0.9625  0.8023 -0.7151
14847TIP3   OH265955   4.142   1.682   3.412  0.0173 -0.1622  0.1624
14847TIP3    H165956   4.179   1.716   3.330  1.1256 -0.8523  0.3467
14847TIP3    H265957   4.195   1.722   3.481  0.9274 -1.6806  0.4088
14848TIP3   OH265958   4.339   3.246  13.746  0.6279  0.0216 -0.4417
14848TIP3    H165959   4.294   3.215  13.825  2.1075 -1.2257 -0.0325
14848TIP3    H265960   4.334   3.341  13.750 -0.5559 -0.0625  0.4026
14849TIP3   OH265961   4.505   1.238   7.075  0.1038  0.5046 -0.3288
14849TIP3    H165962   4.600   1.225   7.082 -0.1041 -1.8308 -0.9964
14849TIP3    H265963   4.495   1.332   7.058  2.3227  0.7379 -0.6782
14850TIP3   OH265964   2.539   2.237  12.029  0.0920  0.3543  0.6028
14850TIP3    H165965   2.470   2.171  12.038 -0.7898  1.1619 -0.0880
14850TIP3    H265966   2.550   2.273  12.117 -1.0717  0.9097  0.5330
14851TIP3   OH265967   5.520   4.333  16.965  0.0399  0.1518  0.1086
14851TIP3    H165968   5.565   4.259  17.006  3.0443  1.0190 -1.3320
14851TIP3    H265969   5.561   4.411  17.005 -2.5201  1.1317  1.0495
14852TIP3   OH265970   1.075   3.321   3.111  0.0570 -0.4243  0.5837
14852TIP3    H165971   0.981   3.333   3.118 -0.2228 -2.0593  0.0844
14852TIP3    H265972   1.085   3.240   3.062  1.7101 -1.1026  1.9415
14853TIP3   OH265973   2.873   3.272  15.661 -0.0230  0.1009  0.1750
14853TIP3    H165974   2.930   3.236  15.592 -0.5385 -0.0066 -0.2083
14853TIP3    H265975   2.800   3.209  15.666 -2.5703  2.5131 -2.6527
14854TIP3   OH265976   4.538   1.729  13.124 -0.3826  0.3839  0.3098
14854TIP3    H165977   4.454   1.767  13.149  0.4695  1.8733  1.0494
14854TIP3    H265978   4.603   1.794  13.152  0.9254  0.0182 -1.6414
14855TIP3   OH265979   1.292   1.231   3.386  0.0918 -0.0610 -0.7013
14855TIP3    H165980   1.254   1.274   3.309 -2.0217 -0.8142 -0.1596
14855TIP3    H265981   1.383   1.262   3.389  0.0612  0.4663 -3.1218
14856TIP3   OH265982   6.685   4.190  15.294  0.1183  0.2148 -0.4054
14856TIP3    H165983   6.602   4.180  15.247  0.2015 -0.3295 -0.4491
14856TIP3    H265984   6.664   4.245  15.369  0.1487  1.7526 -1.4835
14857TIP3   OH265985   1.944   5.922  11.391 -0.3463  0.1002  0.0430
14857TIP3    H165986   1.947   6.011  11.424 -0.1093  0.7766 -1.7246
14857TIP3    H265987   1.855   5.892  11.411 -0.1882  0.4244  1.3273
14858TIP3   OH265988   4.266   5.193  11.672 -0.2572  0.3792  0.3308
14858TIP3    H165989   4.274   5.273  11.621  1.1057 -0.1812 -0.3984
14858TIP3    H265990   4.246   5.125  11.607  0.6999 -0.2055  0.6212
14859TIP3   OH265991   6.085   3.131   3.660 -0.1859  0.1021 -0.4289
14859TIP3    H165992   5.995   3.106   3.639 -0.3331 -0.5443  0.8693
14859TIP3    H265993   6.131   3.128   3.575 -1.3328  0.2815 -1.0793
14860TIP3   OH265994   3.719   5.987   2.527  0.0474  0.4861  0.3299
14860TIP3    H165995   3.646   5.977   2.588  0.0039  0.1173  0.2170
14860TIP3    H265996   3.678   5.988   2.441  0.1556  0.4921  0.2788
14861TIP3   OH265997   6.036   2.752   6.352 -0.1759 -0.2613 -0.6244
14861TIP3    H165998   6.076   2.747   6.265 -1.3093 -0.9507 -1.1315
14861TIP3    H265999   5.979   2.675   6.356 -0.3440 -0.0863  0.6268
14862TIP3   OH266000   3.749   0.409   4.616 -0.1389 -0.2529  0.3889
14862TIP3    H166001   3.707   0.421   4.701  1.6747 -0.0658  1.3041
14862TIP3    H266002   3.686   0.443   4.553 -1.2839  0.1351  1.7096
14863TIP3   OH266003   1.349   4.728  15.160  0.0422  0.0157 -0.9802
14863TIP3    H166004   1.383   4.644  15.189 -0.7425  0.3432  1.0656
14863TIP3    H266005   1.324   4.714  15.069  2.2472 -1.2187 -1.4675
14864TIP3   OH266006   1.759   1.533   6.325 -0.2939 -0.5294 -0.2849
14864TIP3    H166007   1.852   1.522   6.343 -0.4640 -2.0637 -0.2322
14864TIP3    H266008   1.753   1.543   6.230 -0.1359 -1.3748 -0.3922
14865TIP3   OH266009   5.294   2.269   1.587 -0.4792  0.3473  0.1607
14865TIP3    H166010   5.313   2.278   1.493  1.3959 -0.6201  0.4082
14865TIP3    H266011   5.201   2.248   1.590 -1.0269  2.1732 -1.3563
14866TIP3   OH266012   5.670   0.961  16.250  0.1540  0.0994 -0.3113
14866TIP3    H166013   5.716   0.901  16.308  0.1121  0.5266  0.1607
14866TIP3    H266014   5.739   1.016  16.212  0.0876  0.4282  0.0379
14867TIP3   OH266015   4.718   1.997   2.419 -0.6615  0.3304 -0.3682
14867TIP3    H166016   4.633   1.960   2.440 -0.9885  1.1213 -0.2723
14867TIP3    H266017   4.727   1.987   2.324 -0.8072  0.1356 -0.3604
14868TIP3   OH266018   5.343   0.918   0.940 -0.2259  0.6631  0.9873
14868TIP3    H166019   5.350   1.006   0.903  2.2070  0.2737  0.3451
14868TIP3    H266020   5.286   0.928   1.016  0.3484  2.8832  1.1783
14869TIP3   OH266021   4.152   2.836   3.635 -0.2610  0.2625  0.6484
14869TIP3    H166022   4.120   2.915   3.590  0.4123  0.4454  0.4914
14869TIP3    H266023   4.100   2.765   3.596  0.3256  0.4130 -0.4468
14870TIP3   OH266024   5.132   1.674  16.377 -0.4954  0.0278  0.4809
14870TIP3    H166025   5.133   1.578  16.378 -0.0776  0.0305  1.5156
14870TIP3    H266026   5.040   1.697  16.392 -0.6666 -0.2042 -0.1800
14871TIP3   OH266027   1.589   2.845  11.863  0.9660 -0.3855 -0.5336
14871TIP3    H166028   1.590   2.920  11.923  1.3766 -0.3367 -0.5972
14871TIP3    H266029   1.647   2.781  11.904 -1.0422 -1.5648  0.6250
14872TIP3   OH266030   0.056   5.335   3.731 -0.3053 -0.3286  0.2114
14872TIP3    H166031   0.149   5.350   3.753 -0.2755  0.0385 -0.1587
14872TIP3    H266032   0.021   5.423   3.717 -0.6590 -0.4844  0.1294
14873TIP3   OH266033   4.053   4.352   5.696  0.5865 -0.4298  0.8047
14873TIP3    H166034   4.134   4.316   5.661  1.3040  1.6364  0.1587
14873TIP3    H266035   4.061   4.344   5.791  0.3721 -2.5467  0.6857
14874TIP3   OH266036   1.219   5.309  11.998 -0.6138 -0.4877 -0.1566
14874TIP3    H166037   1.202   5.403  12.007 -0.3122 -0.3804 -0.6598
14874TIP3    H266038   1.135   5.272  11.973 -0.6646 -0.3085 -0.2557
14875TIP3   OH266039   3.011   6.468  16.815 -0.1830  0.5840  0.2312
14875TIP3    H166040   3.003   6.557  16.780  1.4132  0.6595 -0.0125
14875TIP3    H266041   3.029   6.414  16.738 -1.1070  0.0346  0.3813
14876TIP3   OH266042   1.239   3.692  13.529  0.0255 -0.1685 -0.3485
14876TIP3    H166043   1.321   3.728  13.493 -0.4796  0.7077 -0.6535
14876TIP3    H266044   1.244   3.712  13.622 -0.1461  0.4967 -0.4785
14877TIP3   OH266045   0.001   5.760  12.743 -0.2524  0.1299 -0.2003
14877TIP3    H166046   0.022   5.687  12.685  0.5335 -0.1139  0.3619
14877TIP3    H266047   0.083   5.811  12.747  0.2612 -0.7495  1.9398
14878TIP3   OH266048   4.684   2.796  12.931 -1.1293  0.1446 -0.0318
14878TIP3    H166049   4.627   2.809  13.007 -0.2658  1.4600  0.4245
14878TIP3    H266050   4.705   2.702  12.934 -0.5146  0.2846  1.8185
14879TIP3   OH266051   1.688   1.791   2.589 -0.1934  0.0320 -0.0209
14879TIP3    H166052   1.702   1.822   2.500  1.3258  0.2774  0.2767
14879TIP3    H266053   1.695   1.869   2.644 -0.2337 -0.2484  0.3906
14880TIP3   OH266054   5.741   3.401   3.153  0.2866  0.1066  0.1526
14880TIP3    H166055   5.712   3.373   3.066  1.6782  0.5278 -0.4739
14880TIP3    H266056   5.728   3.496   3.153  1.7710  0.3237 -0.1999
14881TIP3   OH266057   0.798   4.709   0.154  0.4040 -0.0793  0.2410
14881TIP3    H166058   0.840   4.794   0.157  0.7927 -0.3047  1.3534
14881TIP3    H266059   0.857   4.655   0.101 -0.6245  0.7276 -1.8688
14882TIP3   OH266060   1.875   4.997   5.637  0.3867  0.3257 -0.0265
14882TIP3    H166061   1.829   5.051   5.700  1.2125  2.7570 -1.3427
14882TIP3    H266062   1.870   4.908   5.672 -1.2867  1.1859  2.1332
14883TIP3   OH266063   0.909   0.067   2.375 -0.5500  0.2700  0.0467
14883TIP3    H166064   0.817   0.040   2.372 -0.4563 -0.0800  0.2903
14883TIP3    H266065   0.926   0.083   2.468  0.0079 -0.9686  0.1724
14884TIP3   OH266066   3.317   3.082  11.059  0.2058  0.5720 -0.1409
14884TIP3    H166067   3.410   3.077  11.035 -0.2344 -1.1879 -1.6811
14884TIP3    H266068   3.312   3.035  11.143  0.4317 -1.2333 -1.0867
14885TIP3   OH266069   3.319   0.061  11.717  0.7955  0.2871  0.4167
14885TIP3    H166070   3.268   0.070  11.797  0.5929 -1.9031  0.5814
14885TIP3    H266071   3.396   0.117  11.730 -1.0938  3.0955  0.4683
14886TIP3   OH266072   6.032   0.737  16.194  1.2030 -0.3804  0.2020
14886TIP3    H166073   6.007   0.698  16.277  0.1603 -0.3440 -0.0765
14886TIP3    H266074   6.068   0.823  16.218 -1.3153  0.6908  0.5213
14887TIP3   OH266075   1.485   6.394  13.705  0.1850  0.2955 -0.2073
14887TIP3    H166076   1.560   6.351  13.746 -1.2873 -1.3941  0.8284
14887TIP3    H266077   1.516   6.415  13.617  1.6548 -0.9717 -0.0428
14888TIP3   OH266078   3.970   6.623   1.754  0.0507 -0.5262  0.0416
14888TIP3    H166079   3.946   6.557   1.689  0.9249 -1.7595  0.9235
14888TIP3    H266080   3.893   6.629   1.811 -0.6708  0.4681 -0.9839
14889TIP3   OH266081   6.172   4.979   5.381  0.1705  0.6068 -0.4389
14889TIP3    H166082   6.263   4.955   5.401 -0.0084  0.3935  0.1660
14889TIP3    H266083   6.156   5.058   5.432 -0.5473 -0.4018  0.9768
14890TIP3   OH266084   0.529   4.943  10.527 -0.4449  0.1455  0.0988
14890TIP3    H166085   0.434   4.955  10.532 -0.6953 -1.7256  0.2428
14890TIP3    H266086   0.557   4.938  10.618 -0.1695  0.7556  0.0573
14891TIP3   OH266087   6.717   0.907  16.593  0.1768  0.5295 -0.1852
14891TIP3    H166088   6.768   0.949  16.661  0.9131 -0.3897 -0.1440
14891TIP3    H266089   6.730   0.813  16.607  1.0945  0.3252 -2.1238
14892TIP3   OH266090   6.709   0.408   0.920 -0.2182  0.8166  0.3191
14892TIP3    H166091   6.671   0.477   0.864  1.4420  1.1305 -0.4809
14892TIP3    H266092   6.799   0.436   0.934  0.0959 -0.5358  1.1337
14893TIP3   OH266093   3.012   0.182   2.040 -0.1927 -0.0553  0.0641
14893TIP3    H166094   3.073   0.252   2.016  0.1886 -0.8602 -1.4330
14893TIP3    H266095   2.926   0.223   2.033  0.0768  0.5715  0.3246
14894TIP3   OH266096   2.271   2.659   3.180  0.3787  0.1018 -0.1654
14894TIP3    H166097   2.263   2.638   3.087 -2.9231 -0.7663  0.1985
14894TIP3    H266098   2.220   2.740   3.191 -0.6357 -0.6633  1.1071
14895TIP3   OH266099   0.999   5.067  11.814  0.3253 -0.2157 -0.2293
14895TIP3    H166100   0.907   5.052  11.793  0.3482 -0.5445 -0.0854
14895TIP3    H266101   1.047   5.005  11.760  0.4716  0.0203 -0.3763
14896TIP3   OH266102   2.878   4.114  13.163  0.1040 -0.2982 -0.2249
14896TIP3    H166103   2.884   4.209  13.165 -0.9115 -0.2047 -1.1913
14896TIP3    H266104   2.970   4.085  13.161  0.4215  0.6862 -0.9301
14897TIP3   OH266105   3.210   5.125   4.874  0.8710 -0.1280  0.7330
14897TIP3    H166106   3.118   5.098   4.865  1.7268 -2.4937 -3.0920
14897TIP3    H266107   3.232   5.105   4.965 -1.7460 -1.7462  1.1123
14898TIP3   OH266108   2.054   4.512   5.856  0.3862  0.7697 -0.1527
14898TIP3    H166109   1.986   4.534   5.792 -1.2518 -0.5913  1.0264
14898TIP3    H266110   2.106   4.592   5.865  0.3482  1.1754 -2.7388
14899TIP3   OH266111   0.761   4.467   5.148  0.4762  0.2038 -0.0354
14899TIP3    H166112   0.706   4.400   5.109  1.5165  0.4474 -2.0717
14899TIP3    H266113   0.700   4.536   5.174 -0.3581 -0.3738 -0.4134
14900TIP3   OH266114   0.754   1.790   2.286 -0.5617  0.0627 -0.9820
14900TIP3    H166115   0.760   1.703   2.326 -0.3183 -0.0191 -1.1868
14900TIP3    H266116   0.845   1.821   2.282 -0.7568  0.8434  0.1921
14901TIP3   OH266117   3.233   6.656   2.537 -0.0916  0.1438  0.1314
14901TIP3    H166118   3.300   6.709   2.494  0.9521 -1.2847 -0.0607
14901TIP3    H266119   3.158   6.715   2.546  0.9511  1.5704 -0.2634
14902TIP3   OH266120   5.448   0.437  13.805  0.8766  0.9866 -0.2988
14902TIP3    H166121   5.416   0.471  13.721  2.6710  1.9985 -0.6133
14902TIP3    H266122   5.442   0.342  13.796 -1.6125  1.0793 -0.4578
14903TIP3   OH266123   2.416   4.821   2.275  0.0005  0.6117 -0.0661
14903TIP3    H166124   2.488   4.878   2.246 -0.4926  0.9617 -0.6180
14903TIP3    H266125   2.351   4.882   2.310 -0.0748  0.2997  0.3438
14904TIP3   OH266126   5.280   0.994  16.725  0.0341 -0.6119 -0.4592
14904TIP3    H166127   5.259   1.061  16.660  0.5387  0.0247  0.0194
14904TIP3    H266128   5.215   1.007  16.795  2.0503  1.5979  1.1923
14905TIP3   OH266129   4.464   0.374   4.551 -0.7322 -0.4134 -0.3550
14905TIP3    H166130   4.536   0.431   4.579  1.0463 -1.6270 -2.0903
14905TIP3    H266131   4.470   0.298   4.609 -2.4063  0.6136  1.2489
14906TIP3   OH266132   2.261   6.131   6.007 -0.5444 -0.0245 -0.1823
14906TIP3    H166133   2.314   6.190   5.954 -1.5783  1.4716  0.3884
14906TIP3    H266134   2.324   6.072   6.048  0.4724  0.3239 -1.1947
14907TIP3   OH266135   1.570   1.287  11.704 -0.5228  0.0525  0.6220
14907TIP3    H166136   1.657   1.249  11.715 -1.3792 -1.7082  1.6952
14907TIP3    H266137   1.586   1.379  11.687  1.5751 -0.3614  0.0539
14908TIP3   OH266138   5.082   0.036  15.044 -0.3599 -0.3496 -0.2659
14908TIP3    H166139   5.061   0.049  15.137  1.6706 -0.4982  0.2606
14908TIP3    H266140   5.048  -0.051  15.025 -1.7839  0.1188  0.0044
14909TIP3   OH266141   2.838   3.193  12.110  1.1520 -0.1867 -0.1290
14909TIP3    H166142   2.743   3.181  12.111  1.1162  0.0785 -0.2313
14909TIP3    H266143   2.857   3.241  12.191  0.8005  2.6061 -1.5921
14910TIP3   OH266144   2.049   1.542   1.871  0.2564 -0.4927  0.3791
14910TIP3    H166145   2.120   1.530   1.809  0.4632  2.8715 -0.2237
14910TIP3    H266146   1.971   1.550   1.817  0.2453  1.1233  0.5784
14911TIP3   OH266147   6.407   3.037  13.127  0.0073 -0.4556  0.6298
14911TIP3    H166148   6.372   2.963  13.176 -1.5765 -1.5566 -1.9891
14911TIP3    H266149   6.334   3.098  13.118  1.2288  1.4876  2.5901
14912TIP3   OH266150   1.560   1.000   3.626  0.3361  0.5321 -0.2159
14912TIP3    H166151   1.592   0.947   3.553  0.2384  1.1991 -0.7535
14912TIP3    H266152   1.581   0.948   3.704 -1.7101 -1.3290 -0.7993
14913TIP3   OH266153   6.355   1.443   1.921 -0.0954  0.3128  0.7695
14913TIP3    H166154   6.361   1.453   1.826 -0.9907  0.0686  0.6790
14913TIP3    H266155   6.391   1.524   1.956  3.3839 -0.9011  0.3325
14914TIP3   OH266156   1.253   0.954  13.650 -0.3749 -0.0219 -0.1629
14914TIP3    H166157   1.314   0.941  13.722  0.4477  0.0856 -0.8215
14914TIP3    H266158   1.283   1.035  13.608 -1.8519  0.8411  0.3627
14915TIP3   OH266159   5.053   3.091   3.668 -0.2747  0.0198 -0.4032
14915TIP3    H166160   5.020   3.172   3.629 -0.7471 -0.1920 -0.4551
14915TIP3    H266161   5.141   3.082   3.634 -0.2859  0.4160 -0.5451
14916TIP3   OH266162   5.609   2.008  16.891 -0.3892 -0.2643 -0.5357
14916TIP3    H166163   5.600   2.094  16.933  3.8364 -0.6558  1.7645
14916TIP3    H266164   5.633   2.028  16.801 -0.9946  0.9116 -0.4525
14917TIP3   OH266165   4.419   3.458  13.131 -0.1679  0.5075 -0.0755
14917TIP3    H166166   4.361   3.487  13.060 -0.3731 -0.8379 -0.4780
14917TIP3    H266167   4.365   3.464  13.210 -0.5193  0.2833 -0.2951
14918TIP3   OH266168   3.564   5.573  16.905  0.2830  0.0665 -0.4937
14918TIP3    H166169   3.590   5.485  16.880 -1.4988 -0.5174 -0.4666
14918TIP3    H266170   3.471   5.565  16.926  0.0898  1.9527 -0.4660
14919TIP3   OH266171   1.706   5.856   5.694 -0.4257 -0.7104 -0.7948
14919TIP3    H166172   1.696   5.847   5.599 -3.3338  2.1934 -0.9148
14919TIP3    H266173   1.626   5.818   5.731  0.3782 -1.2305  0.4872
14920TIP3   OH266174   0.930   0.440   6.111 -0.1345  0.1771 -0.3303
14920TIP3    H166175   1.014   0.483   6.131 -0.2279 -0.0010  0.4754
14920TIP3    H266176   0.877   0.452   6.190 -0.4502 -0.7181 -0.3872
14921TIP3   OH266177   0.671   6.706   1.526 -0.2366  0.0684 -0.0115
14921TIP3    H166178   0.716   6.622   1.531  0.4644  0.4843  0.7031
14921TIP3    H266179   0.709   6.749   1.449 -1.5249 -0.7825 -1.1816
14922TIP3   OH266180   5.470   4.497   1.772 -0.8887  0.4836 -0.4283
14922TIP3    H166181   5.476   4.583   1.814 -0.5229 -0.0455  0.6362
14922TIP3    H266182   5.379   4.470   1.787 -0.8321  0.4140 -0.2060
14923TIP3   OH266183   4.807   1.984  12.316  0.2996  0.2452  0.3375
14923TIP3    H166184   4.812   1.988  12.412  1.8266  0.6918  0.2604
14923TIP3    H266185   4.714   1.995  12.297 -0.0236  0.2207  1.7650
14924TIP3   OH266186   4.325   3.979   1.226 -0.3805 -0.0122 -0.6919
14924TIP3    H166187   4.409   3.946   1.256 -0.0527 -0.3600 -1.9323
14924TIP3    H266188   4.269   3.977   1.304  0.8765  0.6945  0.2648
14925TIP3   OH266189   6.340   5.942   1.388  0.2782  0.1049 -1.1379
14925TIP3    H166190   6.367   5.993   1.312  0.7682  0.1820 -0.9191
14925TIP3    H266191   6.376   5.990   1.463 -0.7892  0.4098 -0.8065
14926TIP3   OH266192   4.949   5.626   0.876 -0.1258 -0.6559  0.2904
14926TIP3    H166193   4.923   5.661   0.790 -0.9515  1.3296  1.2846
14926TIP3    H266194   4.866   5.601   0.917  0.4254 -4.3895 -0.5028
14927TIP3   OH266195   2.651   1.335  12.827 -0.2405  0.2772 -0.0185
14927TIP3    H166196   2.675   1.269  12.762 -0.0896 -0.2751  0.5863
14927TIP3    H266197   2.622   1.410  12.776 -1.8332 -0.7707 -0.7230
14928TIP3   OH266198   4.479   2.759   0.017  0.0637 -1.4776 -0.0091
14928TIP3    H166199   4.552   2.731  -0.039  1.1202  2.0893 -0.6924
14928TIP3    H266200   4.521   2.796   0.095 -0.9287  0.2316 -0.2168
14929TIP3   OH266201   3.843   0.554   5.412 -0.4579  0.0514  0.3839
14929TIP3    H166202   3.839   0.459   5.419 -2.0351  0.0398 -0.4042
14929TIP3    H266203   3.937   0.573   5.408 -0.1248 -1.5998 -1.0335
14930TIP3   OH266204   2.906   2.316   0.196  0.0306  0.5930 -0.2097
14930TIP3    H166205   2.970   2.369   0.149  0.5217  0.0664 -0.1481
14930TIP3    H266206   2.829   2.315   0.139 -0.4660  2.4491  0.3879
14931TIP3   OH266207   5.521   5.101  15.579 -0.0631 -0.3879 -0.1290
14931TIP3    H166208   5.561   5.176  15.535 -0.5710  0.7556  1.2704
14931TIP3    H266209   5.427   5.120  15.577 -0.1083 -0.3958  1.2410
14932TIP3   OH266210   3.046   0.108  11.604  0.0412  0.1783 -0.3651
14932TIP3    H166211   3.005   0.024  11.584 -0.5091  0.0489  1.1894
14932TIP3    H266212   3.135   0.086  11.631 -0.6351 -0.1508  1.8187
14933TIP3   OH266213   2.549   3.870  11.702 -0.1604  0.1793  0.3360
14933TIP3    H166214   2.520   3.903  11.617  1.5401 -1.6229 -1.0568
14933TIP3    H266215   2.502   3.788  11.714  0.7371 -0.3444  0.3751
14934TIP3   OH266216   1.614   2.603   1.500 -0.0236 -0.4711  0.0305
14934TIP3    H166217   1.633   2.657   1.424  1.0400 -0.5745  0.2099
14934TIP3    H266218   1.686   2.620   1.561 -0.1541 -1.3963  0.4634
14935TIP3   OH266219   0.805   4.650  12.602 -0.4509 -0.2760 -0.8551
14935TIP3    H166220   0.806   4.556  12.583 -1.5109 -0.1483 -1.6097
14935TIP3    H266221   0.846   4.691  12.526 -1.0916 -0.0409 -1.0745
14936TIP3   OH266222   3.533   3.491  12.729 -0.0362 -0.1466  0.4283
14936TIP3    H166223   3.569   3.486  12.818 -1.1305 -2.5553  0.8122
14936TIP3    H266224   3.610   3.502  12.673  0.7603  0.3835  1.5793
14937TIP3   OH266225   2.350   3.746  10.652  0.0027  0.8502  0.1016
14937TIP3    H166226   2.352   3.650  10.655 -1.0003  0.8381  0.9151
14937TIP3    H266227   2.442   3.772  10.663  0.2127 -0.0063  0.5010
14938TIP3   OH266228   5.038   3.480   1.765 -0.2190  0.0065  0.0713
14938TIP3    H166229   5.128   3.490   1.735 -0.3820 -2.5001 -1.5150
14938TIP3    H266230   5.041   3.412   1.832 -0.8939  0.2365  0.3543
14939TIP3   OH266231   2.498   1.970  14.002  0.9729  0.4026  0.2462
14939TIP3    H166232   2.475   2.001  14.090  0.6401  1.6069 -0.2418
14939TIP3    H266233   2.503   1.875  14.011 -0.7920  0.3611  1.1751
14940TIP3   OH266234   5.621   5.452   0.654  0.7974  0.1956  0.3681
14940TIP3    H166235   5.567   5.382   0.691  2.0638  0.5411  3.1061
14940TIP3    H266236   5.710   5.429   0.679  1.6307  1.1804 -1.4717
14941TIP3   OH266237   3.552   3.664   6.303 -0.0880 -0.6877  0.5591
14941TIP3    H166238   3.563   3.759   6.301  0.5485 -0.7663 -0.2961
14941TIP3    H266239   3.606   3.635   6.377  1.3397 -0.5516 -0.3788
14942TIP3   OH266240   1.165   3.313  11.227  0.1853  0.3795 -0.1414
14942TIP3    H166241   1.133   3.327  11.138  1.8527 -0.1933 -0.8760
14942TIP3    H266242   1.246   3.364  11.232  0.2391  0.2145  0.9721
14943TIP3   OH266243   5.794   1.771   0.928 -0.4835  0.0085 -0.3310
14943TIP3    H166244   5.801   1.852   0.979 -2.1540  0.3982 -0.6575
14943TIP3    H266245   5.852   1.784   0.853 -1.5849  1.4281 -0.9913
14944TIP3   OH266246   1.925   3.977  13.100 -0.3442 -0.3674  0.1759
14944TIP3    H166247   1.920   4.072  13.088 -2.0982 -0.3596  0.5926
14944TIP3    H266248   1.864   3.942  13.035  0.2840 -1.2209  0.0285
14945TIP3   OH266249   4.001   0.585  14.128 -0.0632  0.2080  0.0248
14945TIP3    H166250   4.045   0.593  14.044  0.1244  0.0239  0.1034
14945TIP3    H266251   4.072   0.567  14.190 -0.2851 -0.4069  0.1050
14946TIP3   OH266252   6.429   1.276  13.938  0.0266  0.2163  0.3995
14946TIP3    H166253   6.370   1.303  13.868 -1.7074 -0.4683  1.5132
14946TIP3    H266254   6.513   1.264  13.896 -1.1673 -1.1067 -1.7677
14947TIP3   OH266255   2.762   4.236   2.119 -0.3995 -0.1523  0.1143
14947TIP3    H166256   2.796   4.153   2.084 -0.4665 -1.0009  1.9637
14947TIP3    H266257   2.675   4.244   2.080  0.2160 -0.1130 -1.3278
14948TIP3   OH266258   1.720   5.139   2.899 -0.1697 -0.1137  0.2265
14948TIP3    H166259   1.641   5.098   2.865 -1.4030  2.4471 -0.2829
14948TIP3    H266260   1.717   5.124   2.993 -0.4461 -1.3273  0.0315
14949TIP3   OH266261   6.199   6.692  12.661  0.3612  0.1530  0.2504
14949TIP3    H166262   6.191   6.727  12.573  2.2110  0.9581  0.3498
14949TIP3    H266263   6.284   6.724  12.692  1.2127 -2.7076  1.1590
14950TIP3   OH266264   4.454   1.493   3.681 -0.1140  0.4455 -0.1368
14950TIP3    H166265   4.392   1.461   3.746 -0.3606 -0.5141 -0.8143
14950TIP3    H266266   4.482   1.414   3.634  2.2325  0.7402  0.6569
14951TIP3   OH266267   3.900   3.346   3.486  0.6388 -0.0340 -0.1810
14951TIP3    H166268   3.959   3.323   3.558 -0.0363  1.5858  0.9473
14951TIP3    H266269   3.823   3.290   3.500  0.6149  0.0933  0.2281
14952TIP3   OH266270   4.103   6.452  11.042  0.5804  0.5926 -0.9200
14952TIP3    H166271   4.086   6.389  11.113  0.9452  1.7632  0.2576
14952TIP3    H266272   4.197   6.443  11.025  0.4215  0.0461 -1.5343
14953TIP3   OH266273   3.291   1.048   4.407  0.3301 -0.3795 -0.2580
14953TIP3    H166274   3.369   0.993   4.398  1.0832  0.5350  0.6138
14953TIP3    H266275   3.324   1.136   4.419 -0.8759  0.3278 -1.7400
14954TIP3   OH266276   1.898   4.624   3.725  0.3805 -0.6266  0.2618
14954TIP3    H166277   1.872   4.544   3.678  0.8252 -1.5379  1.5073
14954TIP3    H266278   1.973   4.598   3.778 -0.0791  0.3612  1.4512
14955TIP3   OH266279   4.456   6.037  11.091  0.5468  0.1939 -0.4113
14955TIP3    H166280   4.430   6.115  11.042  0.5878 -1.0727 -2.5870
14955TIP3    H266281   4.375   5.987  11.102  0.8210 -0.3630 -0.8254
14956TIP3   OH266282   0.543   6.280   3.910 -0.4575 -0.1723 -0.7265
14956TIP3    H166283   0.635   6.304   3.920 -0.8684  0.7241  1.5162
14956TIP3    H266284   0.500   6.362   3.885 -0.6591 -0.6302 -1.9511
14957TIP3   OH266285   4.810   1.104   0.493  0.1281 -0.0860 -0.4490
14957TIP3    H166286   4.851   1.047   0.558 -1.5361 -0.7251  0.0985
14957TIP3    H266287   4.746   1.155   0.542  0.4439  1.0782 -1.2163
14958TIP3   OH266288   2.545   2.528   2.519 -0.1456 -0.3157 -0.4358
14958TIP3    H166289   2.540   2.491   2.430  1.4229 -1.1016 -0.2439
14958TIP3    H266290   2.492   2.469   2.572  1.4808 -1.7751 -0.3269
14959TIP3   OH266291   0.530   1.104   6.641  0.1690  0.6245  0.6831
14959TIP3    H166292   0.565   1.168   6.703  1.0811  0.4629  0.3676
14959TIP3    H266293   0.454   1.066   6.684 -0.0543  1.5352  1.0979
14960TIP3   OH266294   3.515   2.906   2.864 -0.0574 -0.2156  0.2460
14960TIP3    H166295   3.534   2.837   2.927  1.6822 -0.2610 -0.2825
14960TIP3    H266296   3.581   2.973   2.881 -1.5494  1.2375  0.5699
14961TIP3   OH266297   0.337   3.327   1.577 -0.5155 -0.2208  0.6351
14961TIP3    H166298   0.417   3.380   1.577  0.3197 -1.4518  0.3287
14961TIP3    H266299   0.299   3.341   1.490 -0.4097  0.0185  0.6255
14962TIP3   OH266300   4.947   0.802   3.953  0.1102 -1.0819 -0.8227
14962TIP3    H166301   4.941   0.735   3.885  0.7436 -0.6734 -1.2972
14962TIP3    H266302   5.021   0.774   4.007  0.9019 -0.3652 -1.4979
14963TIP3   OH266303   5.505   3.158   5.004  0.1875  0.3856 -0.3723
14963TIP3    H166304   5.412   3.165   5.027  0.6501  1.0569  1.4492
14963TIP3    H266305   5.506   3.104   4.925 -1.5923 -1.6071  0.8730
14964TIP3   OH266306   3.326   4.944  16.262 -0.0095  0.0473  0.0143
14964TIP3    H166307   3.335   4.982  16.350 -1.4737  1.0907 -0.2446
14964TIP3    H266308   3.381   4.866  16.264 -1.0200 -0.7016  2.2991
14965TIP3   OH266309   5.025   2.472   4.073 -0.4018  0.3644  0.6806
14965TIP3    H166310   5.063   2.388   4.046 -1.4109  0.7891 -2.4577
14965TIP3    H266311   4.992   2.456   4.161 -0.1237 -2.3924  0.3735
14966TIP3   OH266312   1.741   1.831   6.212  0.1720 -0.0860  0.1784
14966TIP3    H166313   1.681   1.838   6.138 -1.7484  1.1412  1.7470
14966TIP3    H266314   1.684   1.831   6.289  2.0761 -1.3939  1.6885
14967TIP3   OH266315   2.009   2.649  11.369 -0.0542  0.0231  0.4210
14967TIP3    H166316   1.979   2.647  11.278 -0.1301 -1.1787  0.4646
14967TIP3    H266317   2.105   2.647  11.363 -0.0496  0.2798  0.3712
14968TIP3   OH266318   6.571   5.949   5.576 -0.1302 -0.3781 -0.4244
14968TIP3    H166319   6.569   5.941   5.672  1.0436  2.8239  0.0092
14968TIP3    H266320   6.660   5.923   5.552 -0.3579 -0.9731 -0.6327
14969TIP3   OH266321   0.019   3.491   2.917  0.3529 -0.4027 -0.2378
14969TIP3    H166322   0.035   3.486   2.823 -0.3557  2.1875 -0.5708
14969TIP3    H266323  -0.076   3.504   2.924  0.1610 -2.1416  0.9603
14970TIP3   OH266324   1.210   4.399  17.078 -0.5651 -0.1077  0.0991
14970TIP3    H166325   1.236   4.338  17.009  1.0515  1.5172 -0.8121
14970TIP3    H266326   1.116   4.412  17.064 -0.8397 -1.9421  0.0044
14971TIP3   OH266327   2.908   4.835  10.860 -0.3978 -0.2688  0.1901
14971TIP3    H166328   2.929   4.754  10.907 -0.5590 -1.8436 -2.3087
14971TIP3    H266329   2.928   4.905  10.923  1.0184 -2.1626  1.9720
14972TIP3   OH266330   2.546   5.515   4.771 -0.7245 -0.1118 -0.1987
14972TIP3    H166331   2.531   5.609   4.780 -2.9585 -0.4522  0.3335
14972TIP3    H266332   2.579   5.504   4.682 -0.3978  1.1777 -0.2507
14973TIP3   OH266333   3.711   5.887   2.853  0.7598 -0.0234  0.1936
14973TIP3    H166334   3.802   5.892   2.880  0.8741 -0.6377 -0.0697
14973TIP3    H266335   3.664   5.944   2.914  1.1694 -0.5265  0.9745
14974TIP3   OH266336   3.735   2.583  13.029  0.3033  0.3477  0.1838
14974TIP3    H166337   3.821   2.624  13.026  0.4746 -0.0517 -0.8388
14974TIP3    H266338   3.675   2.654  13.004  0.3845  0.5114  0.4542
14975TIP3   OH266339   3.401   3.554  11.697  0.0876  0.0022 -0.5368
14975TIP3    H166340   3.433   3.532  11.609 -0.9548  0.0082 -0.9219
14975TIP3    H266341   3.350   3.634  11.685  1.2646  0.9323  0.3462
14976TIP3   OH266342   3.663   1.483  15.221  0.1394  0.8166  0.1191
14976TIP3    H166343   3.582   1.436  15.200  0.4385  0.8465 -1.2011
14976TIP3    H266344   3.713   1.422  15.275 -0.1413  0.2327 -0.2721
14977TIP3   OH266345   2.036   5.768   2.825  0.1119  0.4170 -0.4280
14977TIP3    H166346   2.092   5.728   2.891 -0.7908  0.3524  0.3011
14977TIP3    H266347   2.076   5.742   2.742  2.5705  2.3448  0.0496
14978TIP3   OH266348   6.109   3.286   3.901 -0.2838 -0.3837  0.5709
14978TIP3    H166349   6.163   3.365   3.904  0.5631 -0.9476  2.7511
14978TIP3    H266350   6.126   3.249   3.814 -0.0123  1.3481 -0.1537
14979TIP3   OH266351   0.720   0.165  17.125  0.0868 -0.3204 -0.0641
14979TIP3    H166352   0.667   0.192  17.199  1.4677 -1.1311  1.2778
14979TIP3    H266353   0.735   0.071  17.139  0.8962 -0.3559 -1.0248
14980TIP3   OH266354   4.805   1.370  13.257  0.0095 -0.4615 -0.0181
14980TIP3    H166355   4.734   1.317  13.294 -0.5427  0.3709  0.1384
14980TIP3    H266356   4.791   1.366  13.162 -0.4249 -0.0684  0.0256
14981TIP3   OH266357   0.369   2.106   2.280  0.5210  0.0725 -0.0566
14981TIP3    H166358   0.378   2.170   2.351 -2.0479  1.1387 -0.5457
14981TIP3    H266359   0.458   2.080   2.259  1.4643  1.0400  2.3628
14982TIP3   OH266360   5.882   4.718   4.602  0.2491  0.3537 -0.1883
14982TIP3    H166361   5.911   4.709   4.511  0.4850  1.0138 -0.1850
14982TIP3    H266362   5.959   4.753   4.648  0.4444 -0.8731  0.4661
14983TIP3   OH266363   0.309   2.557   3.469 -0.2419 -0.7161 -0.1028
14983TIP3    H166364   0.219   2.554   3.500  0.0493 -0.5078  0.7603
14983TIP3    H266365   0.321   2.647   3.438 -0.5252 -0.9194 -0.8375
14984TIP3   OH266366   3.125   5.548   5.969 -0.6269  0.2378  0.1374
14984TIP3    H166367   3.094   5.597   6.046  1.8932  1.0429  0.7250
14984TIP3    H266368   3.207   5.507   5.997 -0.4605 -0.7956 -1.6665
14985TIP3   OH266369   1.737   0.369   2.884 -0.7011  0.1314  0.3293
14985TIP3    H166370   1.759   0.281   2.855 -1.8603 -0.3536  0.8252
14985TIP3    H266371   1.795   0.385   2.959  0.7576  0.5214 -0.8499
14986TIP3   OH266372   1.138   2.897  13.041  0.0750  0.0947  0.4290
14986TIP3    H166373   1.164   2.805  13.044  0.4942  0.1702 -0.4272
14986TIP3    H266374   1.221   2.945  13.043  0.2746  0.3048 -3.7725
14987TIP3   OH266375   0.561   4.727  12.065 -0.2403 -0.0687  0.0614
14987TIP3    H166376   0.498   4.702  12.132  0.9500  1.4072  1.8230
14987TIP3    H266377   0.531   4.812  12.033  0.2237  0.1241  0.1183
14988TIP3   OH266378   5.207   2.194  12.461 -0.1027 -0.1724 -0.0359
14988TIP3    H166379   5.208   2.159  12.372 -0.1792  1.2030 -0.5918
14988TIP3    H266380   5.151   2.134  12.510 -0.2473 -0.8103 -0.9643
14989TIP3   OH266381   6.541   1.956   1.486 -0.1593  0.3788 -0.4450
14989TIP3    H166382   6.589   2.039   1.485 -0.6631  0.6651 -0.7863
14989TIP3    H266383   6.532   1.932   1.394  0.0273 -0.0860 -0.3459
14990TIP3   OH266384   6.601   3.757  15.307 -0.4379  0.3028 -0.3256
14990TIP3    H166385   6.506   3.755  15.298 -0.5346  1.9495 -0.1036
14990TIP3    H266386   6.618   3.834  15.362  1.1301  1.7590 -2.6290
14991TIP3   OH266387   5.090   0.667  16.883  0.3325  0.0197 -0.3591
14991TIP3    H166388   5.106   0.580  16.921 -0.2089  0.1583  0.2199
14991TIP3    H266389   5.114   0.658  16.791  0.6108 -0.6494 -0.2285
14992TIP3   OH266390   6.714   1.180   2.523 -1.0112 -0.3114  0.1105
14992TIP3    H166391   6.660   1.161   2.447 -1.3835 -2.5579  0.8450
14992TIP3    H266392   6.736   1.094   2.559  0.2325  0.6343  1.7971
14993TIP3   OH266393   1.512   5.356   4.603 -0.0051 -0.0551  0.1829
14993TIP3    H166394   1.498   5.263   4.618 -2.4459  0.3805  1.1431
14993TIP3    H266395   1.600   5.373   4.634 -0.3569 -1.6380  2.2122
14994TIP3   OH266396   3.151   4.067   5.054 -0.3688  0.4322  0.0415
14994TIP3    H166397   3.075   4.088   5.001 -0.2566  0.7744  0.0147
14994TIP3    H266398   3.197   4.151   5.065  0.9152 -0.0472 -1.3496
14995TIP3   OH266399   6.447   1.436  12.955  0.3597 -0.0257  0.0097
14995TIP3    H166400   6.526   1.415  12.906 -0.2934 -3.4116  0.2167
14995TIP3    H266401   6.376   1.398  12.904 -1.2698  3.0382 -0.2429
14996TIP3   OH266402   4.758   0.184  15.535  0.1948  0.3393  0.1110
14996TIP3    H166403   4.778   0.104  15.584  2.9495  2.5237  2.9138
14996TIP3    H266404   4.795   0.168  15.448  1.2119 -1.2567  0.7865
14997TIP3   OH266405   0.059   0.200   4.118 -0.4878 -0.5397 -0.8110
14997TIP3    H166406   0.112   0.276   4.096 -1.3938  0.1868 -0.5537
14997TIP3    H266407  -0.012   0.200   4.053 -1.5067 -0.1042  0.2758
14998TIP3   OH266408   0.148   1.305   3.160  0.4764 -0.6346  0.2290
14998TIP3    H166409   0.220   1.245   3.137  2.3128  1.6378 -0.3474
14998TIP3    H266410   0.074   1.274   3.108  2.0593 -0.9984 -1.9781
14999TIP3   OH266411   5.383   3.135  15.238 -0.0677 -0.3717  0.3026
14999TIP3    H166412   5.377   3.124  15.143  1.4910 -0.2585  0.1687
14999TIP3    H266413   5.314   3.079  15.272 -0.1369 -1.0437 -0.8732
15000TIP3   OH266414   5.987   6.190   0.365 -0.9239  0.3764  0.1575
15000TIP3    H166415   6.003   6.222   0.454  0.1114  0.2739  0.0132
15000TIP3    H266416   5.969   6.096   0.377  2.5097 -0.4282  0.0073
15001TIP3   OH266417   5.547   5.378   0.371 -0.2307 -0.0047 -0.3194
15001TIP3    H166418   5.568   5.440   0.441  0.5087 -0.8368  0.2160
15001TIP3    H266419   5.466   5.412   0.333  1.4323  2.7409 -1.7467
15002TIP3   OH266420   1.571   0.330   4.483  0.3768  0.0314 -0.0025
15002TIP3    H166421   1.644   0.312   4.541  0.1177 -0.1492  0.2717
15002TIP3    H266422   1.521   0.399   4.527  0.0944 -0.2156  0.0646
15003TIP3   OH266423   6.318   2.644  14.428 -0.2465 -0.8147  0.1851
15003TIP3    H166424   6.242   2.587  14.416 -0.7913  0.1540 -1.2022
15003TIP3    H266425   6.374   2.625  14.353  0.5005 -0.9132  0.7567
15004TIP3   OH266426   4.377   1.683   1.193 -1.2320 -0.3345 -0.1704
15004TIP3    H166427   4.433   1.609   1.218 -0.1914  0.7437  0.8013
15004TIP3    H266428   4.419   1.720   1.116  0.9583  1.9873  1.9523
15005TIP3   OH266429   4.161   0.993   1.551 -0.1927  0.4343 -0.5850
15005TIP3    H166430   4.133   1.063   1.610  1.1045  0.8471 -0.4250
15005TIP3    H266431   4.127   0.913   1.592  0.1055  0.7766  0.3674
15006TIP3   OH266432   3.650   4.510   0.837  0.4121 -0.2625  0.0979
15006TIP3    H166433   3.715   4.452   0.878 -1.1465 -1.4885  0.9261
15006TIP3    H266434   3.628   4.573   0.905  1.3205  0.6792 -0.4581
15007TIP3   OH266435   2.880   1.588   0.004 -0.3694 -0.6126  0.1285
15007TIP3    H166436   2.905   1.497  -0.014  1.4665 -0.1105 -0.0972
15007TIP3    H266437   2.862   1.590   0.098  0.4857 -1.0477  0.3196
15008TIP3   OH266438   3.487   2.188  11.752  0.7444  0.1837  0.3475
15008TIP3    H166439   3.400   2.153  11.769 -0.1293  1.1530 -1.8078
15008TIP3    H266440   3.526   2.126  11.691  1.0742  0.4321  0.3027
15009TIP3   OH266441   5.324   2.384   4.367 -0.7203 -0.3492  0.3160
15009TIP3    H166442   5.237   2.366   4.331  0.3063 -2.8149 -1.1243
15009TIP3    H266443   5.340   2.313   4.429  0.7856 -0.6793 -0.4203
15010TIP3   OH266444   0.339   5.761  12.211 -0.3675  0.1318  0.3685
15010TIP3    H166445   0.394   5.748  12.134  1.2001  0.2500  1.4131
15010TIP3    H266446   0.268   5.697  12.201 -1.1687  1.3111 -1.9743
15011TIP3   OH266447   1.225   5.213   2.730 -0.1736 -0.4102 -0.7681
15011TIP3    H166448   1.310   5.257   2.735  0.7465 -2.0760 -1.1618
15011TIP3    H266449   1.184   5.232   2.815 -0.1504  1.7879 -1.2014
15012TIP3   OH266450   3.485   6.639   2.268  0.9797 -0.1888 -0.4902
15012TIP3    H166451   3.410   6.691   2.296  2.2435  1.2746  0.4185
15012TIP3    H266452   3.457   6.596   2.188 -0.6616  0.6768 -0.4227
15013TIP3   OH266453   2.757   4.631   0.067  0.4102 -0.6543 -0.3490
15013TIP3    H166454   2.737   4.594   0.153 -0.3535  2.2638  0.8554
15013TIP3    H266455   2.847   4.603   0.049  0.7916 -0.8671  1.6687
15014TIP3   OH266456   3.463   1.767  16.749 -0.3189 -0.2934  0.3404
15014TIP3    H166457   3.503   1.836  16.695  0.1921  0.2696  1.4103
15014TIP3    H266458   3.452   1.694  16.688  0.5090  0.2197 -0.4683
15015TIP3   OH266459   4.528   0.081  16.589 -0.3471 -0.0538 -0.2915
15015TIP3    H166460   4.588   0.156  16.586 -0.4653  0.0060 -2.6996
15015TIP3    H266461   4.581   0.009  16.623  0.1341  0.7897  0.7873
15016TIP3   OH266462   2.957   0.259  14.707 -0.2304 -0.1310 -0.7678
15016TIP3    H166463   2.981   0.173  14.672 -0.0604 -0.0998 -0.7303
15016TIP3    H266464   2.946   0.314  14.630 -0.7551 -0.2903 -0.8105
15017TIP3   OH266465   1.950   1.657  12.751  0.1060  0.0622 -0.4544
15017TIP3    H166466   1.859   1.687  12.753  0.2403  0.5873 -1.6986
15017TIP3    H266467   1.999   1.728  12.710  1.1063 -0.1805  0.2685
15018TIP3   OH266468   5.029   3.609  10.969 -0.0067 -0.0704 -0.4577
15018TIP3    H166469   5.092   3.680  10.982  0.5522 -0.8560  1.4476
15018TIP3    H266470   5.041   3.582  10.878  0.9588  1.1354 -0.7098
15019TIP3   OH266471   0.412   1.001   5.277  0.4315  0.5597 -0.0672
15019TIP3    H166472   0.358   1.067   5.234  0.3572  0.7432  0.2996
15019TIP3    H266473   0.442   1.043   5.358  1.2434  0.5059 -0.3331
15020TIP3   OH266474   5.827   2.965   4.226 -0.2236 -1.0842  0.4420
15020TIP3    H166475   5.787   2.972   4.139  1.4642  0.0904 -0.2976
15020TIP3    H266476   5.872   3.049   4.238  2.6237 -2.5571  0.8589
15021TIP3   OH266477   4.608   1.783   5.438 -0.7663 -0.4124  0.0867
15021TIP3    H166478   4.690   1.789   5.389 -0.2712 -0.2509  0.9044
15021TIP3    H266479   4.617   1.703   5.490 -1.0938 -0.3559  0.2325
15022TIP3   OH266480   5.262   4.155  15.072 -0.1268 -0.1413  0.1968
15022TIP3    H166481   5.355   4.178  15.064 -0.2161  0.2833  0.3434
15022TIP3    H266482   5.247   4.152  15.167 -0.0893 -0.9417  0.1854
15023TIP3   OH266483   2.577   6.689  14.162  0.1463  0.0390 -0.4881
15023TIP3    H166484   2.553   6.611  14.213  0.9855  0.7054  0.9725
15023TIP3    H266485   2.527   6.760  14.201  2.3245  0.9447  0.8405
15024TIP3   OH266486   3.822   2.764  10.799 -0.2447 -0.4380 -0.4128
15024TIP3    H166487   3.903   2.813  10.812 -1.0609  0.8573  0.0105
15024TIP3    H266488   3.832   2.686  10.852  0.5359 -0.0538  0.0172
15025TIP3   OH266489   6.025   4.619  12.054  0.2897 -0.0552  0.1556
15025TIP3    H166490   6.100   4.577  12.097  1.1466 -0.3998 -1.5687
15025TIP3    H266491   6.044   4.610  11.960 -1.6249  0.4039 -0.3122
15026TIP3   OH266492   2.516   0.929  14.002 -0.4561  0.1292 -0.8135
15026TIP3    H166493   2.590   0.942  14.062 -1.0962  1.9331 -0.3383
15026TIP3    H266494   2.449   0.886  14.055 -0.0994 -0.6747 -0.9948
15027TIP3   OH266495   5.436   0.816   5.063  0.0576  0.0299 -0.0930
15027TIP3    H166496   5.481   0.822   4.979 -0.6431 -0.4741 -0.5126
15027TIP3    H266497   5.479   0.881   5.118 -1.6821  2.8819 -1.8581
15028TIP3   OH266498   0.372   6.571  15.503  0.3846  0.1615 -0.1253
15028TIP3    H166499   0.413   6.541  15.422 -1.3596  1.5515 -1.6069
15028TIP3    H266500   0.307   6.636  15.475 -0.5449  0.4260  2.3619
15029TIP3   OH266501   2.096   4.404   3.938 -0.0759 -0.2138 -0.2252
15029TIP3    H166502   2.111   4.495   3.964  0.7569 -0.5349  0.4907
15029TIP3    H266503   2.131   4.398   3.850 -0.2073  0.1790 -0.3057
15030TIP3   OH266504   2.784   4.373  13.126 -0.0468 -0.2209 -0.4115
15030TIP3    H166505   2.698   4.357  13.166 -0.1734 -1.1841 -1.0316
15030TIP3    H266506   2.768   4.445  13.064  0.2872  1.7190  1.6333
15031TIP3   OH266507   3.724   3.060   0.281  0.0066  0.4677  0.0748
15031TIP3    H166508   3.701   3.142   0.325 -0.1798  0.8688 -0.7574
15031TIP3    H266509   3.781   3.087   0.209 -0.8510 -0.0242 -0.8093
15032TIP3   OH266510   2.477   4.703   4.528  0.0520  0.0901 -0.3085
15032TIP3    H166511   2.568   4.708   4.500  0.6348 -0.8773  1.2746
15032TIP3    H266512   2.430   4.669   4.451  1.2174 -0.4967 -0.7814
15033TIP3   OH266513   3.811   4.859  16.149  0.0198 -0.1143 -0.4176
15033TIP3    H166514   3.853   4.823  16.071  0.5562 -1.8962  0.6503
15033TIP3    H266515   3.836   4.951  16.149  0.9049 -0.3313 -1.7654
15034TIP3   OH266516   3.365   5.710  11.211  0.6146 -0.6413  0.1890
15034TIP3    H166517   3.419   5.675  11.282  0.4492 -3.0257 -0.7513
15034TIP3    H266518   3.302   5.640  11.193 -0.4496  0.6110 -1.1492
15035TIP3   OH266519   5.030   0.559   1.304 -0.5013 -0.2718  0.1022
15035TIP3    H166520   5.068   0.639   1.339 -1.1181 -0.6775  1.8332
15035TIP3    H266521   4.935   0.571   1.312 -0.6009 -1.2897  0.7708
15036TIP3   OH266522   2.307   3.366  15.296 -0.3509 -0.4722 -0.2942
15036TIP3    H166523   2.280   3.359  15.387  1.9180 -1.6885  0.3568
15036TIP3    H266524   2.236   3.414  15.254 -0.9715  1.1317  2.3274
15037TIP3   OH266525   5.855   5.923   2.296  0.5265  0.4021  0.8728
15037TIP3    H166526   5.869   5.990   2.229  0.3137 -0.6860 -0.2980
15037TIP3    H266527   5.764   5.896   2.283  1.0476 -1.1606  0.3112
15038TIP3   OH266528   0.638   2.716  12.302 -0.0337 -0.4496 -0.7236
15038TIP3    H166529   0.653   2.637  12.353  0.1430  0.2434  0.3092
15038TIP3    H266530   0.592   2.685  12.223 -0.1907 -1.5382 -0.2166
15039TIP3   OH266531   0.394   2.001  12.964  0.1834  0.5575 -0.0686
15039TIP3    H166532   0.312   2.038  12.997 -0.5953 -1.8447  0.9058
15039TIP3    H266533   0.370   1.914  12.930  1.8654  0.8993 -2.4275
15040TIP3   OH266534   2.619   5.722  12.016  0.1818  0.2941 -0.5992
15040TIP3    H166535   2.575   5.672  11.947 -0.9172 -0.2388  0.4615
15040TIP3    H266536   2.682   5.661  12.054  0.3303  0.3889 -0.6900
15041TIP3   OH266537   2.193   4.248   6.019  0.2148 -0.2331  0.2717
15041TIP3    H166538   2.222   4.202   6.098  1.4683  0.8965  0.5235
15041TIP3    H266539   2.275   4.277   5.977 -0.4804  1.3934 -0.0640
15042TIP3   OH266540   6.001   0.093   2.306 -0.2749  0.2487  0.1840
15042TIP3    H166541   5.972   0.034   2.375 -1.4323 -0.8007 -1.1338
15042TIP3    H266542   5.927   0.097   2.245 -0.1732  2.9730  0.1286
15043TIP3   OH266543   2.534   4.076   1.752 -0.7899 -0.2605  0.0944
15043TIP3    H166544   2.521   4.021   1.829 -0.9667  0.1676  0.3669
15043TIP3    H266545   2.489   4.028   1.681 -0.1997 -0.9002  0.1451
15044TIP3   OH266546   5.921   2.691  16.256  0.5831 -0.4383 -0.2855
15044TIP3    H166547   5.970   2.669  16.177  0.7829 -2.3076  0.3141
15044TIP3    H266548   5.977   2.754  16.302  1.7576 -1.4033 -0.3401
15045TIP3   OH266549   6.586   4.139  11.287 -0.1867  0.1975  0.1743
15045TIP3    H166550   6.589   4.163  11.380 -1.9083 -0.4291  0.4452
15045TIP3    H266551   6.647   4.067  11.278 -2.0906 -1.7049  1.5322
15046TIP3   OH266552   1.866   5.189   4.632  0.0020  0.2748  0.0237
15046TIP3    H166553   1.848   5.193   4.726  0.0787 -1.3102  0.1186
15046TIP3    H266554   1.959   5.166   4.626 -0.3932 -1.2910 -0.4111
15047TIP3   OH266555   2.112   1.118  10.956 -0.1371  0.0002 -0.3787
15047TIP3    H166556   2.194   1.070  10.969  0.6903  1.2431 -0.8151
15047TIP3    H266557   2.061   1.063  10.897 -0.7992 -2.0968  1.9565
15048TIP3   OH266558   3.256   0.414  10.799 -0.4824  0.0641  0.4099
15048TIP3    H166559   3.222   0.411  10.710 -2.9435 -0.1337  1.2507
15048TIP3    H266560   3.219   0.495  10.836  2.0694  1.1619  0.7163
15049TIP3   OH266561   4.491   0.094  15.703  0.2812  0.3605  0.0255
15049TIP3    H166562   4.574   0.047  15.700 -0.2273 -0.5073 -0.8899
15049TIP3    H266563   4.442   0.062  15.627 -1.1666  0.3335  0.9343
15050TIP3   OH266564   5.988   0.708  13.402 -0.5120 -0.3071  0.0291
15050TIP3    H166565   5.901   0.694  13.365 -0.5465 -0.2870  0.1031
15050TIP3    H266566   5.994   0.802  13.414 -0.1592 -0.2166 -0.7651
15051TIP3   OH266567   4.457   5.673   1.197 -0.1230 -0.2866  0.3871
15051TIP3    H166568   4.364   5.685   1.217 -0.3577 -1.6843  0.2819
15051TIP3    H266569   4.479   5.589   1.238  0.7846 -0.5392 -0.5762
15052TIP3   OH266570   6.005   0.475   2.472  0.1188  0.1752 -0.5027
15052TIP3    H166571   5.940   0.467   2.403 -1.6378  2.0570  0.7980
15052TIP3    H266572   5.977   0.412   2.538 -0.7629  1.3304  0.2744
15053TIP3   OH266573   5.340   5.250  13.151  0.0408  0.2283  0.5696
15053TIP3    H166574   5.380   5.320  13.202 -0.2830  1.1962 -0.4481
15053TIP3    H266575   5.303   5.294  13.074 -2.0912 -0.7506  0.9498
15054TIP3   OH266576   2.762   4.440   0.327 -0.0915  0.2069 -0.3343
15054TIP3    H166577   2.824   4.506   0.358  0.6270 -0.6321  0.0524
15054TIP3    H266578   2.683   4.456   0.378 -0.1745  1.2158 -0.7503
15055TIP3   OH266579   3.482   4.046   3.659  0.1162  0.1479 -0.1911
15055TIP3    H166580   3.456   4.039   3.751  0.0437  0.5167 -0.1815
15055TIP3    H266581   3.487   3.955   3.628  0.7469 -0.0023  0.3403
15056TIP3   OH266582   5.637   6.415   6.899 -0.0653  0.4380  0.0843
15056TIP3    H166583   5.625   6.337   6.954  0.6355 -0.1696 -0.6068
15056TIP3    H266584   5.671   6.381   6.816  0.5571  1.5094 -0.1185
15057TIP3   OH266585   1.945   0.385  10.574 -0.6596 -0.0747 -0.4540
15057TIP3    H166586   1.915   0.443  10.643 -0.5212 -0.9029  0.3122
15057TIP3    H266587   2.039   0.400  10.569 -0.2416 -1.7723  1.2590
15058TIP3   OH266588   2.754   4.580  12.951 -0.0677 -0.1602 -0.0343
15058TIP3    H166589   2.676   4.635  12.957 -0.7055 -0.9917 -0.4733
15058TIP3    H266590   2.819   4.625  13.006 -0.9993  0.2894  0.7424
15059TIP3   OH266591   4.979   3.310  11.431 -0.2777 -0.0014 -0.0311
15059TIP3    H166592   4.994   3.279  11.341 -0.3282  0.4730 -0.2043
15059TIP3    H266593   4.976   3.405  11.423  0.0734  0.0587  0.5313
15060TIP3   OH266594   1.479   4.769  11.260  0.6585 -0.0159 -0.9630
15060TIP3    H166595   1.505   4.830  11.190  0.1898  1.0350 -0.2500
15060TIP3    H266596   1.539   4.695  11.251 -0.2276 -0.5369 -3.2971
15061TIP3   OH266597   2.750   0.515   5.978  0.0788  0.0389  0.5859
15061TIP3    H166598   2.798   0.568   6.042 -3.4528  0.1749  3.4976
15061TIP3    H266599   2.758   0.426   6.011  0.8861 -0.3855 -0.7125
15062TIP3   OH266600   5.775   1.518   1.786 -0.3176 -0.6201 -0.0265
15062TIP3    H166601   5.748   1.590   1.728  0.0586 -1.1858 -0.9249
15062TIP3    H266602   5.707   1.452   1.776  0.0817 -0.9896 -0.3300
15063TIP3   OH266603   3.857   2.815   4.635 -0.1865 -0.4878 -0.2690
15063TIP3    H166604   3.763   2.802   4.627 -0.1038 -2.3809  1.1559
15063TIP3    H266605   3.885   2.751   4.700  2.3426 -1.1424 -1.8512
15064TIP3   OH266606   5.430   1.410  15.620 -0.2555 -0.7932 -0.1714
15064TIP3    H166607   5.361   1.471  15.647 -2.3427 -2.2479 -1.9362
15064TIP3    H266608   5.470   1.452  15.544 -0.2667 -0.6563 -0.1022
15065TIP3   OH266609   4.845   6.111   2.275 -0.2824  0.1464  0.4901
15065TIP3    H166610   4.906   6.084   2.343 -0.0294  1.0012  0.6177
15065TIP3    H266611   4.834   6.034   2.220  1.4132  0.1582  0.0834
15066TIP3   OH266612   1.114   1.837  17.139 -0.4849  0.2179 -0.4205
15066TIP3    H166613   1.048   1.815  17.073  0.3696 -0.9226 -0.9323
15066TIP3    H266614   1.184   1.881  17.090 -0.2109  0.1007 -0.1366
15067TIP3   OH266615   0.419   6.366  16.520  0.0723  0.1646  0.0732
15067TIP3    H166616   0.482   6.438  16.527  0.7425 -0.2032 -1.7695
15067TIP3    H266617   0.350   6.399  16.462 -1.5238  0.5728  2.0833
15068TIP3   OH266618   1.130   0.576  12.169  0.3181  0.8365  0.1889
15068TIP3    H166619   1.083   0.601  12.249  0.2818 -0.5681  0.6193
15068TIP3    H266620   1.221   0.564  12.197  0.0010 -1.3871  0.4375
15069TIP3   OH266621   0.850   2.470   1.821  0.2420  0.4928 -0.3065
15069TIP3    H166622   0.878   2.496   1.908 -0.9821  2.0631 -0.3326
15069TIP3    H266623   0.757   2.447   1.832 -0.9920  4.1179 -1.7044
15070TIP3   OH266624   0.604   3.251   3.461  0.4766  0.2555 -0.1754
15070TIP3    H166625   0.658   3.286   3.532 -0.9871 -2.6934  2.6453
15070TIP3    H266626   0.639   3.164   3.444  0.6768  0.7829 -3.1163
15071TIP3   OH266627   3.439   6.052  14.115 -0.5588  0.1558 -0.2631
15071TIP3    H166628   3.502   6.092  14.175 -0.5326  0.5036 -0.5222
15071TIP3    H266629   3.438   6.109  14.039 -1.1018  0.0933 -0.3084
15072TIP3   OH266630   0.544   0.742   4.417  0.5209  0.0111 -0.3821
15072TIP3    H166631   0.537   0.670   4.479 -1.2182  0.0809 -0.4613
15072TIP3    H266632   0.534   0.700   4.331 -2.1429  0.4804 -0.3663
15073TIP3   OH266633   0.957   2.032   3.891  0.2713 -0.1746 -0.5808
15073TIP3    H166634   0.864   2.011   3.898  0.6658 -2.6532 -1.6539
15073TIP3    H266635   0.997   1.952   3.856  2.7018  1.0717 -0.8695
15074TIP3   OH266636   4.650   0.926  12.997 -0.0878  0.3348  0.2605
15074TIP3    H166637   4.613   0.932  13.085 -1.7791  0.1524 -0.3980
15074TIP3    H266638   4.697   0.842  12.997  1.1138  0.9639  1.3768
15075TIP3   OH266639   0.103   1.740   2.937 -0.2625 -0.2695 -0.3653
15075TIP3    H166640   0.023   1.755   2.989  1.3604  2.7346  1.5578
15075TIP3    H266641   0.161   1.694   2.997  0.0077 -1.0714 -1.2298
15076TIP3   OH266642   1.006   2.405   5.689 -0.3696 -0.3644  0.3988
15076TIP3    H166643   0.980   2.313   5.682 -0.5588 -0.3745  1.1126
15076TIP3    H266644   1.087   2.403   5.739  1.6927 -0.4186 -2.7133
15077TIP3   OH266645   2.152   0.665  11.269 -0.2578  0.1349  0.5633
15077TIP3    H166646   2.148   0.600  11.199 -1.9993  0.8933 -0.0832
15077TIP3    H266647   2.232   0.643  11.317  0.9854 -0.4243 -1.6192
15078TIP3   OH266648   3.646   0.110  14.212  0.1101  0.1763  0.4651
15078TIP3    H166649   3.639   0.204  14.228 -0.3812  0.3151 -0.5493
15078TIP3    H266650   3.725   0.100  14.159  0.2348 -0.0097  0.6793
15079TIP3   OH266651   0.678   1.966   4.010  0.6658  0.3575  0.0329
15079TIP3    H166652   0.725   1.997   4.087 -0.0348 -0.9794  1.0393
15079TIP3    H266653   0.607   1.913   4.045  0.2708 -0.2107 -1.5381
15080TIP3   OH266654   4.702   5.143   0.075  0.4901  0.1598  0.3429
15080TIP3    H166655   4.627   5.108   0.026 -0.6734  2.0388  0.6756
15080TIP3    H266656   4.761   5.177   0.008 -1.3216  3.1690  0.1001
15081TIP3   OH266657   6.622   3.259   4.771  0.3297  0.6441 -0.0959
15081TIP3    H166658   6.556   3.191   4.754  0.8255  0.6835 -2.4885
15081TIP3    H266659   6.587   3.308   4.846 -1.4723 -0.4245 -0.1741
15082TIP3   OH266660   6.660   6.317   4.258 -0.6441 -0.4374 -0.2196
15082TIP3    H166661   6.620   6.364   4.330  3.1997  1.4054  1.0037
15082TIP3    H266662   6.708   6.245   4.300  1.2150  0.3438 -0.8758
15083TIP3   OH266663   6.491   5.353   2.493 -0.3806 -0.6470 -0.2907
15083TIP3    H166664   6.462   5.262   2.489 -1.7978 -0.4653  2.7400
15083TIP3    H266665   6.434   5.393   2.558  2.9672  1.2661  1.7514
15084TIP3   OH266666   4.771   5.431   4.278  0.2884  0.1121 -0.6384
15084TIP3    H166667   4.706   5.413   4.210  0.9759 -1.5681 -0.9103
15084TIP3    H266668   4.823   5.503   4.242  1.2012 -1.3227 -2.3657
15085TIP3   OH266669   2.904   4.636   2.247  0.5615  0.2882 -0.4064
15085TIP3    H166670   2.918   4.598   2.160 -2.0928  0.0780 -0.8198
15085TIP3    H266671   2.817   4.605   2.273 -0.0607  2.8834  0.9442
15086TIP3   OH266672   5.451   2.507  17.202  0.0422 -0.4110  0.0756
15086TIP3    H166673   5.447   2.487  17.108  0.9709  0.3761 -0.1463
15086TIP3    H266674   5.544   2.509  17.223 -0.1644 -1.9828  1.3564
15087TIP3   OH266675   1.065   2.143  12.622  0.0065  0.4503 -0.0625
15087TIP3    H166676   1.147   2.151  12.670 -1.7831  0.4052  3.3269
15087TIP3    H266677   1.012   2.217  12.653 -1.5315 -0.0088 -1.4829
15088TIP3   OH266678   4.133   4.810   5.959 -0.1007 -0.0913 -0.0340
15088TIP3    H166679   4.071   4.882   5.949  0.9007  1.0758  1.6111
15088TIP3    H266680   4.219   4.851   5.951  0.5203 -1.6323 -2.0506
15089TIP3   OH266681   1.311   1.047   4.588  0.2364 -0.2891 -0.4004
15089TIP3    H166682   1.222   1.079   4.573 -0.2744 -1.1052  0.7632
15089TIP3    H266683   1.355   1.059   4.504 -0.6497  1.1114 -0.6988
15090TIP3   OH266684   3.454   3.319  12.413  0.0868 -0.1707  0.7732
15090TIP3    H166685   3.478   3.232  12.381 -0.7429 -0.7909  1.7903
15090TIP3    H266686   3.387   3.350  12.352  0.8467  0.0578  0.0273
15091TIP3   OH266687   1.547   2.344   5.149 -0.6090 -0.3089 -0.0033
15091TIP3    H166688   1.575   2.352   5.057 -0.9475 -0.9934 -0.1695
15091TIP3    H266689   1.572   2.254   5.174  0.7312  0.2997  1.0027
15092TIP3   OH266690   2.558   2.133   0.925  0.5335  0.0188  0.1588
15092TIP3    H166691   2.541   2.076   0.851 -0.4824  1.0781 -0.4591
15092TIP3    H266692   2.593   2.075   0.993  1.0185 -1.0463 -0.9682
15093TIP3   OH266693   0.121   4.615  12.011  0.1607 -0.1245 -0.2445
15093TIP3    H166694   0.193   4.553  12.017  0.9764  0.7675 -0.6814
15093TIP3    H266695   0.162   4.698  11.988 -0.7307  0.9262  1.6681
15094TIP3   OH266696   4.854   4.036   1.857 -0.6982  0.2471 -0.2866
15094TIP3    H166697   4.806   3.955   1.877 -0.3987 -0.2579 -1.4928
15094TIP3    H266698   4.940   4.005   1.829  0.4410  1.1395  1.9904
15095TIP3   OH266699   2.500   5.527  10.357 -0.2790  0.5634 -0.2113
15095TIP3    H166700   2.452   5.463  10.304 -0.1493  0.5748 -0.3425
15095TIP3    H266701   2.433   5.589  10.386 -0.8065 -0.8184  1.7221
15096TIP3   OH266702   6.051   4.500   5.694  0.3253  0.3376 -0.0164
15096TIP3    H166703   6.119   4.565   5.677  1.2125  0.2046  2.5490
15096TIP3    H266704   6.034   4.507   5.788 -3.3228  0.4130 -0.5405
15097TIP3   OH266705   4.360   0.705  16.790 -0.2166 -0.9343 -0.5719
15097TIP3    H166706   4.266   0.711  16.807  0.2243 -0.6045  2.4491
15097TIP3    H266707   4.399   0.694  16.877  2.5347 -1.3274 -1.7470
15098TIP3   OH266708   3.563   0.981   6.934 -0.1452  0.0393 -0.9870
15098TIP3    H166709   3.571   1.059   6.989 -0.3785 -0.2507 -0.5324
15098TIP3    H266710   3.485   0.937   6.967  0.9324 -1.2759 -0.0856
15099TIP3   OH266711   5.591   2.882  12.085 -0.8966 -0.1811 -0.1814
15099TIP3    H166712   5.642   2.804  12.062 -1.1337  0.0393 -1.5481
15099TIP3    H266713   5.654   2.954  12.081 -0.2327 -0.4641  2.9139
15100TIP3   OH266714   1.472   5.887  15.418  0.4682 -0.0915  0.3888
15100TIP3    H166715   1.446   5.977  15.397 -0.3220 -0.9793 -2.8850
15100TIP3    H266716   1.530   5.861  15.346  0.0254 -2.4816  0.8147
15101TIP3   OH266717   3.458   4.340  15.833  0.1726  0.4592 -0.0289
15101TIP3    H166718   3.531   4.376  15.784  0.1795 -1.0356 -1.1749
15101TIP3    H266719   3.495   4.314  15.917  1.2102 -1.0945 -0.9133
15102TIP3   OH266720   1.602   2.153  15.758  0.0450 -0.0015  1.0459
15102TIP3    H166721   1.639   2.242  15.762  2.1291 -0.6783 -0.9209
15102TIP3    H266722   1.655   2.102  15.818  1.0005 -0.5314 -0.1945
15103TIP3   OH266723   4.369   5.765  17.340 -0.3428 -0.2908 -0.3220
15103TIP3    H166724   4.302   5.715  17.293 -0.4182  0.4256 -1.0163
15103TIP3    H266725   4.331   5.852  17.349 -0.6687 -0.6134  1.8477
15104TIP3   OH266726   5.029   0.811   0.905 -0.1530 -0.0243  0.2380
15104TIP3    H166727   4.965   0.835   0.972 -0.5333 -0.7745  0.1421
15104TIP3    H266728   5.071   0.732   0.940 -0.7477 -0.7517 -0.6652
15105TIP3   OH266729   5.759   2.732  16.943 -0.4142 -0.7728  0.0894
15105TIP3    H166730   5.666   2.721  16.923 -0.3783  0.7312 -1.1028
15105TIP3    H266731   5.800   2.751  16.858  0.8217 -0.4180  0.7363
15106TIP3   OH266732   3.227   4.917   5.705  0.8180 -0.0727  0.2068
15106TIP3    H166733   3.239   4.895   5.613 -0.8565  1.0462 -0.3425
15106TIP3    H266734   3.212   5.012   5.705  0.5163 -0.0914  1.5890
15107TIP3   OH266735   3.868   2.251   1.243 -0.0807  0.1920  0.4115
15107TIP3    H166736   3.905   2.173   1.202 -0.2536  0.0189  0.5909
15107TIP3    H266737   3.912   2.257   1.327  1.2722  1.2937 -0.3262
15108TIP3   OH266738   5.136   4.759   2.389  0.2718  0.4706 -0.0296
15108TIP3    H166739   5.071   4.790   2.326 -1.4970  2.3169  2.4952
15108TIP3    H266740   5.215   4.811   2.369 -0.3369  1.2151 -0.5470
15109TIP3   OH266741   3.275   2.712   1.085  0.3034 -0.1648 -0.5896
15109TIP3    H166742   3.331   2.764   1.142  0.9555  0.7816 -2.0198
15109TIP3    H266743   3.217   2.776   1.043 -2.5029 -1.1727  1.4094
15110TIP3   OH266744   4.012   0.636   0.724 -0.5496  0.0492  0.0569
15110TIP3    H166745   4.010   0.555   0.775  1.7989 -2.3848 -3.2478
15110TIP3    H266746   3.939   0.627   0.663 -0.2902  0.3984 -0.3120
15111TIP3   OH266747   2.277   1.644  11.413  0.4948  0.1477 -0.0193
15111TIP3    H166748   2.263   1.573  11.351  2.2340  0.5567 -0.9575
15111TIP3    H266749   2.192   1.687  11.420  0.0980 -0.3144 -1.6243
15112TIP3   OH266750   5.449   5.463   2.266 -0.2253 -0.1230 -0.2470
15112TIP3    H166751   5.392   5.503   2.331  1.8069 -0.4649  1.8552
15112TIP3    H266752   5.520   5.423   2.316  0.9076 -1.3240 -2.6143
15113TIP3   OH266753   6.323   5.455   5.059  0.7335  0.0008  0.4113
15113TIP3    H166754   6.381   5.526   5.033  0.9007 -0.2986 -0.0452
15113TIP3    H266755   6.304   5.473   5.151  2.0414 -0.2292  0.7501
15114TIP3   OH266756   0.752   1.008  12.047  0.6525 -0.3351  0.2067
15114TIP3    H166757   0.780   1.065  12.118 -1.3335  0.7920  0.1733
15114TIP3    H266758   0.726   1.068  11.976 -2.4587 -1.0889  0.5319
15115TIP3   OH266759   0.793   4.662  10.999  0.0701 -0.4316 -0.3543
15115TIP3    H166760   0.886   4.683  10.999  0.3797 -1.6317  1.2942
15115TIP3    H266761   0.789   4.570  10.973 -0.5865 -0.5789  0.2229
15116TIP3   OH266762   4.472   4.035  13.183  0.0717 -0.5407 -0.3653
15116TIP3    H166763   4.456   3.980  13.106  0.1623  0.2774 -0.9849
15116TIP3    H266764   4.488   3.973  13.254  0.7097 -1.3125 -1.1607
15117TIP3   OH266765   0.524   5.038  16.315  0.0659 -0.6780 -0.3459
15117TIP3    H166766   0.440   5.045  16.270  0.9965  0.9003 -1.9611
15117TIP3    H266767   0.586   5.015  16.246  1.2190 -0.1936  0.5034
15118TIP3   OH266768   1.708   1.078  12.105  0.3275 -0.0946 -0.3221
15118TIP3    H166769   1.787   1.101  12.153  0.6262 -1.0704 -0.3157
15118TIP3    H266770   1.738   1.022  12.033 -0.2113  0.6400 -1.1501
15119TIP3   OH266771   2.387   4.941   5.678 -0.1046  0.4255  0.4424
15119TIP3    H166772   2.295   4.939   5.706 -0.3476 -0.4841 -0.3632
15119TIP3    H266773   2.390   5.008   5.610  0.2898  1.9619  1.9112
15120TIP3   OH266774   4.556   2.352  14.217  0.1593  0.6404  0.0211
15120TIP3    H166775   4.635   2.397  14.188 -0.1986  1.1001 -0.2461
15120TIP3    H266776   4.537   2.288  14.148  0.3469  0.4657  0.1298
15121TIP3   OH266777   0.452   0.015  12.916 -0.5542  0.3014 -0.0020
15121TIP3    H166778   0.510  -0.040  12.968  0.5540  0.5029 -0.9898
15121TIP3    H266779   0.484   0.005  12.826 -2.6838 -0.3902 -0.7510
15122TIP3   OH266780   4.136   0.621  15.320 -0.1766 -0.4815 -0.8588
15122TIP3    H166781   4.163   0.699  15.272  0.7566  1.1887  2.1290
15122TIP3    H266782   4.219   0.581  15.349 -0.6852 -1.6824 -0.9914
15123TIP3   OH266783   6.012   4.492  10.799  0.4491  0.6019  0.0032
15123TIP3    H166784   5.965   4.505  10.717  0.4546 -1.1093 -0.3120
15123TIP3    H266785   6.103   4.514  10.779  0.5017 -0.0875 -0.5430
15124TIP3   OH266786   5.874   3.633   3.775 -0.2697 -0.4651 -0.0121
15124TIP3    H166787   5.921   3.689   3.836 -1.7178  2.0974 -1.1035
15124TIP3    H266788   5.804   3.594   3.827  0.0735 -0.3752  0.5242
15125TIP3   OH266789   1.670   3.929  10.730  0.2751 -0.0050  0.3465
15125TIP3    H166790   1.661   4.015  10.771 -2.0345 -0.8361  1.8092
15125TIP3    H266791   1.587   3.915  10.684  1.1256 -0.9271 -0.9881
15126TIP3   OH266792   6.333   1.839  15.342  0.0176 -0.2680  0.0878
15126TIP3    H166793   6.315   1.884  15.425 -1.2300  0.4602 -0.5459
15126TIP3    H266794   6.391   1.899  15.294  0.3956 -0.4942  0.2616
15127TIP3   OH266795   1.432   5.011   1.371  0.3513  0.0035  0.3805
15127TIP3    H166796   1.506   5.004   1.311 -0.3139  1.3266 -0.6537
15127TIP3    H266797   1.362   5.052   1.319 -1.5499 -2.2653  0.9518
15128TIP3   OH266798   6.748   0.347   3.241 -0.1294  0.3518  0.5530
15128TIP3    H166799   6.662   0.366   3.280  0.3832  0.0036  1.9081
15128TIP3    H266800   6.739   0.374   3.150 -1.8353 -0.1079  0.5362
15129TIP3   OH266801   0.522   3.627   2.044 -0.0159 -0.2167  0.4016
15129TIP3    H166802   0.554   3.711   2.075 -1.3185  0.2728  0.5068
15129TIP3    H266803   0.445   3.649   1.991  0.0227 -1.2945 -0.1272
15130TIP3   OH266804   6.636   4.700  16.591  0.2328 -0.3989  0.6624
15130TIP3    H166805   6.546   4.719  16.565  0.9876 -0.3287 -2.2825
15130TIP3    H266806   6.638   4.605  16.603  0.2515 -0.7824 -1.8387
15131TIP3   OH266807   5.359   4.617  13.507 -0.1487 -0.0968 -0.2004
15131TIP3    H166808   5.423   4.585  13.570 -1.2176  1.7804  1.9782
15131TIP3    H266809   5.405   4.687  13.461  0.4065 -1.0056 -1.0677
15132TIP3   OH266810   4.494   0.334  15.187  0.1819  0.3239  0.5305
15132TIP3    H166811   4.417   0.337  15.131  0.1558  2.3468  0.5888
15132TIP3    H266812   4.563   0.377  15.135  0.5036  1.0519  1.5252
15133TIP3   OH266813   5.789   2.259  11.933  0.5276 -0.1347 -0.1588
15133TIP3    H166814   5.737   2.287  12.009  1.7759 -0.3780  0.8364
15133TIP3    H266815   5.803   2.338  11.882  0.6209  0.2658  0.4816
15134TIP3   OH266816   3.475   5.278   5.093  0.3911 -0.2288 -0.2070
15134TIP3    H166817   3.423   5.197   5.100 -0.3572  0.2636  0.1015
15134TIP3    H266818   3.491   5.304   5.184  0.5942 -0.0175 -0.3039
15135TIP3   OH266819   1.152   5.240  15.630  0.0261  0.6582  0.0557
15135TIP3    H166820   1.198   5.257  15.712  0.2459  0.5629 -0.0480
15135TIP3    H266821   1.073   5.294  15.636 -0.1007  0.4281  0.4531
15136TIP3   OH266822   5.633   1.716  15.646 -0.0098 -0.1257  0.1631
15136TIP3    H166823   5.699   1.656  15.683 -0.3748 -1.4241 -1.1885
15136TIP3    H266824   5.637   1.793  15.703  0.5648 -1.3708  1.9246
15137TIP3   OH266825   2.235   5.477  13.140 -0.3932  0.3937 -0.3264
15137TIP3    H166826   2.185   5.425  13.078  0.6741  0.0770 -0.9490
15137TIP3    H266827   2.289   5.535  13.085 -0.3315  0.9692  0.3261
15138TIP3   OH266828   1.142   4.459   2.926 -0.0249  0.2484 -0.3113
15138TIP3    H166829   1.175   4.548   2.945  2.7219 -0.9054  0.9035
15138TIP3    H266830   1.120   4.461   2.833 -1.5606  2.6025  0.0038
15139TIP3   OH266831   1.134   5.189   1.478 -0.2241  0.1505 -0.4771
15139TIP3    H166832   1.156   5.174   1.386 -0.9715 -2.2612 -0.3473
15139TIP3    H266833   1.039   5.177   1.482 -0.0772 -0.7935  0.7582
15140TIP3   OH266834   0.995   0.833  12.960  0.5795  0.5560 -0.3664
15140TIP3    H166835   0.932   0.825  12.889  0.6384 -0.1283 -0.3508
15140TIP3    H266836   0.974   0.761  13.020  0.3731  1.2644  0.4383
15141TIP3   OH266837   4.117   2.087   5.164 -0.2564  0.0492 -0.2207
15141TIP3    H166838   4.036   2.064   5.118  0.7137 -0.3641 -1.7883
15141TIP3    H266839   4.155   2.157   5.112 -1.2847  2.8122  2.4373
15142TIP3   OH266840   5.888   1.063   3.762 -0.9994 -0.0424 -0.2612
15142TIP3    H166841   5.811   1.097   3.716 -1.1695  1.5458  1.0999
15142TIP3    H266842   5.961   1.114   3.729 -0.7487 -0.5199 -0.4574
15143TIP3   OH266843   4.148   5.943  11.300  0.2500  0.6961  0.4628
15143TIP3    H166844   4.141   5.976  11.390  3.0441  1.8215  0.3881
15143TIP3    H266845   4.108   5.857  11.303 -1.8271  1.6290  2.1944
15144TIP3   OH266846   2.296   3.645   1.617 -0.0160  0.0009  0.1944
15144TIP3    H166847   2.246   3.593   1.554  0.0990  0.3053 -0.1482
15144TIP3    H266848   2.387   3.621   1.601  0.2272  1.7542 -1.3229
15145TIP3   OH266849   6.001   0.857   1.282 -1.0101 -0.2071  0.2355
15145TIP3    H166850   5.991   0.815   1.197 -0.3403 -0.0446  0.0648
15145TIP3    H266851   6.010   0.784   1.344  2.2202 -0.4457 -0.3025
15146TIP3   OH266852   0.931   3.844  11.683 -0.6472 -0.3104  0.2671
15146TIP3    H166853   0.885   3.926  11.665 -0.1063  0.0124  0.3488
15146TIP3    H266854   0.900   3.817  11.769  0.5144  0.7494  1.0473
15147TIP3   OH266855   4.493   2.151   1.515  0.6644  0.1117  0.3762
15147TIP3    H166856   4.433   2.142   1.441 -0.4621 -0.9168  1.3605
15147TIP3    H266857   4.490   2.066   1.559  1.3274  0.6770  1.5698
15148TIP3   OH266858   0.496   5.592   3.926  0.2929 -0.0204  0.3041
15148TIP3    H166859   0.526   5.611   3.837  0.1229  0.4690  0.3457
15148TIP3    H266860   0.572   5.554   3.970  0.5207  0.1771  0.0852
15149TIP3   OH266861   6.244   0.027   2.477  0.5031 -0.3947  0.2046
15149TIP3    H166862   6.301   0.050   2.404 -2.7867  1.6668 -2.0101
15149TIP3    H266863   6.206  -0.057   2.452 -0.7699  0.4005 -0.7214
15150TIP3   OH266864   6.085   5.668   0.677  0.3434 -0.5491  0.1776
15150TIP3    H166865   6.134   5.588   0.697  2.1578  0.0699 -1.5641
15150TIP3    H266866   6.138   5.739   0.713 -0.4308  0.0051  0.2605
15151TIP3   OH266867   2.830   0.979   2.937  0.3165  0.6628  0.3633
15151TIP3    H166868   2.741   1.005   2.959 -0.1224  1.9672 -2.4729
15151TIP3    H266869   2.824   0.948   2.846  2.3570 -1.5571  0.9014
15152TIP3   OH266870   1.623   6.119  16.458 -0.2106 -0.4997  0.0258
15152TIP3    H166871   1.651   6.082  16.542 -1.1748 -3.0986 -0.6931
15152TIP3    H266872   1.695   6.100  16.398 -0.5619 -0.8916 -0.2759
15153TIP3   OH266873   0.518   4.160  17.084 -0.0948  0.2381  0.5409
15153TIP3    H166874   0.579   4.112  17.140 -0.6355 -1.1581 -0.0095
15153TIP3    H266875   0.568   4.180  17.005 -0.0138  0.1076  0.5600
15154TIP3   OH266876   4.061   3.239   1.012 -0.4410  0.0474 -0.0953
15154TIP3    H166877   4.140   3.213   1.059  0.4780 -1.0748 -2.1563
15154TIP3    H266878   4.019   3.304   1.070  2.2616  1.1277  0.8005
15155TIP3   OH266879   1.239   5.980   5.346  0.0228 -0.1052 -0.4203
15155TIP3    H166880   1.262   5.978   5.438  2.1980 -3.5061 -0.8657
15155TIP3    H266881   1.227   6.073   5.326 -0.3964  0.7465  3.1888
15156TIP3   OH266882   2.909   4.598  12.382 -0.1343 -0.3198  0.3545
15156TIP3    H166883   2.837   4.606  12.445  0.3428 -2.0644  1.1853
15156TIP3    H266884   2.950   4.684  12.381 -0.1805 -0.2352  2.4122
15157TIP3   OH266885   5.556   0.213   6.174  0.0030 -0.4277 -0.1164
15157TIP3    H166886   5.515   0.266   6.242  0.0784 -0.8262  0.2482
15157TIP3    H266887   5.600   0.143   6.222 -1.4417 -1.7675 -0.6557
15158TIP3   OH266888   6.229   4.638   2.238  0.3652 -0.0197 -0.0754
15158TIP3    H166889   6.186   4.682   2.165  0.7496  0.2472 -0.1432
15158TIP3    H266890   6.175   4.661   2.314 -0.3207 -0.7034 -0.3370
15159TIP3   OH266891   3.809   3.677  11.940  0.3244 -0.5785 -0.1425
15159TIP3    H166892   3.862   3.707  11.866  0.1565 -0.0626 -0.0559
15159TIP3    H266893   3.774   3.757  11.979 -1.4548 -0.9287 -0.9050
15160TIP3   OH266894   2.209   2.922   4.322 -0.6687 -0.1291 -0.5700
15160TIP3    H166895   2.224   3.013   4.297 -0.5309  0.1471  0.4468
15160TIP3    H266896   2.296   2.886   4.334 -0.6208  0.7354  2.7837
15161TIP3   OH266897   3.329   3.844   4.060 -0.5063 -0.2720 -0.0919
15161TIP3    H166898   3.253   3.801   4.021  0.3935 -2.4931  0.4451
15161TIP3    H266899   3.321   3.826   4.154  1.7054 -2.4368 -0.2252
15162TIP3   OH266900   6.557   1.658  11.349  0.2862  0.0387 -0.2500
15162TIP3    H166901   6.560   1.749  11.377  0.9716 -0.1054  0.1518
15162TIP3    H266902   6.648   1.630  11.346  0.0224 -1.0033  0.8750
15163TIP3   OH266903   5.855   1.148  15.159  0.5523  0.1444  0.7605
15163TIP3    H166904   5.808   1.108  15.086  1.5189  1.0594 -0.4107
15163TIP3    H266905   5.870   1.076  15.221 -0.5089 -0.5947  0.1828
15164TIP3   OH266906   3.609   0.590  12.683  0.3520  0.0203 -0.5142
15164TIP3    H166907   3.688   0.540  12.660  0.9560  1.3270 -1.3720
15164TIP3    H266908   3.641   0.662  12.738 -0.9478 -2.6108  4.2981
15165TIP3   OH266909   1.622   3.672  13.619  0.1505 -0.3873  0.1244
15165TIP3    H166910   1.717   3.679  13.621  0.5655 -2.9897 -2.8010
15165TIP3    H266911   1.604   3.579  13.637 -1.8193 -0.0558  0.1459
15166TIP3   OH266912   6.271   2.147   0.689  0.4464  0.0987 -0.1797
15166TIP3    H166913   6.210   2.191   0.630  0.8600  0.6919 -0.1779
15166TIP3    H266914   6.335   2.215   0.712  1.6023 -0.7214 -0.8571
15167TIP3   OH266915   2.278   6.209   5.354  0.5142  0.1203 -0.1155
15167TIP3    H166916   2.340   6.259   5.301  0.4421 -0.2628 -0.5681
15167TIP3    H266917   2.195   6.217   5.306 -0.3461  2.4233  1.5513
15168TIP3   OH266918   4.644   4.239   0.071  0.5386 -0.4483 -0.6286
15168TIP3    H166919   4.572   4.302   0.075  1.7903  1.1254 -1.4742
15168TIP3    H266920   4.604   4.158   0.041 -1.1728 -0.1302  0.6779
15169TIP3   OH266921   4.791   1.870  12.056 -0.0883  0.1849  0.3747
15169TIP3    H166922   4.746   1.786  12.044  2.1818 -0.8480 -2.0870
15169TIP3    H266923   4.802   1.878  12.151  0.7713 -3.0576  0.6897
15170TIP3   OH266924   2.347   1.470  11.647  1.0992  0.3367 -0.0768
15170TIP3    H166925   2.419   1.533  11.649  1.3166  0.0850  0.4456
15170TIP3    H266926   2.347   1.437  11.557  0.2752  1.8578 -0.6580
15171TIP3   OH266927   5.915   0.458   0.963  0.7899  0.1932  0.1942
15171TIP3    H166928   5.843   0.399   0.943 -0.4807  2.2276 -1.6795
15171TIP3    H266929   5.975   0.449   0.889  0.0875  1.8798 -0.6331
15172TIP3   OH266930   0.046   3.756   4.585  0.3503 -0.2459  0.0630
15172TIP3    H166931   0.060   3.754   4.680  0.2948 -1.6223  0.0681
15172TIP3    H266932   0.021   3.846   4.566 -0.2025 -0.0817  1.4443
15173TIP3   OH266933   3.659   4.041  13.544  0.0369 -0.1668 -0.3123
15173TIP3    H166934   3.658   4.113  13.481  0.3820  0.7366  0.6770
15173TIP3    H266935   3.742   3.996  13.528 -0.3870 -0.6445 -1.2388
15174TIP3   OH266936   2.098   6.493  12.520  0.2296 -0.4013  0.1277
15174TIP3    H166937   2.081   6.575  12.566 -1.3610 -1.0923  0.8672
15174TIP3    H266938   2.149   6.518  12.443 -0.2142  1.2699  0.3478
15175TIP3   OH266939   1.979   2.461  14.147 -0.0258 -0.5296  0.6065
15175TIP3    H166940   1.963   2.471  14.241  1.1362  1.0697  0.6704
15175TIP3    H266941   2.019   2.375  14.138  1.2702 -0.0973  1.8097
15176TIP3   OH266942   0.116   0.784  12.650 -0.4898  0.1975  0.4879
15176TIP3    H166943   0.174   0.785  12.727 -0.8079  3.8691  0.8452
15176TIP3    H266944   0.157   0.846  12.589 -2.5986  0.7924 -0.3934
15177TIP3   OH266945   2.456   4.043   3.498 -0.1678  0.2544 -0.4384
15177TIP3    H166946   2.534   4.044   3.553 -0.7369  3.0270  0.4919
15177TIP3    H266947   2.488   4.056   3.409  0.4702  1.5718 -0.0378
15178TIP3   OH266948   0.175   6.055   4.920  0.1659 -1.1233  0.3956
15178TIP3    H166949   0.262   6.093   4.931  0.5083 -1.2891 -1.4809
15178TIP3    H266950   0.115   6.130   4.925  0.3026 -1.0890  2.4016
15179TIP3   OH266951   6.515   0.601   5.074  0.5760  0.1239 -0.0278
15179TIP3    H166952   6.483   0.545   5.003  0.0476 -0.6024  0.7590
15179TIP3    H266953   6.581   0.657   5.032  0.9982 -0.9646 -0.8897
15180TIP3   OH266954   3.429   6.315   6.289  0.6047 -0.2732  0.4879
15180TIP3    H166955   3.369   6.379   6.329 -2.3429 -2.2431 -0.3846
15180TIP3    H266956   3.481   6.365   6.227 -0.5672  1.4882  0.8568
15181TIP3   OH266957   6.112   6.131   6.154  0.2858 -0.5496  0.4911
15181TIP3    H166958   6.101   6.187   6.077 -1.2797  1.8751  2.2932
15181TIP3    H266959   6.188   6.076   6.134  0.8138  0.9719 -2.1694
15182TIP3   OH266960   1.181   0.003   2.473  0.5398 -0.0884  0.3314
15182TIP3    H166961   1.170   0.058   2.395  0.3654 -1.0270 -0.3176
15182TIP3    H266962   1.091  -0.014   2.503  0.5312 -0.9216 -0.1273
15183TIP3   OH266963   0.313   5.487   5.609  0.5493 -0.1225  0.3232
15183TIP3    H166964   0.373   5.519   5.676 -0.1503  1.3426  0.2834
15183TIP3    H266965   0.231   5.469   5.656  0.4732 -0.3997  0.0874
15184TIP3   OH266966   2.470   6.472  14.334  0.1590 -0.1344  0.2311
15184TIP3    H166967   2.375   6.478  14.346  0.2722 -0.4882  1.5215
15184TIP3    H266968   2.505   6.473  14.423  1.4182  0.6475 -0.2569
15185TIP3   OH266969   3.256   6.689   5.181 -0.0750  0.0109 -0.0360
15185TIP3    H166970   3.213   6.698   5.096  0.0934 -1.2738 -0.2850
15185TIP3    H266971   3.223   6.762   5.233 -1.0454  0.1718 -0.8512
15186TIP3   OH266972   2.756   5.230  16.716  0.2139  0.2604  0.8621
15186TIP3    H166973   2.759   5.223  16.811  0.1928  0.1620  0.8560
15186TIP3    H266974   2.814   5.161  16.685 -0.9932 -0.7722  0.7758
15187TIP3   OH266975   3.653   2.822   5.649  0.1360  0.2101 -0.1465
15187TIP3    H166976   3.638   2.882   5.722 -1.2075  0.6534 -0.7645
15187TIP3    H266977   3.586   2.754   5.660  1.7118 -1.2979  0.6262
15188TIP3   OH266978   5.414   2.611   4.973 -0.0320  0.3777  0.3664
15188TIP3    H166979   5.456   2.525   4.975 -1.7058 -0.4861  0.4069
15188TIP3    H266980   5.419   2.641   5.064  2.7938  1.5396 -0.0635
15189TIP3   OH266981   3.888   3.772   4.192 -0.4877  0.4433  0.2881
15189TIP3    H166982   3.867   3.747   4.102 -1.6837  0.2064  0.6092
15189TIP3    H266983   3.880   3.690   4.242  0.1930  0.5644  0.6044
15190TIP3   OH266984   4.846   0.862  16.664 -0.2012 -0.5290 -0.0611
15190TIP3    H166985   4.773   0.911  16.699  1.2651  0.9909  1.0189
15190TIP3    H266986   4.863   0.902  16.579 -0.1642 -0.4023  0.0061
15191TIP3   OH266987   4.059   5.261   5.081  0.8812  0.2432 -0.3225
15191TIP3    H166988   4.090   5.340   5.037  0.2355  0.7033  0.0319
15191TIP3    H266989   3.965   5.259   5.064  0.8571 -0.3451 -0.1587
15192TIP3   OH266990   3.388   2.508  12.954 -0.2765 -0.8431 -0.0478
15192TIP3    H166991   3.401   2.414  12.963  0.3729 -0.7086  0.4933
15192TIP3    H266992   3.351   2.536  13.038  0.4574 -0.4652  0.1558
15193TIP3   OH266993   1.125   1.653   2.985 -0.0648  0.1543  0.3823
15193TIP3    H166994   1.146   1.628   3.075  0.7873  1.0889  0.4579
15193TIP3    H266995   1.030   1.662   2.984 -0.3000 -1.8818  0.6435
15194TIP3   OH266996   0.963   4.145  12.995 -0.6314 -0.0261 -0.1251
15194TIP3    H166997   1.015   4.184  13.066  1.3491  2.1856 -2.5766
15194TIP3    H266998   0.906   4.216  12.966 -1.1905 -0.7957 -0.9574
15195TIP3   OH266999   4.636   5.353   3.036 -0.2193 -0.4311 -0.1614
15195TIP3    H167000   4.554   5.352   3.086  1.1695 -0.0562  2.3192
15195TIP3    H267001   4.689   5.283   3.076  1.3068  0.5104 -0.4556
15196TIP3   OH267002   3.040   4.985  16.342 -0.1611 -0.2306  0.2019
15196TIP3    H167003   2.974   5.033  16.291  0.1167 -1.2689 -1.2037
15196TIP3    H267004   3.123   5.017  16.308  0.0297 -2.0330 -1.1365
15197TIP3   OH267005   4.899   4.463  13.556 -0.5028  0.6006  0.2048
15197TIP3    H167006   4.899   4.422  13.469 -2.8767 -0.4083  0.6025
15197TIP3    H267007   4.951   4.543  13.544 -0.5904  0.3907 -2.0990
15198TIP3   OH267008   0.868   5.733   6.107  0.3638  0.0620 -0.6961
15198TIP3    H167009   0.943   5.676   6.092  0.4565 -0.1687  0.5194
15198TIP3    H267010   0.796   5.691   6.060  0.9944  0.3425 -1.9576
15199TIP3   OH267011   1.928   4.227  12.989  0.1339  0.0419 -0.5991
15199TIP3    H167012   2.019   4.220  12.963  0.0854 -2.8796 -0.2554
15199TIP3    H267013   1.882   4.252  12.909  0.9764 -0.6152 -1.2991
15200TIP3   OH267014   2.444   3.065   4.539  0.0075 -0.5683  0.8737
15200TIP3    H167015   2.460   3.025   4.624 -2.1483  0.8778  2.0356
15200TIP3    H267016   2.439   2.991   4.478  3.2582 -1.5512  1.5792
15201TIP3   OH267017   0.989   5.217   0.732  0.5641  0.6730 -0.3286
15201TIP3    H167018   0.958   5.143   0.784 -1.2349 -0.3116 -2.6427
15201TIP3    H267019   1.065   5.250   0.781 -0.4369 -0.7071  2.3961
15202TIP3   OH267020   6.748   5.649   0.563  0.0183 -0.2329 -0.1317
15202TIP3    H167021   6.698   5.719   0.606  0.0309 -0.3089  0.0106
15202TIP3    H267022   6.808   5.618   0.631  0.1209 -0.2759 -0.2423
15203TIP3   OH267023   4.992   3.383  10.551  0.4675 -0.0202 -0.4503
15203TIP3    H167024   5.009   3.333  10.630 -0.5198  1.0312  0.4707
15203TIP3    H267025   5.068   3.441  10.542 -0.0924  0.9290  0.6267
15204TIP3   OH267026   3.317   1.804  15.986 -0.0293  0.0176 -0.0887
15204TIP3    H167027   3.301   1.852  15.905  1.1623 -2.6362 -2.0462
15204TIP3    H267028   3.410   1.819  16.005 -0.1964  0.2632  0.5772
15205TIP3   OH267029   5.889   1.755   6.194 -0.4508 -0.2854  0.1997
15205TIP3    H167030   5.885   1.661   6.211 -0.1996 -0.2277  0.5833
15205TIP3    H267031   5.823   1.793   6.252 -0.0156 -0.1496  0.6109
15206TIP3   OH267032   6.004   5.290  13.355  0.1673  0.1364  0.3377
15206TIP3    H167033   6.076   5.235  13.387  0.3112  1.4382  2.4491
15206TIP3    H267034   6.043   5.342  13.285  1.1195  0.3827  1.0292
15207TIP3   OH267035   4.958   2.747  16.356  0.0731  0.1675  0.3197
15207TIP3    H167036   4.944   2.841  16.361  1.0674  0.2572  2.9020
15207TIP3    H267037   5.028   2.736  16.293 -1.0341  0.9813 -1.1217
15208TIP3   OH267038   2.161   5.123  13.029 -0.2804 -0.4845 -0.2210
15208TIP3    H167039   2.101   5.053  13.053 -1.2993  0.8706  1.4215
15208TIP3    H267040   2.104   5.193  12.996  0.4917  0.3627  0.1893
15209TIP3   OH267041   0.616   4.226   0.114  0.2883 -0.3341  0.2151
15209TIP3    H167042   0.646   4.201   0.201  0.6314 -0.6128  0.0149
15209TIP3    H267043   0.656   4.163   0.054  0.2376 -0.0083 -0.1715
15210TIP3   OH267044   4.969   4.915   1.319 -0.6027 -0.3964 -0.2893
15210TIP3    H167045   4.916   4.876   1.249  0.0540  0.8695 -1.5521
15210TIP3    H267046   5.048   4.861   1.322 -0.9948 -0.9622  0.0738
15211TIP3   OH267047   1.163   3.279   3.377  0.3637  0.0340  0.0852
15211TIP3    H167048   1.139   3.301   3.288  2.3244  0.7763 -0.3226
15211TIP3    H267049   1.081   3.276   3.425 -0.6328  0.5610 -1.5410
15212TIP3   OH267050   1.513   1.453   2.875  0.0687  0.5779  0.5371
15212TIP3    H167051   1.486   1.391   2.942  0.4741  0.9865  1.0952
15212TIP3    H267052   1.551   1.526   2.925 -0.0169  1.0778 -0.1197
15213TIP3   OH267053   2.290   5.288  11.665 -0.5128 -0.0502 -0.0754
15213TIP3    H167054   2.253   5.375  11.677  1.3123  0.9352 -1.0963
15213TIP3    H267055   2.232   5.230  11.714 -2.0256  1.6659  0.2683
15214TIP3   OH267056   6.335   2.823   2.826  0.1758 -0.3900  0.1035
15214TIP3    H167057   6.382   2.753   2.871  0.4496 -0.7953 -0.7762
15214TIP3    H267058   6.403   2.885   2.799 -0.2586  1.4699  2.8627
15215TIP3   OH267059   5.916   1.923  13.499  0.5286 -0.1611  0.3190
15215TIP3    H167060   5.862   1.937  13.421  2.4465  1.0176 -0.8840
15215TIP3    H267061   5.938   1.830  13.496 -0.0946 -0.3098 -0.0557
15216TIP3   OH267062   1.415   5.423  11.503  0.1828  0.6113 -0.5229
15216TIP3    H167063   1.444   5.332  11.509  0.6965  0.6862 -1.6788
15216TIP3    H267064   1.403   5.450  11.594  0.3185 -0.5136 -0.1517
15217TIP3   OH267065   1.192   3.919   5.321 -0.3575  0.5378  0.4123
15217TIP3    H167066   1.174   3.860   5.394 -0.2854 -0.7200 -0.5500
15217TIP3    H267067   1.182   4.006   5.358 -0.3297 -0.0644  1.9187
15218TIP3   OH267068   2.746   4.766   4.703  0.1953  0.0044 -0.3848
15218TIP3    H167069   2.800   4.732   4.774  1.1159  1.1312 -0.5317
15218TIP3    H267070   2.667   4.711   4.705 -1.0453  1.5997  3.1958
15219TIP3   OH267071   3.987   5.805  15.668  0.0440  0.5299 -0.4139
15219TIP3    H167072   3.998   5.741  15.739  0.3660  0.5344 -0.4591
15219TIP3    H267073   3.904   5.781  15.627  0.4046 -0.1719 -0.7475
15220TIP3   OH267074   5.454   4.265  14.058 -0.0530 -0.1187 -0.0163
15220TIP3    H167075   5.441   4.315  13.977  4.0445  0.8173 -0.2845
15220TIP3    H267076   5.505   4.189  14.032  1.1115  0.0482  1.6212
15221TIP3   OH267077   2.147   3.573  14.238 -0.1444  0.4624 -0.7823
15221TIP3    H167078   2.139   3.514  14.163  0.5077  1.4491 -1.6494
15221TIP3    H267079   2.231   3.549  14.279 -0.6224 -0.2537 -0.1788
15222TIP3   OH267080   3.407   6.270   0.321  0.8558 -0.4530 -0.5403
15222TIP3    H167081   3.353   6.328   0.376  1.7245 -0.5058  0.4023
15222TIP3    H267082   3.374   6.284   0.232 -0.1115  0.1769 -0.1065
15223TIP3   OH267083   3.619   6.270   0.069 -0.3283  0.6781  0.5884
15223TIP3    H167084   3.525   6.288   0.062 -0.5447 -0.5513  0.0762
15223TIP3    H267085   3.651   6.332   0.135 -0.8778  3.3568 -1.4792
15224TIP3   OH267086   2.221   1.702   2.337  0.1002 -0.1108  0.0486
15224TIP3    H167087   2.213   1.782   2.388 -0.6691  0.9124 -1.5899
15224TIP3    H267088   2.252   1.731   2.251 -0.7703 -1.4899 -0.7672
15225TIP3   OH267089   3.081   6.256  11.837 -0.6018  0.6184 -0.6105
15225TIP3    H167090   3.002   6.215  11.804  1.1447 -2.5347 -1.2367
15225TIP3    H267091   3.137   6.269  11.760  0.7390 -0.2534  0.1647
15226TIP3   OH267092   0.259   3.350  10.940  0.4349  0.1854 -0.3626
15226TIP3    H167093   0.168   3.346  10.967  0.4182  3.2924  0.3622
15226TIP3    H267094   0.258   3.391  10.854  1.1752  1.0861  0.0385
15227TIP3   OH267095   3.351   6.387  14.110 -0.0847  0.4690 -0.0911
15227TIP3    H167096   3.420   6.448  14.086  1.0213 -0.5440  0.4432
15227TIP3    H267097   3.345   6.392  14.205 -0.4485  0.2414 -0.0977
15228TIP3   OH267098   1.283   3.614   6.736  0.2136 -0.2611  0.3776
15228TIP3    H167099   1.304   3.549   6.669  0.0421  0.2263 -0.1628
15228TIP3    H267100   1.305   3.698   6.695  0.6819  0.0080  1.1600
15229TIP3   OH267101   2.122   6.312   4.058  0.7099 -0.1206  0.1621
15229TIP3    H167102   2.173   6.331   3.979  1.2980  0.5190  0.6802
15229TIP3    H267103   2.037   6.354   4.043  0.7051 -0.2784 -0.2613
15230TIP3   OH267104   2.384   6.330  15.253  0.0487 -0.1676 -0.1351
15230TIP3    H167105   2.407   6.313  15.161 -0.5716  0.4597 -0.4087
15230TIP3    H267106   2.340   6.250  15.281 -0.6737  0.0267 -0.6912
15231TIP3   OH267107   1.793   3.140  17.292 -0.6240 -0.1693 -0.3125
15231TIP3    H167108   1.765   3.050  17.278 -1.5424  0.3227 -1.8730
15231TIP3    H267109   1.791   3.180  17.205  1.0381  1.0223  0.1429
15232TIP3   OH267110   4.287   6.489  17.328  0.3329  0.0928 -0.1487
15232TIP3    H167111   4.325   6.522  17.409  0.6328 -0.5624 -0.0141
15232TIP3    H267112   4.352   6.428  17.294  0.4679  0.7879 -1.1858
15233TIP3   OH267113   0.973   0.175  13.727  0.3953 -0.6210 -0.4139
15233TIP3    H167114   0.999   0.249  13.672 -3.4716  0.5942 -0.8657
15233TIP3    H267115   0.952   0.213  13.812  0.6926 -1.6318  0.1425
15234TIP3   OH267116   0.202   2.314   3.623 -0.3971 -0.1715  0.2821
15234TIP3    H167117   0.153   2.394   3.644  1.2338  0.8924  0.1597
15234TIP3    H267118   0.286   2.325   3.667 -0.2954 -2.0488  0.6498
15235TIP3   OH267119   1.008   1.754  12.797  0.4309  0.9478 -0.1023
15235TIP3    H167120   1.017   1.846  12.823 -0.5973  1.6042 -1.8455
15235TIP3    H267121   0.933   1.722  12.847  1.4387  0.6821  1.3201
15236TIP3   OH267122   3.531   4.679   4.197 -0.2264  0.1557  0.4368
15236TIP3    H167123   3.471   4.695   4.125  1.4082  1.6596 -0.6788
15236TIP3    H267124   3.600   4.624   4.161  0.2884  0.3953  1.0264
15237TIP3   OH267125   2.548   4.040  15.544  0.0269 -0.1748 -0.5325
15237TIP3    H167126   2.474   4.061  15.602  0.7511 -0.7429  0.6415
15237TIP3    H267127   2.585   3.960  15.581  3.4005  1.9304  1.1451
15238TIP3   OH267128   1.010   1.094   2.144 -0.6256  0.1305  0.6782
15238TIP3    H167129   0.993   1.143   2.063  1.9408  2.7652  1.5916
15238TIP3    H267130   1.041   1.008   2.114 -0.9204  0.6124 -1.1023
15239TIP3   OH267131   5.510   4.069   0.493 -0.3042 -0.1674 -0.3430
15239TIP3    H167132   5.485   3.987   0.450 -0.2130  1.1384 -3.0330
15239TIP3    H267133   5.426   4.106   0.522 -0.4683 -0.5885 -0.2626
15240TIP3   OH267134   1.116   3.986   2.766  0.2657  0.6340 -0.2888
15240TIP3    H167135   1.054   3.934   2.817  0.4774  1.3852  0.7763
15240TIP3    H267136   1.198   3.936   2.768  0.5752  1.1396  1.0484
15241TIP3   OH267137   4.540   5.836   1.622 -0.2251  0.3841  0.4938
15241TIP3    H167138   4.571   5.841   1.532 -0.3980 -0.0491  0.4086
15241TIP3    H267139   4.466   5.896   1.626  1.5373  2.6779  1.0981
15242TIP3   OH267140   3.836   0.365   1.417 -0.3124 -0.1536 -0.2512
15242TIP3    H167141   3.910   0.312   1.445 -0.8165  0.0905  1.6503
15242TIP3    H267142   3.769   0.302   1.392 -0.1788 -0.3849 -0.0213
15243TIP3   OH267143   1.437   1.020  11.962 -0.1821 -0.0945 -0.1892
15243TIP3    H167144   1.415   1.066  11.881  0.4246  1.3307  0.4258
15243TIP3    H267145   1.530   1.038  11.975 -0.1110 -0.8915  0.4716
15244TIP3   OH267146   2.283   3.740  15.901 -0.3468 -0.0440  0.1091
15244TIP3    H167147   2.366   3.774  15.866  0.0136 -0.5560  0.4387
15244TIP3    H267148   2.308   3.700  15.985 -0.9111 -0.3055  0.1529
15245TIP3   OH267149   0.318   5.006  15.699  0.2516  1.0711 -0.2754
15245TIP3    H167150   0.233   4.969  15.676  0.6710 -1.4234  1.7214
15245TIP3    H267151   0.298   5.096  15.725 -1.3715  1.3043 -2.0745
15246TIP3   OH267152   1.721   5.109   3.162  0.4637  0.0150  0.0439
15246TIP3    H167153   1.801   5.157   3.181  0.8248 -0.8350  0.7198
15246TIP3    H267154   1.699   5.065   3.244  1.1606 -2.4294 -0.9746
15247TIP3   OH267155   4.159   5.779  11.964 -0.4714  0.3503  0.2455
15247TIP3    H167156   4.227   5.781  12.032  0.0950  1.2707 -0.3289
15247TIP3    H267157   4.155   5.869  11.932  0.0500 -0.2757 -1.6966
15248TIP3   OH267158   1.713   5.064  13.405 -0.1828  0.6315  0.4608
15248TIP3    H167159   1.637   5.008  13.420 -1.2642  2.1207  0.7251
15248TIP3    H267160   1.772   5.044  13.479 -0.2724 -0.5480  0.2411
15249TIP3   OH267161   1.842   4.480  12.599  0.1135  0.2955  0.3728
15249TIP3    H167162   1.825   4.563  12.555 -0.7084  0.7614  1.5248
15249TIP3    H267163   1.853   4.503  12.691 -0.4163 -0.8948  0.7542
15250TIP3   OH267164   3.419   6.507  15.630  0.0269  0.0659  0.1687
15250TIP3    H167165   3.464   6.455  15.697 -0.7589  0.7549  1.2752
15250TIP3    H267166   3.484   6.571  15.602 -0.6687  2.3652  3.1907
15251TIP3   OH267167   2.158   5.987   6.344 -0.7576  0.0914 -0.0581
15251TIP3    H167168   2.092   5.951   6.284  0.0958  0.0400 -1.0019
15251TIP3    H267169   2.241   5.952   6.311 -0.1989  0.6635  0.7234
15252TIP3   OH267170   6.278   3.545  15.918 -0.2294 -0.3732  0.0372
15252TIP3    H167171   6.192   3.510  15.895 -1.2725  2.4577 -0.8511
15252TIP3    H267172   6.340   3.476  15.894 -2.0616 -1.4972 -1.7673
15253TIP3   OH267173   6.297   3.170  13.891 -0.7640 -0.2039  0.5350
15253TIP3    H167174   6.222   3.130  13.934 -2.2554  0.7026 -1.0883
15253TIP3    H267175   6.261   3.210  13.812  1.4232  0.3541 -0.2613
15254TIP3   OH267176   6.483   2.427  11.859 -0.1111  0.1047 -0.2897
15254TIP3    H167177   6.493   2.482  11.937  0.7961  0.5979 -0.7320
15254TIP3    H267178   6.452   2.343  11.892  0.1669  0.3389  0.5992
15255TIP3   OH267179   5.713   4.915   2.114  0.5949  0.0626 -0.3434
15255TIP3    H167180   5.751   5.003   2.109 -1.5047  0.9871 -0.7933
15255TIP3    H267181   5.693   4.902   2.206 -0.3944  0.6689 -0.4568
15256TIP3   OH267182   1.293   4.623  11.430  0.3926 -0.4947  0.1825
15256TIP3    H167183   1.289   4.658  11.519  0.7058 -0.8840  0.3534
15256TIP3    H267184   1.355   4.680  11.385  1.7670 -1.4756  0.7702
15257TIP3   OH267185   5.888   1.204   5.942  0.2978  0.4425 -0.2168
15257TIP3    H167186   5.850   1.120   5.917 -0.1830  1.0977 -1.8135
15257TIP3    H267187   5.890   1.202   6.037 -1.6502 -0.5395 -0.1476
15258TIP3   OH267188   6.165   6.314   5.938  0.0244  0.1658 -0.1503
15258TIP3    H167189   6.258   6.306   5.959 -0.1892  0.1797  0.8446
15258TIP3    H267190   6.164   6.333   5.844  0.9923 -0.4833 -0.3083
15259TIP3   OH267191   4.955   2.364  15.253  0.0438 -0.3777 -0.4809
15259TIP3    H167192   4.932   2.371  15.160 -0.9700 -1.5341 -0.3398
15259TIP3    H267193   4.887   2.307  15.290  0.3774  0.1414  0.9914
15260TIP3   OH267194   5.820   4.294  15.933  0.8738 -0.3459  0.1334
15260TIP3    H167195   5.877   4.275  15.858  0.5620 -1.5440  0.1831
15260TIP3    H267196   5.880   4.302  16.007  0.9193 -4.2214  0.7093
15261TIP3   OH267197   5.367   4.648   0.784  0.2552  0.1848  0.1202
15261TIP3    H167198   5.402   4.619   0.868 -0.2516  0.4593  0.4324
15261TIP3    H267199   5.429   4.714   0.754 -0.3919  1.2548  1.0551
15262TIP3   OH267200   5.065   2.017   0.143  0.3434 -0.3431 -0.6140
15262TIP3    H167201   5.039   2.109   0.151  1.7115  0.0192 -0.0155
15262TIP3    H267202   5.083   1.990   0.233 -0.7185 -1.4201 -0.7050
15263TIP3   OH267203   3.645   4.092  15.101  0.1309 -0.3206 -0.7259
15263TIP3    H167204   3.734   4.125  15.104 -0.5455  1.6015 -0.5322
15263TIP3    H267205   3.591   4.165  15.131 -1.4557 -1.6679 -0.1418
15264TIP3   OH267206   3.526   3.924  12.746 -0.2860 -0.0480  0.2533
15264TIP3    H167207   3.510   3.851  12.805  0.9612  1.0251  2.0140
15264TIP3    H267208   3.621   3.922  12.731 -0.4870  0.1163 -1.1992
15265TIP3   OH267209   0.449   6.715   0.547 -0.0493  0.1589  0.3371
15265TIP3    H167210   0.443   6.659   0.470 -0.2700  0.4477  0.1459
15265TIP3    H267211   0.427   6.657   0.620 -0.0175 -0.0698  0.1667
15266TIP3   OH267212   0.316   3.863   3.940 -0.3076  0.6729 -0.2923
15266TIP3    H167213   0.258   3.794   3.971 -0.3182  1.1642  0.8358
15266TIP3    H267214   0.276   3.894   3.858  0.4524 -1.5819 -1.5951
15267TIP3   OH267215   3.593   4.981  13.668 -0.6258 -0.1568  0.0883
15267TIP3    H167216   3.504   5.015  13.663 -0.3606  0.7090  0.8943
15267TIP3    H267217   3.615   4.957  13.578 -0.4313  2.8944 -0.8070
15268TIP3   OH267218   6.329   3.876  17.373 -0.0898  0.6264 -0.5163
15268TIP3    H167219   6.316   3.968  17.351  0.4164  0.9835  0.6254
15268TIP3    H267220   6.293   3.829  17.298 -1.7262  1.7107 -0.4740
15269TIP3   OH267221   1.054   0.647  17.177  0.1462  0.2220 -0.3193
15269TIP3    H167222   0.961   0.660  17.163 -0.2854  1.4624  2.8113
15269TIP3    H267223   1.090   0.735  17.186  0.6532 -0.1888  3.1026
15270TIP3   OH267224   0.653   0.037   4.851 -0.3858  0.1463 -0.8504
15270TIP3    H167225   0.587   0.002   4.792  0.0783 -0.9541 -0.7385
15270TIP3    H267226   0.631   0.130   4.859 -0.9702  0.1337 -2.0589
15271TIP3   OH267227   3.355   1.942  12.228  0.1255 -0.0936  0.4237
15271TIP3    H167228   3.293   1.934  12.301 -0.4100 -2.6080 -0.2207
15271TIP3    H267229   3.440   1.953  12.271 -0.5140  1.7563  1.3301
15272TIP3   OH267230   0.468   0.639  15.094  0.3147  0.4601 -0.1132
15272TIP3    H167231   0.539   0.595  15.048  0.3591  1.3893 -0.9718
15272TIP3    H267232   0.513   0.701  15.152  0.2305  0.0598  0.3860
15273TIP3   OH267233   0.145   5.921  13.353 -0.3908 -0.3840  0.2411
15273TIP3    H167234   0.232   5.954  13.332 -0.8945  1.2288  0.5838
15273TIP3    H267235   0.159   5.828  13.371  1.0029 -0.5001 -1.2131
15274TIP3   OH267236   0.789   4.440   5.673  0.0502 -0.1616  0.0475
15274TIP3    H167237   0.764   4.436   5.580  1.5119 -0.8737 -0.3328
15274TIP3    H267238   0.856   4.509   5.676  0.7031 -0.8077  0.3965
15275TIP3   OH267239   5.774   5.418   3.105 -0.3946 -0.0409 -0.4782
15275TIP3    H167240   5.807   5.397   3.018 -0.6846  1.3257 -0.9447
15275TIP3    H267241   5.834   5.485   3.139 -0.3963 -0.4177  0.2879
15276TIP3   OH267242   3.281   6.484   5.810  0.1425  0.2635 -0.2842
15276TIP3    H167243   3.327   6.434   5.742  0.5284 -0.2058  0.3139
15276TIP3    H267244   3.316   6.573   5.801  2.3850 -0.3856  1.1589
15277TIP3   OH267245   4.516   6.535  12.710  0.3346  0.4808  0.3774
15277TIP3    H167246   4.539   6.581  12.630  0.8086  0.7417  0.6612
15277TIP3    H267247   4.544   6.593  12.781  1.9311 -0.6745  0.7629
15278TIP3   OH267248   5.805   3.676   0.626  0.1786 -0.3970  0.1643
15278TIP3    H167249   5.857   3.638   0.555  1.0520  0.9730  0.0355
15278TIP3    H267250   5.842   3.763   0.639 -1.3194  0.1606  0.9111
15279TIP3   OH267251   1.377   4.043  11.285 -0.0514 -0.4406  0.4323
15279TIP3    H167252   1.442   3.994  11.335  1.2087 -2.2081 -2.6165
15279TIP3    H267253   1.296   4.033  11.334  1.3237 -0.8456  2.7611
15280TIP3   OH267254   4.092   1.257  15.791  0.3204 -0.7580 -0.5333
15280TIP3    H167255   4.151   1.269  15.716  1.4389 -2.1537  0.0666
15280TIP3    H267256   4.054   1.170  15.777 -1.1678 -0.1192 -0.5961
15281TIP3   OH267257   0.268   5.003   2.870  0.3532  0.3703 -0.7450
15281TIP3    H167258   0.215   5.009   2.949 -1.4643 -0.8300 -1.8203
15281TIP3    H267259   0.217   5.048   2.803  0.0558 -1.8366 -2.0969
15282TIP3   OH267260   2.012   3.952  11.349  0.4423 -0.2135 -0.2598
15282TIP3    H167261   2.003   3.977  11.441  0.9526 -1.8727  0.2738
15282TIP3    H267262   2.080   4.010  11.315  0.7768 -0.0746  0.6181
15283TIP3   OH267263   3.963   1.646   3.615  0.3908 -0.2300  0.0423
15283TIP3    H167264   4.013   1.639   3.534 -1.4838 -0.9868 -1.0921
15283TIP3    H267265   3.989   1.730   3.652  4.2335 -1.5062  0.7631
15284TIP3   OH267266   2.048   4.217   5.499  0.1433  0.1843 -0.0717
15284TIP3    H167267   2.015   4.229   5.410  2.1052 -1.1329 -1.0525
15284TIP3    H267268   1.984   4.160   5.541  0.6055 -1.5725 -1.6254
15285TIP3   OH267269   0.688   3.739   3.386 -0.0479  0.4569 -0.0893
15285TIP3    H167270   0.654   3.688   3.312  1.2892 -0.6850  0.0484
15285TIP3    H267271   0.764   3.784   3.351  1.0583 -0.6855  0.7225
15286TIP3   OH267272   5.940   3.872   2.969 -0.6048 -0.3128 -0.4846
15286TIP3    H167273   5.854   3.851   3.006 -0.4013 -0.6963 -0.2171
15286TIP3    H267274   5.946   3.967   2.974 -0.2579 -0.3896  1.2559
15287TIP3   OH267275   5.147   1.051  12.953  0.1468  0.1585 -0.3521
15287TIP3    H167276   5.062   1.071  12.992  0.4700  2.1226 -0.5628
15287TIP3    H267277   5.183   0.983  13.009 -0.4817  1.1225  1.2905
15288TIP3   OH267278   5.210   5.995  15.871 -0.3842  0.4057 -0.2581
15288TIP3    H167279   5.152   6.041  15.932  1.3123  0.2064  1.6128
15288TIP3    H267280   5.220   5.907  15.907  0.8693  0.3589 -0.6510
15289TIP3   OH267281   5.503   5.225   2.500  0.4259  0.4152  0.0219
15289TIP3    H167282   5.582   5.250   2.451 -1.4006  1.6259 -2.5124
15289TIP3    H267283   5.511   5.271   2.583  1.3676  2.3475 -1.0825
15290TIP3   OH267284   5.482   0.888   4.793  0.7465  0.0480  0.3000
15290TIP3    H167285   5.455   0.926   4.709 -0.4242 -0.6543  0.3377
15290TIP3    H267286   5.567   0.929   4.811  0.0384  1.8513 -0.1732
15291TIP3   OH267287   1.723   4.924  16.139 -0.4063 -0.8809  0.0778
15291TIP3    H167288   1.649   4.867  16.117 -1.4286  1.2173 -2.4484
15291TIP3    H267289   1.682   5.003  16.175  0.4883  0.4463 -1.6435
15292TIP3   OH267290   6.036   6.354  16.729 -0.2853  0.4716 -0.3728
15292TIP3    H167291   6.000   6.385  16.646  0.0512 -0.4159 -0.8612
15292TIP3    H267292   6.020   6.260  16.729  3.4208 -0.3322 -1.4094
15293TIP3   OH267293   4.953   3.386  15.361 -0.0631 -0.3590 -0.1954
15293TIP3    H167294   4.941   3.375  15.456 -0.7224 -1.0639 -0.3510
15293TIP3    H267295   5.014   3.459  15.353 -1.4898  0.9958  0.7344
15294TIP3   OH267296   5.572   6.542  11.722 -0.1525 -0.1250 -0.2986
15294TIP3    H167297   5.632   6.468  11.718  0.3123  0.2365 -0.1747
15294TIP3    H267298   5.626   6.615  11.754 -0.7576  0.0977  0.2452
15295TIP3   OH267299   3.995   2.209  12.532 -0.2904  0.1240 -0.4746
15295TIP3    H167300   4.001   2.145  12.462  3.6221 -0.9821  0.6401
15295TIP3    H267301   4.040   2.287  12.499  1.0094 -0.1796  0.4847
15296TIP3   OH267302   3.275   3.203  14.390 -0.1056 -0.1223 -0.4059
15296TIP3    H167303   3.299   3.229  14.479 -0.9928 -1.3521  0.2174
15296TIP3    H267304   3.321   3.121  14.376  0.3257  0.2469 -1.2470
15297TIP3   OH267305   6.524   5.995  11.447  0.4602 -0.0794  0.4209
15297TIP3    H167306   6.581   5.930  11.406  3.1037  3.2619 -1.7352
15297TIP3    H267307   6.487   6.044  11.374 -2.3893  0.2106  1.9253
15298TIP3   OH267308   1.285   1.716  10.756 -0.2353 -0.2218 -0.5493
15298TIP3    H167309   1.361   1.762  10.792 -1.0860  0.6301  0.1945
15298TIP3    H267310   1.236   1.784  10.709 -0.4266 -0.8180 -1.2336
15299TIP3   OH267311   4.193   3.567   5.223 -0.5046  0.8403 -0.3256
15299TIP3    H167312   4.217   3.486   5.178  0.2800  0.4939  0.6765
15299TIP3    H267313   4.112   3.545   5.270  1.1684 -0.3312  2.2719
15300TIP3   OH267314   2.588   0.423   3.524 -0.2044 -0.6908  0.1523
15300TIP3    H167315   2.567   0.451   3.613 -1.0301 -0.3970 -0.1209
15300TIP3    H267316   2.576   0.328   3.525 -0.8699 -0.6152  0.2011
15301TIP3   OH267317   0.924   5.239   0.451  0.7460  0.5639 -0.2236
15301TIP3    H167318   0.871   5.319   0.452  0.2418  0.2396  0.3744
15301TIP3    H267319   0.950   5.228   0.543  0.8660  0.0799 -0.3179
15302TIP3   OH267320   0.120   4.894   4.882  1.0764  0.1854  0.5739
15302TIP3    H167321   0.058   4.959   4.850  0.8070  0.3060  1.3276
15302TIP3    H267322   0.189   4.891   4.816  0.5623  0.4726  0.0187
15303TIP3   OH267323   2.664   1.844  11.327 -0.1750 -0.1050  0.1556
15303TIP3    H167324   2.612   1.774  11.289 -0.7393 -0.2153  1.1230
15303TIP3    H267325   2.728   1.800  11.383 -0.5021  0.1356  0.7302
15304TIP3   OH267326   0.439   0.835  12.580  0.1800 -0.0907  0.3083
15304TIP3    H167327   0.433   0.824  12.485 -0.9399 -1.3966  0.5027
15304TIP3    H267328   0.519   0.886  12.593  0.8749 -0.7065 -1.2805
15305TIP3   OH267329   4.037   0.396  14.884 -0.6904  0.2899 -0.1002
15305TIP3    H167330   4.024   0.483  14.922  2.0940 -0.8821  4.2673
15305TIP3    H267331   4.101   0.409  14.814  0.7372  1.7259  1.3825
15306TIP3   OH267332   5.734   5.052   5.743  0.1950  0.6023  0.0906
15306TIP3    H167333   5.661   5.069   5.802 -0.0763  1.5169 -0.4962
15306TIP3    H267334   5.783   4.981   5.785  0.0945  1.3282  1.4864
15307TIP3   OH267335   1.206   2.588   0.442  0.0007 -0.4079  0.0110
15307TIP3    H167336   1.116   2.555   0.435 -0.9029  2.0602 -1.4637
15307TIP3    H267337   1.233   2.602   0.351  1.2099  0.5069  0.4853
15308TIP3   OH267338   6.020   1.653  15.728  0.0337 -0.4396 -0.1426
15308TIP3    H167339   6.097   1.679  15.780 -2.8573  2.1581  3.3633
15308TIP3    H267340   5.989   1.735  15.690 -1.6789 -1.1995 -0.4634
15309TIP3   OH267341   5.058   4.966  16.942 -0.0731  0.1255 -0.0851
15309TIP3    H167342   5.029   4.875  16.949  0.2937 -0.0820 -1.0810
15309TIP3    H267343   5.144   4.967  16.984  0.1642 -0.1181 -0.5565
15310TIP3   OH267344   5.804   4.860  12.437 -0.6457 -0.4180  0.1557
15310TIP3    H167345   5.861   4.785  12.417  0.1498  0.0859  0.4576
15310TIP3    H267346   5.865   4.929  12.462 -1.4603 -0.2672  1.8794
15311TIP3   OH267347   4.062   5.350  11.233  0.3873  0.2726  0.4622
15311TIP3    H167348   3.998   5.295  11.188  0.7125  0.1252  0.1709
15311TIP3    H267349   4.113   5.390  11.162  0.5075  0.5206  0.6857
15312TIP3   OH267350   6.689   5.862  13.195  0.1471 -0.0042  0.6924
15312TIP3    H167351   6.719   5.919  13.266 -1.9952  1.2052  0.7110
15312TIP3    H267352   6.681   5.775  13.236  1.8534 -0.0100  1.0888
15313TIP3   OH267353   4.697   0.431  15.049  0.5079 -1.0294  0.4901
15313TIP3    H167354   4.778   0.468  15.084 -0.2223  0.2619  0.8814
15313TIP3    H267355   4.720   0.342  15.023  1.7211 -1.1340  1.8298
15314TIP3   OH267356   3.322   2.050  14.067  0.4575 -0.2148 -0.2552
15314TIP3    H167357   3.310   2.145  14.060 -1.0292 -0.5009 -2.1718
15314TIP3    H267358   3.389   2.030  14.001  0.0095 -0.6311 -0.5835
15315TIP3   OH267359   3.797   0.112  17.230 -0.4146  0.1439 -0.2574
15315TIP3    H167360   3.857   0.181  17.204  0.2267  0.1988  1.2527
15315TIP3    H267361   3.728   0.158  17.278  1.0740 -0.3866  2.5679
15316TIP3   OH267362   2.225   1.076   0.895  0.0829  0.1811 -0.7658
15316TIP3    H167363   2.285   1.118   0.833  0.2249  1.1047 -0.0216
15316TIP3    H267364   2.281   1.022   0.950  0.2579  1.1216 -0.0068
15317TIP3   OH267365   0.798   2.351   5.916  0.1562  0.1486  0.2738
15317TIP3    H167366   0.807   2.357   6.011  1.0638 -0.1535  0.2217
15317TIP3    H267367   0.791   2.442   5.887 -1.3710  0.1896  0.7234
15318TIP3   OH267368   2.308   6.510   2.232  0.2907 -0.3304 -0.0437
15318TIP3    H167369   2.214   6.513   2.219  0.0767 -2.4008  0.6454
15318TIP3    H267370   2.343   6.581   2.177 -1.6956  0.9741  0.3086
15319TIP3   OH267371   5.582   1.619  12.629 -0.0274 -0.0544  0.4398
15319TIP3    H167372   5.613   1.545  12.682 -0.2265 -0.6435 -0.2548
15319TIP3    H267373   5.564   1.688  12.693  5.6704  1.5595  0.8243
15320TIP3   OH267374   0.081   1.491  13.853 -0.7231 -0.1368 -0.1296
15320TIP3    H167375   0.151   1.470  13.792 -0.4092 -1.2607  0.5835
15320TIP3    H267376   0.094   1.584  13.873 -0.3432  0.0382 -1.1353
15321TIP3   OH267377   0.466   2.810  11.821  0.3441  0.1434  0.2274
15321TIP3    H167378   0.476   2.905  11.821  0.5110  0.1283 -0.1437
15321TIP3    H267379   0.504   2.782  11.737 -1.0971 -0.1018 -0.3806
15322TIP3   OH267380   1.761   5.019   5.362  0.2183 -0.3492 -0.0897
15322TIP3    H167381   1.810   5.003   5.443  0.5001 -0.8228 -0.3496
15322TIP3    H267382   1.675   4.980   5.377  0.1845 -0.2123  0.0744
15323TIP3   OH267383   4.429   4.007   1.557  0.3579 -0.1669  0.3588
15323TIP3    H167384   4.405   3.987   1.647 -0.5937  0.8416  0.3527
15323TIP3    H267385   4.520   4.036   1.562  1.9176 -4.3362  0.3415
15324TIP3   OH267386   0.540   0.411  12.791  0.2022  0.3463 -0.2842
15324TIP3    H167387   0.475   0.479  12.808 -0.9784 -0.9231  0.4624
15324TIP3    H267388   0.495   0.348  12.735  1.2274  0.0765 -0.8416
15325TIP3   OH267389   4.608   5.871   1.365  0.2275  0.1182 -0.1460
15325TIP3    H167390   4.589   5.957   1.327  1.4892  0.2796 -0.4332
15325TIP3    H267391   4.559   5.810   1.309 -1.6339  0.6988  0.7514
15326TIP3   OH267392   2.548   1.834   5.308  0.2481 -0.1518 -0.5012
15326TIP3    H167393   2.461   1.826   5.348  0.5977  2.3269  0.9393
15326TIP3    H267394   2.606   1.785   5.366 -0.1196 -1.7829 -1.4477
15327TIP3   OH267395   6.008   4.619   3.441  0.0052 -0.2228  0.1242
15327TIP3    H167396   5.935   4.614   3.503 -0.5330  0.8602 -0.3896
15327TIP3    H267397   6.026   4.528   3.418 -0.4512 -0.5797  1.0970
15328TIP3   OH267398   0.712   5.881  10.925 -0.3839  0.4353 -0.5208
15328TIP3    H167399   0.775   5.929  10.872 -0.1681 -0.3707 -1.0124
15328TIP3    H267400   0.653   5.840  10.861 -3.0813  3.2365 -0.1123
15329TIP3   OH267401   0.554   1.457  12.381  0.1238 -0.3758 -0.8924
15329TIP3    H167402   0.545   1.553  12.379  0.1869 -0.3466 -0.0210
15329TIP3    H267403   0.648   1.441  12.373  0.3181 -0.2807  0.8452
15330TIP3   OH267404   4.054   6.002   6.226  0.4336 -0.2303 -1.0918
15330TIP3    H167405   4.039   6.006   6.131  2.5140  2.2582 -1.4080
15330TIP3    H267406   4.091   6.088   6.248 -1.4363 -0.1230  2.2794
15331TIP3   OH267407   6.100   3.227  15.501  0.5013 -0.2163  0.5006
15331TIP3    H167408   6.009   3.224  15.529  0.6668  0.4350  1.1547
15331TIP3    H267409   6.107   3.161  15.433 -0.1299 -1.2367  1.4054
15332TIP3   OH267410   3.152   6.127  13.294 -0.5438 -0.2814  0.3185
15332TIP3    H167411   3.185   6.185  13.362 -0.4698 -0.7514  0.6833
15332TIP3    H267412   3.144   6.042  13.336  1.5936 -1.1135 -0.7855
15333TIP3   OH267413   3.710   0.840  11.730 -0.3775  0.6234 -0.2334
15333TIP3    H167414   3.655   0.788  11.671 -0.3631  0.1330  0.1828
15333TIP3    H267415   3.683   0.931  11.714 -2.0950  0.3342  0.7470
15334TIP3   OH267416   1.824   3.280  13.690  0.3511 -0.0321  0.1324
15334TIP3    H167417   1.889   3.346  13.711 -0.2418  0.0973  1.7060
15334TIP3    H267418   1.873   3.211  13.645  1.3097  0.6549  0.1058
15335TIP3   OH267419   0.034   5.025  13.384  0.5644 -0.3260  0.7827
15335TIP3    H167420   0.119   4.983  13.399  0.6165 -1.2331 -1.6276
15335TIP3    H267421  -0.028   4.976  13.438  1.2952 -0.8046  1.1966
15336TIP3   OH267422   4.865   2.416   3.215  0.3185 -0.0596 -0.4149
15336TIP3    H167423   4.795   2.478   3.237  1.1050  0.4298  0.8249
15336TIP3    H267424   4.883   2.432   3.122 -0.8348  0.1939 -0.6017
15337TIP3   OH267425   1.823   4.636  16.945 -0.2864 -0.2340 -0.4646
15337TIP3    H167426   1.816   4.582  17.023 -1.1794 -0.1644 -0.4959
15337TIP3    H267427   1.867   4.715  16.975  2.1208 -1.4014 -0.6431
15338TIP3   OH267428   5.923   5.173  12.249  0.3288  0.2955  0.5556
15338TIP3    H167429   5.869   5.223  12.187  1.1983  1.3911  0.6400
15338TIP3    H267430   5.928   5.086  12.211 -0.3672  0.5483 -0.1582
15339TIP3   OH267431   4.980   2.157  14.176  0.3977  0.1458  0.1890
15339TIP3    H167432   4.941   2.110  14.250  2.5060 -0.7113  0.8338
15339TIP3    H267433   5.053   2.205  14.215  0.8839  0.5533 -1.1770
15340TIP3   OH267434   0.781   1.371  12.691 -0.0242 -0.2225 -0.0204
15340TIP3    H167435   0.813   1.452  12.650 -1.4154 -0.0355 -0.8202
15340TIP3    H267436   0.832   1.363  12.771  1.3386  0.5251 -0.7634
15341TIP3   OH267437   0.210   5.044  16.276  0.6988  0.2984  0.5281
15341TIP3    H167438   0.240   5.014  16.190 -0.2795  0.4402  0.1229
15341TIP3    H267439   0.154   4.973  16.308  2.6909 -0.6841  1.9948
15342TIP3   OH267440   2.563   5.141   0.937  0.0919  0.3091  0.1541
15342TIP3    H167441   2.498   5.204   0.968 -0.9378 -0.3880 -0.5190
15342TIP3    H267442   2.569   5.156   0.843 -0.5427 -0.8874 -0.1090
15343TIP3   OH267443   1.160   3.429  17.387 -0.2790 -0.2767 -0.1794
15343TIP3    H167444   1.218   3.385  17.450 -0.4278 -1.4203 -0.8154
15343TIP3    H267445   1.219   3.469  17.324 -0.1535 -0.3725 -0.1242
15344TIP3   OH267446   3.010   3.264  16.078 -0.1544 -0.1684  0.0405
15344TIP3    H167447   3.082   3.303  16.128 -0.4426  0.6107 -0.1437
15344TIP3    H267448   2.972   3.200  16.137  1.3575 -1.3713 -0.2243
15345TIP3   OH267449   2.858   3.785   2.793  0.1557 -0.2539  0.7164
15345TIP3    H167450   2.781   3.732   2.770 -2.3607  3.2879  0.1606
15345TIP3    H267451   2.842   3.813   2.883  1.4578 -0.4496  1.0234
15346TIP3   OH267452   4.291   5.655  12.198 -0.0723 -0.1767 -0.6888
15346TIP3    H167453   4.380   5.648  12.232 -0.2167  1.3211  0.0611
15346TIP3    H267454   4.238   5.678  12.274 -1.3205 -2.1024 -0.8912
15347TIP3   OH267455   0.101   0.204   3.724  0.0164 -0.2059  0.5024
15347TIP3    H167456   0.030   0.250   3.679  0.7575  1.9286  1.3951
15347TIP3    H267457   0.161   0.180   3.654 -1.4023 -1.8243 -0.2388
15348TIP3   OH267458   1.091   1.973  11.134  0.1812  0.2172  0.2824
15348TIP3    H167459   1.072   2.020  11.214 -0.1670  0.0294  0.3136
15348TIP3    H267460   1.181   1.997  11.112  0.3533  0.1074  0.8414
15349TIP3   OH267461   0.436   5.061   3.630 -0.1756  0.4240 -0.1037
15349TIP3    H167462   0.344   5.036   3.627 -0.2138  0.6500 -1.5337
15349TIP3    H267463   0.473   5.010   3.703 -0.7016 -2.2451 -1.5687
15350TIP3   OH267464   6.172   2.539  12.027  0.4866 -0.4863  0.3008
15350TIP3    H167465   6.128   2.487  12.094 -0.0320 -0.2849  0.1213
15350TIP3    H267466   6.260   2.501  12.020  0.2744 -1.0179  0.5248
15351TIP3   OH267467   3.202   3.006  12.573 -0.0273  0.5804  0.1934
15351TIP3    H167468   3.220   3.095  12.602 -1.5501  0.9197  0.2042
15351TIP3    H267469   3.287   2.971  12.545  0.9860  1.2499  2.2443
15352TIP3   OH267470   3.768   0.337  13.167 -0.4902  0.1815 -0.5014
15352TIP3    H167471   3.760   0.250  13.208 -0.7633 -0.0191 -0.9717
15352TIP3    H267472   3.806   0.319  13.081  0.5839  0.6530 -0.1509
15353TIP3   OH267473   1.519   5.158  14.061  0.5724  1.0312  0.1159
15353TIP3    H167474   1.448   5.112  14.017 -0.0566 -0.0373  2.1253
15353TIP3    H267475   1.597   5.105  14.042  0.0642 -0.2531  1.3579
15354TIP3   OH267476   2.923   0.291   5.058 -0.1734 -0.1894 -0.3079
15354TIP3    H167477   2.863   0.249   4.997  1.5587 -0.5188 -1.8893
15354TIP3    H267478   2.971   0.355   5.005  3.2759 -2.3052 -0.0636
15355TIP3   OH267479   0.907   5.131   4.059  0.1833 -0.5670 -0.0214
15355TIP3    H167480   0.833   5.087   4.018 -1.2121  0.2559  1.4926
15355TIP3    H267481   0.926   5.079   4.137  1.1166 -0.6751 -0.3052
15356TIP3   OH267482   2.756   5.178  12.036 -0.6118  0.1849  0.3347
15356TIP3    H167483   2.694   5.106  12.050  0.1179 -0.7357 -1.0223
15356TIP3    H267484   2.821   5.143  11.975  0.1215  1.7957  0.1420
15357TIP3   OH267485   5.180   6.462  11.868  0.0793  0.0029  0.5252
15357TIP3    H167486   5.109   6.523  11.853  0.0805 -0.0273  0.3983
15357TIP3    H267487   5.153   6.382  11.823 -1.1222 -0.9748  2.8051
15358TIP3   OH267488   2.298   5.665   1.603 -0.0526  0.6685  0.0020
15358TIP3    H167489   2.383   5.649   1.561  1.5720 -1.7070  3.6356
15358TIP3    H267490   2.259   5.578   1.612 -1.4526  1.3624  1.0956
15359TIP3   OH267491   3.799   3.753   0.839 -0.4166  0.1986  0.6172
15359TIP3    H167492   3.834   3.666   0.860 -0.6685  0.0798  0.5442
15359TIP3    H267493   3.718   3.758   0.888  0.3615  1.0061  1.8795
15360TIP3   OH267494   0.912   1.239   2.508  0.2495 -0.1942 -0.1828
15360TIP3    H167495   0.891   1.197   2.424  0.7246  1.2028 -1.0201
15360TIP3    H267496   0.901   1.332   2.492  1.4689  0.1749  0.9873
15361TIP3   OH267497   5.806   4.681   5.629 -0.6992  0.0404 -0.0814
15361TIP3    H167498   5.796   4.717   5.716  0.4915 -0.6821  0.3939
15361TIP3    H267499   5.884   4.724   5.593 -1.1786  0.3366 -0.7891
15362TIP3   OH267500   5.063   2.838   1.337  0.4180 -0.1148  0.1569
15362TIP3    H167501   4.981   2.817   1.382  0.2716  0.4994  0.1831
15362TIP3    H267502   5.117   2.760   1.349 -0.5353 -0.9503 -0.7770
15363TIP3   OH267503   6.342   6.172   2.876  0.0310  0.0203  0.2920
15363TIP3    H167504   6.400   6.241   2.846 -3.2624  2.3728 -1.3087
15363TIP3    H267505   6.302   6.207   2.956  1.2895 -1.8936  1.8403
15364TIP3   OH267506   1.126   6.432  15.255  0.1930  0.2094 -0.2635
15364TIP3    H167507   1.052   6.467  15.305  1.2352  1.5552  0.4239
15364TIP3    H267508   1.159   6.361  15.309 -0.1220  0.1218 -0.1840
15365TIP3   OH267509   3.551   3.779   3.534 -0.0208 -0.6270 -0.1646
15365TIP3    H167510   3.587   3.741   3.453 -1.3014 -0.7417 -0.7016
15365TIP3    H267511   3.480   3.720   3.558 -0.9038  0.4712 -0.0381
15366TIP3   OH267512   0.269   2.962  12.019  0.3452  0.3023 -0.3209
15366TIP3    H167513   0.346   2.955  11.963  0.4896  0.0993 -0.0967
15366TIP3    H267514   0.214   3.026  11.975 -1.9987 -3.4689 -3.6804
15367TIP3   OH267515   3.673   1.751  17.148  0.1978  0.2100  0.1876
15367TIP3    H167516   3.761   1.726  17.121  0.0893  0.2661 -0.2234
15367TIP3    H267517   3.645   1.817  17.085  0.4224  1.2880  1.1897
15368TIP3   OH267518   6.538   3.537   3.317 -0.0584 -0.0514 -0.0101
15368TIP3    H167519   6.462   3.503   3.271 -0.0224 -0.4801  0.2447
15368TIP3    H267520   6.543   3.629   3.290 -0.8348  0.0616  0.2008
15369TIP3   OH267521   1.204   6.294   3.154  0.2908  0.1269  0.0808
15369TIP3    H167522   1.129   6.257   3.108  1.3834 -2.4145  0.1463
15369TIP3    H267523   1.231   6.369   3.101 -1.7158  0.5644 -0.3936
15370TIP3   OH267524   3.156   2.149   5.430 -0.6849 -0.4466  0.8816
15370TIP3    H167525   3.233   2.094   5.421  0.0942  0.3634  2.2572
15370TIP3    H267526   3.187   2.238   5.413 -1.0193  0.0341  2.5243
15371TIP3   OH267527   3.532   0.823  12.501  0.1421 -0.3335  0.2749
15371TIP3    H167528   3.466   0.754  12.510 -1.5708  1.3455  1.5199
15371TIP3    H267529   3.613   0.776  12.482 -0.9570 -2.6734  0.9061
15372TIP3   OH267530   3.320   2.840  17.134  0.0412  0.0835 -0.7348
15372TIP3    H167531   3.321   2.925  17.091  0.9449 -0.0865 -1.0834
15372TIP3    H267532   3.404   2.835  17.180 -0.5840 -0.0538  0.4403
15373TIP3   OH267533   0.263   2.199   5.472  0.2153 -0.2046  0.3719
15373TIP3    H167534   0.226   2.203   5.384 -0.1399  0.8642  0.5528
15373TIP3    H267535   0.290   2.289   5.490 -0.8810 -0.1429  1.8374
15374TIP3   OH267536   4.377   1.205   2.188  0.5612  0.1956 -0.2045
15374TIP3    H167537   4.319   1.246   2.252 -0.3176 -0.0424 -0.8328
15374TIP3    H267538   4.339   1.228   2.103  2.2374  1.3234 -0.7107
15375TIP3   OH267539   3.070   2.188   6.636  0.1899  0.2032 -0.9359
15375TIP3    H167540   3.076   2.179   6.731 -0.7313  3.2214 -0.4970
15375TIP3    H267541   3.121   2.114   6.602  2.7050  0.4346  1.8984
15376TIP3   OH267542   1.500   1.437   0.573 -0.1414  0.1141  0.1368
15376TIP3    H167543   1.421   1.439   0.627 -1.3813 -0.9680 -1.5318
15376TIP3    H267544   1.468   1.451   0.484  1.6378  0.2308 -0.5134
15377TIP3   OH267545   0.012   1.667   3.343 -0.1885  0.2405  0.2234
15377TIP3    H167546   0.033   1.574   3.350 -2.1787 -0.3495 -0.8931
15377TIP3    H267547   0.097   1.712   3.353  1.0036 -1.7383 -0.4681
15378TIP3   OH267548   5.620   3.519  13.221  0.5209 -0.5668 -0.2821
15378TIP3    H167549   5.615   3.424  13.225 -0.9899 -0.4857  0.2064
15378TIP3    H267550   5.605   3.549  13.311  1.5574  0.1390 -0.3120
15379TIP3   OH267551   3.610   1.915  16.943  0.4556 -0.0246 -0.7924
15379TIP3    H167552   3.668   1.959  16.881 -0.4621  0.7505 -1.1210
15379TIP3    H267553   3.555   1.859  16.888  1.1995 -1.1335 -0.4360
15380TIP3   OH267554   4.052   0.732   5.163  0.0091 -0.0191  0.1952
15380TIP3    H167555   3.961   0.702   5.157 -0.1490  0.6656 -1.2582
15380TIP3    H267556   4.075   0.721   5.256 -1.3806 -0.6760  0.4867
15381TIP3   OH267557   0.102   1.998  13.836 -0.1608 -0.2597 -0.1884
15381TIP3    H167558   0.025   1.990  13.780  0.3985 -1.3038 -0.8480
15381TIP3    H267559   0.152   1.918  13.819  0.9609  0.2971  0.3877
15382TIP3   OH267560   0.792   3.271   0.490  0.4853 -0.2307 -0.0919
15382TIP3    H167561   0.829   3.321   0.417 -0.8205  3.6354  1.6449
15382TIP3    H267562   0.868   3.248   0.543  1.0789  2.7752  0.5866
15383TIP3   OH267563   2.423   6.486   1.356 -0.1096 -0.2450  0.5809
15383TIP3    H167564   2.341   6.485   1.306  0.4851 -2.2104 -0.4998
15383TIP3    H267565   2.482   6.539   1.303  0.0058 -0.8728  0.0639
15384TIP3   OH267566   4.591   4.799  14.026  0.3254 -0.0154  0.2358
15384TIP3    H167567   4.523   4.852  14.066  0.4685 -0.6847  1.4402
15384TIP3    H267568   4.623   4.851  13.952 -0.7979  0.7318  0.2572
15385TIP3   OH267569   2.547   2.071   4.233  0.4223 -0.4384  0.1629
15385TIP3    H167570   2.630   2.023   4.240  2.7816  2.5125 -3.4630
15385TIP3    H267571   2.516   2.053   4.145 -2.3180 -0.6110  1.0883
15386TIP3   OH267572   2.425   2.561  12.566 -0.0607 -0.2472  0.2626
15386TIP3    H167573   2.366   2.549  12.492  0.7616  0.8069 -0.6008
15386TIP3    H267574   2.512   2.540  12.530  0.5669  1.8935  0.4341
15387TIP3   OH267575   0.101   5.735  15.124 -0.1818  0.1498 -0.2690
15387TIP3    H167576   0.059   5.759  15.207 -0.9338  0.0634 -0.6232
15387TIP3    H267577   0.069   5.647  15.106 -0.8776  0.5847 -1.2060
15388TIP3   OH267578   0.825   3.600  16.632 -0.2335  0.8842  0.2268
15388TIP3    H167579   0.801   3.577  16.722  1.7637 -0.4808  0.4606
15388TIP3    H267580   0.783   3.532  16.579  0.6201  0.2192  0.3783
15389TIP3   OH267581   0.721   0.309  16.155  0.3813  0.8214  0.0826
15389TIP3    H167582   0.751   0.338  16.068 -0.0305 -2.3719 -1.2644
15389TIP3    H267583   0.627   0.292  16.143  0.1841  0.9679  1.3571
15390TIP3   OH267584   5.249   3.183  11.956  0.1500  0.3959 -0.3184
15390TIP3    H167585   5.282   3.197  11.868  1.2276  1.6246  0.2631
15390TIP3    H267586   5.252   3.088  11.967 -0.0239  0.2247 -1.6040
15391TIP3   OH267587   5.533   6.430   1.459  0.2342 -0.1188 -0.1774
15391TIP3    H167588   5.589   6.364   1.501 -0.6946  0.1800  1.6534
15391TIP3    H267589   5.592   6.503   1.440  0.6367 -0.0831  1.0755
15392TIP3   OH267590   1.684   0.665   2.582  0.2880  0.5098 -0.4472
15392TIP3    H167591   1.666   0.751   2.621  1.3765  0.3304  0.4999
15392TIP3    H267592   1.756   0.629   2.635 -2.4363 -2.5667  1.6205
15393TIP3   OH267593   3.235   4.392  17.274 -0.1655  0.0011 -0.5125
15393TIP3    H167594   3.174   4.322  17.297 -1.1231 -0.5031 -3.9457
15393TIP3    H267595   3.319   4.362  17.307 -1.0295 -1.4509  0.4816
15394TIP3   OH267596   2.760   5.590  14.446  0.1844 -0.3604  0.6697
15394TIP3    H167597   2.680   5.633  14.474  1.1153  1.0353  1.3267
15394TIP3    H267598   2.734   5.537  14.371 -1.3135  0.1866  0.7697
15395TIP3   OH267599   0.929   3.212  17.383 -0.0837  0.3579 -0.4460
15395TIP3    H167600   0.954   3.144  17.446  1.6968  1.1854 -0.2010
15395TIP3    H267601   1.003   3.273  17.382 -1.7164  2.4523 -0.4951
15396TIP3   OH267602   6.685   0.394   2.156 -0.3395 -0.2718 -0.5324
15396TIP3    H167603   6.675   0.299   2.147 -1.6882 -0.1495 -0.5928
15396TIP3    H267604   6.778   0.410   2.138 -0.0766 -1.5755 -0.4849
15397TIP3   OH267605   5.466   3.425  16.314 -0.0286 -0.3183 -0.4820
15397TIP3    H167606   5.461   3.404  16.408 -1.3194 -0.3867 -0.5526
15397TIP3    H267607   5.557   3.451  16.301  0.3995 -1.1545  0.6127
15398TIP3   OH267608   0.047   2.666  15.575 -0.6093  0.3185 -0.5877
15398TIP3    H167609  -0.023   2.665  15.509 -0.8772 -1.7342 -0.3236
15398TIP3    H267610   0.054   2.575  15.605  1.2055  0.7426  0.4408
15399TIP3   OH267611   0.143   0.777   3.873  0.4423 -0.0523  0.7072
15399TIP3    H167612   0.048   0.783   3.877  0.4403  0.0648  0.5185
15399TIP3    H267613   0.159   0.718   3.799  0.5336  0.6627  0.1482
15400TIP3   OH267614   0.623   4.455   6.121 -0.2040  0.3483 -0.2497
15400TIP3    H167615   0.711   4.451   6.159  0.9854 -1.1496 -2.9234
15400TIP3    H267616   0.623   4.535   6.068 -0.5894  0.5324  0.0237
15401TIP3   OH267617   1.587   1.992   4.778 -0.3667  0.0141  0.3057
15401TIP3    H167618   1.559   1.910   4.737  0.4153 -0.3297  0.4400
15401TIP3    H267619   1.513   2.052   4.766 -1.4553 -1.0690  1.2788
15402TIP3   OH267620   2.731   0.124   4.345 -0.4057 -0.7500  0.0069
15402TIP3    H167621   2.791   0.134   4.418 -0.8684 -0.6352  0.3738
15402TIP3    H267622   2.705   0.213   4.322 -0.9819 -0.8304  0.3136
15403TIP3   OH267623   5.633   4.962   5.074  0.0301  0.2154 -0.0957
15403TIP3    H167624   5.712   4.927   5.116  0.1322 -0.9378 -1.1982
15403TIP3    H267625   5.664   5.004   4.994 -0.3753  0.5902 -0.0587
15404TIP3   OH267626   6.503   0.759  17.061 -0.2676 -0.0949  0.3180
15404TIP3    H167627   6.562   0.766  17.136  0.4422 -0.0221 -0.2392
15404TIP3    H267628   6.517   0.840  17.012 -1.5144  0.3517  0.6559
15405TIP3   OH267629   6.658   6.663  17.367  0.3715  0.7601 -0.1418
15405TIP3    H167630   6.647   6.750  17.407  1.0348  0.9007 -0.2523
15405TIP3    H267631   6.726   6.676  17.301 -0.4662  0.4532 -1.0925
15406TIP3   OH267632   4.737   3.269  14.911  0.5245 -0.4479 -0.0004
15406TIP3    H167633   4.714   3.361  14.903 -0.5993 -0.7089  0.1412
15406TIP3    H267634   4.720   3.248  15.003 -1.2922 -1.3246 -0.5033
15407TIP3   OH267635   0.046   4.985  15.199  0.8138 -0.1025 -0.1185
15407TIP3    H167636  -0.036   5.030  15.181  1.1079 -0.5836 -3.2889
15407TIP3    H267637   0.023   4.892  15.200  1.3096 -0.2481 -1.1709
15408TIP3   OH267638   6.483   1.127   0.010  0.7514  0.3885  0.0859
15408TIP3    H167639   6.415   1.137   0.077  0.5664  1.4700 -0.2486
15408TIP3    H267640   6.554   1.080   0.055 -0.7509 -2.1420  0.0526
15409TIP3   OH267641   2.499   0.792  12.969 -0.4303  0.4569  0.2361
15409TIP3    H167642   2.466   0.875  13.004  1.3317  1.4698 -0.4022
15409TIP3    H267643   2.523   0.812  12.878  0.6549 -0.5512  0.2795
15410TIP3   OH267644   6.630   3.271  16.281  0.1585 -0.0983  0.2850
15410TIP3    H167645   6.683   3.247  16.357  0.9227  0.2774 -0.1077
15410TIP3    H267646   6.570   3.197  16.269 -0.6577  0.2893  1.8291
15411TIP3   OH267647   1.995   3.443   3.879  0.0256  0.0690 -0.2847
15411TIP3    H167648   1.907   3.449   3.842 -0.0639 -0.2553 -0.1331
15411TIP3    H267649   2.053   3.472   3.809 -0.2080  0.3453 -0.3642
15412TIP3   OH267650   6.484   1.542  13.574 -0.2151  0.2279  0.5496
15412TIP3    H167651   6.558   1.482  13.564  1.3042  1.7735  1.7892
15412TIP3    H267652   6.453   1.527  13.663 -2.0447 -1.0604 -0.2706
15413TIP3   OH267653   4.062   1.323   2.472 -0.0260 -0.2869  0.0925
15413TIP3    H167654   4.021   1.258   2.529 -0.3873  0.1873  0.3874
15413TIP3    H267655   4.037   1.297   2.383 -1.3604  0.2365  0.2905
15414TIP3   OH267656   1.382   6.676   4.880 -0.5172 -0.3987 -0.4339
15414TIP3    H167657   1.366   6.646   4.791  0.2277 -2.9072  0.1964
15414TIP3    H267658   1.418   6.765   4.869 -0.6796 -0.5393 -2.5817
15415TIP3   OH267659   0.305   3.284   4.457  0.9297 -0.1193  0.0543
15415TIP3    H167660   0.274   3.273   4.367  0.9188 -2.6437  0.2991
15415TIP3    H267661   0.225   3.293   4.509  0.7796 -1.5877  0.1116
15416TIP3   OH267662   5.487   5.971  15.380  0.1710  0.4624 -0.4008
15416TIP3    H167663   5.435   5.983  15.460  1.5335  3.6443  0.1856
15416TIP3    H267664   5.456   5.889  15.343 -2.6787  0.3893  1.7837
15417TIP3   OH267665   0.004   3.703   2.610 -0.4711  0.3881  0.4306
15417TIP3    H167666   0.095   3.733   2.607 -0.5588  0.6142  0.0393
15417TIP3    H267667   0.010   3.608   2.600 -0.3836  0.5637 -1.5368
15418TIP3   OH267668   5.901   6.588   5.461  0.0725  0.3264  0.1641
15418TIP3    H167669   5.861   6.643   5.395  0.7972  0.0868 -0.4874
15418TIP3    H267670   5.827   6.554   5.512 -0.6233 -0.6297 -1.4082
15419TIP3   OH267671   4.285   2.034   4.142  0.2125  0.3149 -0.2211
15419TIP3    H167672   4.343   1.958   4.139 -0.7520 -0.4366 -0.0418
15419TIP3    H267673   4.300   2.078   4.058  1.2377  0.2929 -0.0670
15420TIP3   OH267674   1.142   6.185   4.424 -0.1588 -0.3849 -0.4821
15420TIP3    H167675   1.099   6.169   4.341 -0.1958  2.2829 -1.0622
15420TIP3    H267676   1.209   6.251   4.405 -0.7628  0.9860  1.6992
15421TIP3   OH267677   6.256   1.316  13.715 -0.0395 -0.4276 -0.4581
15421TIP3    H167678   6.170   1.280  13.737  0.5237 -3.0416 -2.0605
15421TIP3    H267679   6.256   1.323  13.619  0.2402  3.2549 -0.3115
15422TIP3   OH267680   0.519   2.280  13.128 -0.2068  0.4898  0.1283
15422TIP3    H167681   0.541   2.372  13.137  0.5436  0.4796 -1.3676
15422TIP3    H267682   0.479   2.273  13.041 -4.4003  0.1401  1.8502
15423TIP3   OH267683   0.361   2.866   3.435 -0.3824 -0.3834 -0.5541
15423TIP3    H167684   0.397   2.873   3.523  0.1735  0.9354 -0.8638
15423TIP3    H267685   0.407   2.934   3.385 -1.1164 -0.7164 -1.7141
15424TIP3   OH267686   4.154   1.394   0.379  0.2200  0.1913  0.0223
15424TIP3    H167687   4.157   1.444   0.460  0.7603 -0.4678  0.4117
15424TIP3    H267688   4.109   1.452   0.317 -0.0736  0.7482  0.7477
15425TIP3   OH267689   5.451   5.182  16.163 -0.6735  0.0930 -0.2354
15425TIP3    H167690   5.360   5.211  16.168 -1.0164 -1.0913  1.3151
15425TIP3    H267691   5.499   5.246  16.216 -1.0286 -0.6698  1.0546
15426TIP3   OH267692   0.563   1.892  15.002  0.0051 -0.6595  0.4780
15426TIP3    H167693   0.624   1.833  14.958  0.7030  0.6868 -0.4056
15426TIP3    H267694   0.615   1.934  15.070 -0.1778 -0.2210  0.3499
15427TIP3   OH267695   6.290   3.967  11.448 -0.1161  0.4433 -0.2851
15427TIP3    H167696   6.203   3.992  11.479 -0.5743  1.0894 -1.9714
15427TIP3    H267697   6.286   3.980  11.353  2.4327  2.4649 -0.2335
15428TIP3   OH267698   2.504   3.375   5.030  0.0104 -0.0365  0.3660
15428TIP3    H167699   2.518   3.464   5.060 -2.0276  0.7322 -0.7455
15428TIP3    H267700   2.493   3.383   4.935  1.6639 -1.7627 -0.0473
15429TIP3   OH267701   5.680   0.918   0.063  0.0696  0.0769 -0.8677
15429TIP3    H167702   5.743   0.846   0.073 -1.0347 -0.7144  0.8081
15429TIP3    H267703   5.720   0.991   0.111 -0.8877 -0.8733  1.5120
15430TIP3   OH267704   0.036   6.306  12.586 -0.3027 -0.2498  0.1896
15430TIP3    H167705   0.113   6.263  12.548 -0.8506 -0.6969 -0.4480
15430TIP3    H267706   0.070   6.383  12.631  0.4268  0.0431 -0.8309
15431TIP3   OH267707   3.796   0.451  15.596 -0.5896  0.1380 -0.2545
15431TIP3    H167708   3.833   0.430  15.510  0.9915 -2.2886  0.8985
15431TIP3    H267709   3.872   0.466  15.652 -1.4398 -1.1294  1.3293
15432TIP3   OH267710   3.049   1.667   3.999 -0.2613  0.2513 -0.0704
15432TIP3    H167711   3.028   1.606   3.928 -0.5299  0.2054  0.0440
15432TIP3    H267712   3.110   1.730   3.960 -2.2359  1.6674 -1.0719
15433TIP3   OH267713   1.674   6.686  16.701 -0.6838 -0.0360  0.2438
15433TIP3    H167714   1.742   6.678  16.634 -2.6687 -0.4253 -1.8541
15433TIP3    H267715   1.720   6.722  16.777  1.8903 -0.5087 -0.9664
15434TIP3   OH267716   0.355   4.000   2.881 -0.3808  0.1345 -0.0416
15434TIP3    H167717   0.327   3.975   2.969 -0.3285 -1.3856 -0.4374
15434TIP3    H267718   0.430   4.057   2.895 -0.3854 -0.0838  0.9042
15435TIP3   OH267719   0.108   5.330   3.163 -0.0106  0.4152  0.3978
15435TIP3    H167720   0.128   5.251   3.213 -1.7822 -0.1634  0.2897
15435TIP3    H267721   0.179   5.338   3.099  1.9485  0.8043  2.5135
15436TIP3   OH267722   0.396   4.325   0.243 -0.2094  0.2915  0.3593
15436TIP3    H167723   0.481   4.292   0.214 -1.5755 -3.2106 -0.1201
15436TIP3    H267724   0.411   4.352   0.334  1.2996 -0.8530  0.4994
15437TIP3   OH267725   4.098   4.603   4.512 -0.0134 -0.4437  0.3485
15437TIP3    H167726   4.096   4.544   4.437  0.0534  0.1009 -0.0902
15437TIP3    H267727   4.116   4.546   4.587  2.6461 -0.6765 -0.3709
15438TIP3   OH267728   1.887   5.058  14.756 -0.3555  0.0756  0.8150
15438TIP3    H167729   1.814   5.000  14.735 -1.2344  1.6314 -0.7180
15438TIP3    H267730   1.961   5.022  14.707 -0.7713 -0.0303  0.2500
15439TIP3   OH267731   1.118   5.511   4.893  0.1175  0.1445  0.3391
15439TIP3    H167732   1.195   5.517   4.837 -0.5823  0.8359 -0.5854
15439TIP3    H267733   1.149   5.540   4.979  0.6078  1.7634 -0.3297
15440TIP3   OH267734   1.625   2.089  16.402  0.3529  0.0323 -0.2182
15440TIP3    H167735   1.620   2.183  16.386  0.8918 -0.1807 -1.8002
15440TIP3    H267736   1.534   2.063  16.416  0.1180  0.6769 -0.4804
15441TIP3   OH267737   1.708   1.939   3.910 -0.1925 -0.0387  0.1168
15441TIP3    H167738   1.780   1.998   3.889 -0.2527  0.7206  1.9232
15441TIP3    H267739   1.677   1.909   3.825  1.6363  0.3511 -0.7335
15442TIP3   OH267740   3.590   0.066   1.046  0.1155 -0.5810 -0.3510
15442TIP3    H167741   3.510   0.030   1.009  0.2359  0.2710 -1.4818
15442TIP3    H267742   3.656   0.053   0.978  1.3491 -2.6099  1.1084
15443TIP3   OH267743   0.721   2.618   6.113  0.4677 -0.3419 -0.3166
15443TIP3    H167744   0.809   2.634   6.079 -0.1559 -0.7346 -2.2566
15443TIP3    H267745   0.730   2.538   6.164  1.6923  0.9350  1.5927
15444TIP3   OH267746   4.238   3.441   3.109 -0.6267  0.0948 -0.2078
15444TIP3    H167747   4.208   3.364   3.156  0.0345  0.3081  0.5844
15444TIP3    H267748   4.205   3.429   3.020 -1.4899 -0.5411  0.1856
15445TIP3   OH267749   5.272   6.531   2.907  0.1148 -0.1866 -0.5680
15445TIP3    H167750   5.221   6.572   2.837  0.3066 -1.7347 -1.6724
15445TIP3    H267751   5.348   6.588   2.918 -1.3572  1.7007  0.5144
15446TIP3   OH267752   0.063   3.975  11.912  0.5295  0.5167 -0.3191
15446TIP3    H167753   0.050   3.881  11.923 -1.5526  0.7702 -0.1345
15446TIP3    H267754   0.155   3.990  11.932  0.5378 -1.2712  1.1579
15447TIP3   OH267755   3.697   3.838  14.524 -0.1911  0.3197  0.0946
15447TIP3    H167756   3.654   3.761  14.487 -0.2383 -1.0552  2.7332
15447TIP3    H267757   3.626   3.891  14.559 -0.1396  1.5376 -1.5300
15448TIP3   OH267758   1.705   6.444  16.402 -0.0157  0.6399  0.2823
15448TIP3    H167759   1.733   6.535  16.393 -0.6805  0.8499  0.2722
15448TIP3    H267760   1.786   6.393  16.397  0.1956  1.0862 -1.8170
15449TIP3   OH267761   4.026   6.588   6.246  0.3024  0.5538  0.6435
15449TIP3    H167762   3.931   6.574   6.246  0.3605  0.1801  1.0202
15449TIP3    H267763   4.062   6.515   6.295  0.7100  1.2422  1.4055
15450TIP3   OH267764   4.527   3.419   0.623 -0.1712  0.4654 -0.4029
15450TIP3    H167765   4.572   3.491   0.668 -0.4199  0.2172  0.2582
15450TIP3    H267766   4.491   3.459   0.544  1.3109  0.6446 -1.0276
15451TIP3   OH267767   1.359   0.542   3.684 -0.2026  0.1286  0.2163
15451TIP3    H167768   1.437   0.541   3.740  0.3250  0.2455 -0.4959
15451TIP3    H267769   1.370   0.619   3.629 -0.2766 -0.4577 -0.6347
15452TIP3   OH267770   5.690   3.118   0.404  0.0641 -0.0808 -0.0606
15452TIP3    H167771   5.708   3.208   0.376  0.1055 -0.6830 -2.2054
15452TIP3    H267772   5.595   3.113   0.409  0.0818  0.2376  0.6822
15453TIP3   OH267773   6.010   5.790  16.541  0.5067  0.0387  0.0849
15453TIP3    H167774   5.958   5.866  16.512  1.3490  0.6401  0.1300
15453TIP3    H267775   5.966   5.715  16.500 -0.2144  0.5649 -0.1350
15454TIP3   OH267776   3.464   6.101  14.903  0.3201 -0.5652 -0.2935
15454TIP3    H167777   3.449   6.101  14.809  1.5280 -1.2793 -0.5113
15454TIP3    H267778   3.529   6.171  14.916 -1.1738  0.7814  0.2800
15455TIP3   OH267779   6.702   6.363   0.995 -0.4817  0.1520  0.5971
15455TIP3    H167780   6.654   6.284   1.018 -0.8234  0.7464  1.9761
15455TIP3    H267781   6.791   6.347   1.028 -0.0362 -0.3829 -0.7553
15456TIP3   OH267782   0.026   3.765   3.790  0.1365 -0.3273 -0.3124
15456TIP3    H167783   0.060   3.714   3.863  2.4739  0.3582 -0.8579
15456TIP3    H267784  -0.034   3.828   3.830 -0.4620 -1.5125  0.7029
15457TIP3   OH267785   6.716   6.515  16.234  0.4547  0.0255  0.1929
15457TIP3    H167786   6.632   6.497  16.275  0.9958 -1.0419  0.8606
15457TIP3    H267787   6.697   6.585  16.171 -1.0046 -0.4623  0.0548
15458TIP3   OH267788   1.465   0.722  11.455  0.0822  0.2202 -0.6447
15458TIP3    H167789   1.435   0.632  11.465  0.1718  0.1872 -0.6767
15458TIP3    H267790   1.385   0.775  11.459  0.2048  0.3292  1.7405
15459TIP3   OH267791   1.515   5.787   3.285 -0.6835 -0.6628 -0.2275
15459TIP3    H167792   1.512   5.696   3.314 -0.0760 -0.6474 -0.1084
15459TIP3    H267793   1.577   5.787   3.212 -0.4622 -0.2948 -0.0436
15460TIP3   OH267794   0.224   1.432   0.911  0.1076 -0.3300  0.4601
15460TIP3    H167795   0.273   1.449   0.831 -0.2462  1.0624  0.5166
15460TIP3    H267796   0.216   1.517   0.953  0.3715 -1.0368  2.0406
15461TIP3   OH267797   3.222   2.093  16.328  0.5534 -0.0632  0.6387
15461TIP3    H167798   3.181   2.164  16.278 -0.6752  0.7410  2.6600
15461TIP3    H267799   3.191   2.105  16.417  1.1378 -2.5630  1.2711
15462TIP3   OH267800   0.283   1.465   1.617  0.1338 -0.4102 -1.4645
15462TIP3    H167801   0.337   1.410   1.674 -1.9941 -0.9830  0.0870
15462TIP3    H267802   0.223   1.405   1.574 -0.4994  0.3969 -1.7517
15463TIP3   OH267803   6.110   2.513   3.671  0.3806 -0.2640  0.1685
15463TIP3    H167804   6.114   2.438   3.730 -1.1451  0.2864  1.0362
15463TIP3    H267805   6.131   2.588   3.727 -0.4368  0.1964 -0.1339
15464TIP3   OH267806   3.811   5.589   0.715  0.6619  0.4374 -0.3974
15464TIP3    H167807   3.719   5.565   0.732  0.3408  1.7836 -0.1182
15464TIP3    H267808   3.832   5.652   0.783  1.7057  0.3924 -0.6635
15465TIP3   OH267809   5.278   5.909   0.850  0.1152 -0.2095 -0.0883
15465TIP3    H167810   5.219   5.850   0.898 -0.2463 -0.6985 -1.1029
15465TIP3    H267811   5.219   5.971   0.807  0.4319  0.1612  0.0108
15466TIP3   OH267812   3.896   4.463  10.700 -0.2182 -0.3356  0.1005
15466TIP3    H167813   3.866   4.525  10.634  1.3963  0.2182 -0.1477
15466TIP3    H267814   3.991   4.457  10.687  0.0932 -0.5098  2.0942
15467TIP3   OH267815   2.509   0.003  16.513  0.3995 -0.0442 -0.5086
15467TIP3    H167816   2.596   0.001  16.553  0.8666  0.2438 -1.4811
15467TIP3    H267817   2.504   0.089  16.471 -0.0665 -0.3437 -1.0812
15468TIP3   OH267818   6.184   1.811   3.698 -0.1752  0.0767  0.1852
15468TIP3    H167819   6.227   1.726   3.701  0.6620  0.5155  2.5297
15468TIP3    H267820   6.096   1.793   3.666  0.3113 -1.4797 -0.3611
15469TIP3   OH267821   1.199   0.277   5.304 -0.0591  0.5786  0.2029
15469TIP3    H167822   1.293   0.280   5.285 -0.0474  1.7197  0.3553
15469TIP3    H267823   1.167   0.365   5.282 -0.8869  0.5334  1.1333
15470TIP3   OH267824   4.404   2.845  13.334  0.2275 -0.4384 -0.2894
15470TIP3    H167825   4.430   2.934  13.359  0.5000 -0.3220 -0.9891
15470TIP3    H267826   4.397   2.798  13.418  1.0747 -0.0328  0.0195
15471TIP3   OH267827   5.904   5.383  11.765 -0.0116 -0.5520  0.3758
15471TIP3    H167828   5.911   5.470  11.726 -0.2373 -0.7913 -0.2101
15471TIP3    H267829   5.867   5.328  11.696  1.6219 -1.4820  0.1995
15472TIP3   OH267830   1.847   0.875  15.860  0.0923  0.4110  0.3294
15472TIP3    H167831   1.875   0.859  15.950  1.4423  0.2122 -0.1014
15472TIP3    H267832   1.780   0.943  15.867 -0.0130  0.2004  1.4976
15473TIP3   OH267833   5.949   3.823   1.054 -0.4834  0.5458 -0.2108
15473TIP3    H167834   5.939   3.858   0.965  0.8353  0.0947 -0.5592
15473TIP3    H267835   5.861   3.828   1.092 -1.0226  0.9454 -1.4646
15474TIP3   OH267836   0.551   4.222  16.147  0.1781  0.1208  0.6618
15474TIP3    H167837   0.587   4.170  16.075 -0.0300  0.6983  0.1314
15474TIP3    H267838   0.493   4.285  16.104 -1.5760 -0.8580  1.5006
15475TIP3   OH267839   3.130   6.187  14.898  0.1135  0.5505 -0.2763
15475TIP3    H167840   3.206   6.135  14.925  0.7909  1.4491 -0.4125
15475TIP3    H267841   3.122   6.255  14.965 -0.6896  0.3683 -0.1698
15476TIP3   OH267842   2.505   4.702  10.919 -0.2014  0.2374  0.4299
15476TIP3    H167843   2.514   4.775  10.858 -1.2511 -2.1635 -2.8916
15476TIP3    H267844   2.411   4.698  10.937  0.1054  1.0064  2.5034
15477TIP3   OH267845   4.458   0.079   0.048  0.2340  0.0848 -0.3249
15477TIP3    H167846   4.438   0.145   0.115 -3.2882  0.2977 -1.3911
15477TIP3    H267847   4.505   0.127  -0.020  0.0586  0.8855  0.1060
15478TIP3   OH267848   1.801   0.881  11.932 -0.1350 -0.2958 -0.1376
15478TIP3    H167849   1.767   0.822  11.865 -0.9720 -0.3156  0.2833
15478TIP3    H267850   1.875   0.925  11.890  0.0512 -1.1107 -0.6947
15479TIP3   OH267851   2.957   3.050  12.893  0.2922  0.1807 -0.1665
15479TIP3    H167852   2.922   3.123  12.842 -0.1709  0.0898  0.0160
15479TIP3    H267853   2.997   3.092  12.970 -0.0115  0.2439 -0.0403
15480TIP3   OH267854   1.338   2.424  12.022  0.1451  0.3344 -0.3342
15480TIP3    H167855   1.246   2.417  11.996  0.9955 -0.6103 -3.5414
15480TIP3    H267856   1.370   2.334  12.022  1.4406  0.7814 -0.7904
15481TIP3   OH267857   3.068   0.782   4.160 -0.6983  0.3415  0.1534
15481TIP3    H167858   3.143   0.780   4.100 -0.7682  1.9896 -0.0355
15481TIP3    H267859   2.993   0.801   4.104 -1.3608 -1.5984  0.2985
15482TIP3   OH267860   2.071   5.635  11.096  0.3505  0.3836  0.0432
15482TIP3    H167861   2.136   5.642  11.166  0.3027 -0.2763  0.1620
15482TIP3    H267862   2.043   5.725  11.080  3.4617  1.1335 -2.0873
15483TIP3   OH267863   6.129   4.834   4.713  0.0076 -0.2210  0.2906
15483TIP3    H167864   6.106   4.924   4.736  0.3956  0.2438 -1.0386
15483TIP3    H267865   6.219   4.841   4.680  0.2804 -1.2096  0.7953
15484TIP3   OH267866   0.747   5.651  16.910  0.1076  0.2359  0.2370
15484TIP3    H167867   0.775   5.736  16.944  0.8969  0.1434 -0.1483
15484TIP3    H267868   0.724   5.600  16.988  1.3301  0.2244  0.6144
15485TIP3   OH267869   2.677   1.988  14.451  0.1652 -0.2812  0.5770
15485TIP3    H167870   2.642   1.925  14.388  1.3752 -0.4594  0.0385
15485TIP3    H267871   2.772   1.988  14.434  0.1551  2.1380  0.1388
15486TIP3   OH267872   2.917   1.006  15.233 -0.0802  0.5269 -0.2472
15486TIP3    H167873   2.979   1.078  15.222  2.3643 -1.3303  0.4656
15486TIP3    H267874   2.880   1.019  15.320  2.3896 -0.4465  1.0305
15487TIP3   OH267875   2.959   1.344   2.395  0.2297 -0.0329  0.2673
15487TIP3    H167876   2.905   1.409   2.441 -0.3499 -0.3007 -0.0370
15487TIP3    H267877   3.049   1.367   2.420 -0.0079  0.5093  0.6522
15488TIP3   OH267878   3.511   6.598   4.917  0.5405 -0.0590  0.3490
15488TIP3    H167879   3.468   6.513   4.907  1.1635 -0.4999  1.3051
15488TIP3    H267880   3.584   6.581   4.977  1.3960  0.8986 -0.3940
15489TIP3   OH267881   6.316   2.754   2.549 -0.5685  0.2709  0.3409
15489TIP3    H167882   6.292   2.776   2.640  0.4743 -1.8190  1.1884
15489TIP3    H267883   6.397   2.704   2.558  1.4194  2.8074 -2.0285
15490TIP3   OH267884   3.440   3.310   5.481 -0.3766  0.0804 -0.2620
15490TIP3    H167885   3.403   3.266   5.557 -1.4030  1.8159  0.2977
15490TIP3    H267886   3.515   3.257   5.457 -2.1184 -2.5619 -0.2964
15491TIP3   OH267887   5.240   2.297   1.836  0.1121 -0.2195 -0.2347
15491TIP3    H167888   5.332   2.279   1.858  0.3044  0.6815 -0.2733
15491TIP3    H267889   5.244   2.333   1.747 -0.2777 -0.1332 -0.2155
15492TIP3   OH267890   3.767   3.858  12.641 -0.4956 -0.0115 -0.8523
15492TIP3    H167891   3.792   3.766  12.638 -2.2757 -0.5403 -0.7458
15492TIP3    H267892   3.779   3.889  12.551 -1.0241 -0.6882 -1.1693
15493TIP3   OH267893   3.428   5.622   3.593 -0.6374  0.1453  0.1560
15493TIP3    H167894   3.398   5.531   3.594 -0.3507 -0.2408  5.4549
15493TIP3    H267895   3.513   5.619   3.549 -1.9415 -1.4443 -2.4847
15494TIP3   OH267896   0.720   5.378   6.134  0.2332 -0.0656  0.1193
15494TIP3    H167897   0.648   5.440   6.123  1.0120  0.8750  0.1807
15494TIP3    H267898   0.678   5.297   6.164 -0.6471  0.9418  1.7478
15495TIP3   OH267899   2.639   6.467   5.078 -0.0988 -0.8088 -0.2109
15495TIP3    H167900   2.585   6.485   5.000 -0.1684 -2.4140 -0.5683
15495TIP3    H267901   2.715   6.420   5.043  0.0151 -1.2752  0.6609
15496TIP3   OH267902   2.299   6.363  11.754  0.0476 -0.4986  0.3405
15496TIP3    H167903   2.271   6.312  11.678 -1.6286  3.0633 -1.6739
15496TIP3    H267904   2.218   6.392  11.796  0.8066  1.6395  0.4864
15497TIP3   OH267905   6.050   3.509  13.757  1.1090 -0.0440 -0.4107
15497TIP3    H167906   6.021   3.544  13.841  1.7939  0.1659 -0.2523
15497TIP3    H267907   6.046   3.583  13.697  1.0835 -0.0742 -0.4462
15498TIP3   OH267908   5.622   5.957  15.767  0.9551  0.0526 -0.1489
15498TIP3    H167909   5.594   5.866  15.771  0.8810  0.0283 -1.1100
15498TIP3    H267910   5.576   5.999  15.840 -0.6139 -0.2627 -0.9155
15499TIP3   OH267911   0.015   0.529   0.595 -0.2486  0.6473 -0.3736
15499TIP3    H167912   0.009   0.592   0.667 -1.7192  0.4397 -0.2717
15499TIP3    H267913  -0.010   0.579   0.517 -1.7449  0.1533 -0.2450
15500TIP3   OH267914   4.417   6.719  16.078 -0.6979 -0.4901  0.2224
15500TIP3    H167915   4.403   6.793  16.138 -0.0610  0.0744 -0.3099
15500TIP3    H267916   4.372   6.744  15.998  0.7113 -0.0124 -0.4556
15501TIP3   OH267917   2.316   2.496   5.608 -0.2342  0.1352  0.0615
15501TIP3    H167918   2.389   2.466   5.554  0.2788  0.0133  0.8098
15501TIP3    H267919   2.252   2.530   5.546 -0.1104 -0.9854 -0.6918
15502TIP3   OH267920   6.147   4.013  15.333  0.2163  0.0453 -0.4942
15502TIP3    H167921   6.096   3.982  15.258 -0.6803 -1.0485  0.5193
15502TIP3    H267922   6.120   4.104  15.345 -0.4759 -0.1072 -0.8245
15503TIP3   OH267923   1.881   4.366  17.303 -0.2419 -0.0424  0.1232
15503TIP3    H167924   1.858   4.301  17.236  0.4694  0.4433 -0.6199
15503TIP3    H267925   1.976   4.375  17.294 -0.2556  0.6279  0.6546
15504TIP3   OH267926   0.093   1.646  14.638 -0.1159  0.1493 -0.6729
15504TIP3    H167927   0.100   1.599  14.721 -1.5145 -0.4690 -0.8871
15504TIP3    H267928   0.183   1.650  14.606 -0.0544 -4.0392 -1.5564
15505TIP3   OH267929   2.615   4.960   4.905  0.3851  0.1529 -0.3662
15505TIP3    H167930   2.560   4.963   4.983  1.7332  0.1300  0.6105
15505TIP3    H267931   2.694   4.913   4.932  0.6849 -0.2951 -1.8798
15506TIP3   OH267932   2.094   6.540   5.593 -0.0058  0.7745 -0.1334
15506TIP3    H167933   2.052   6.484   5.659 -0.2031 -0.4370 -1.2534
15506TIP3    H267934   2.033   6.540   5.519  1.4773 -0.2306 -1.4176
15507TIP3   OH267935   5.659   3.445   2.875  0.0594  0.5431  0.1112
15507TIP3    H167936   5.744   3.477   2.847  0.0533  0.5480  0.0975
15507TIP3    H267937   5.597   3.513   2.848  0.0939  0.7092  0.4466
15508TIP3   OH267938   0.327   5.105  14.629  0.1861 -0.2801 -0.1696
15508TIP3    H167939   0.369   5.024  14.599  1.9095  1.3330 -2.4028
15508TIP3    H267940   0.398   5.159  14.663 -0.5788  1.1784 -0.7914
15509TIP3   OH267941   6.593   4.008   3.951  0.2355 -0.6240  0.0059
15509TIP3    H167942   6.579   3.918   3.980 -1.0334 -0.7798 -0.9777
15509TIP3    H267943   6.617   3.999   3.858  0.8129  0.0221  0.0878
15510TIP3   OH267944   5.794   2.530  11.506  0.3934  0.2172  0.0872
15510TIP3    H167945   5.718   2.524  11.563  0.5092 -1.5710  0.1171
15510TIP3    H267946   5.808   2.624  11.494 -1.8728  0.5852 -0.0388
15511TIP3   OH267947   2.430   3.066  11.821 -0.5180 -0.0315 -0.3185
15511TIP3    H167948   2.424   2.998  11.888 -1.0481 -1.0908 -1.4024
15511TIP3    H267949   2.340   3.078  11.790 -0.1955 -0.0776 -1.3185
15512TIP3   OH267950   5.630   4.467   3.487  0.3860 -0.5554  0.0984
15512TIP3    H167951   5.665   4.383   3.457 -0.5755 -0.7058 -0.6228
15512TIP3    H267952   5.637   4.462   3.583  2.5528 -0.4710 -0.0155
15513TIP3   OH267953   0.553   2.461   3.568 -0.0184 -0.3782  0.2598
15513TIP3    H167954   0.484   2.493   3.510 -0.0154 -1.0119 -0.0991
15513TIP3    H267955   0.509   2.402   3.629  0.1805 -0.6789  0.1165
15514TIP3   OH267956   5.767   4.787  12.900 -0.4009  0.2584  0.0542
15514TIP3    H167957   5.836   4.829  12.849  0.5233 -0.3402  0.7645
15514TIP3    H267958   5.710   4.746  12.835  0.5773 -0.2227 -0.5190
15515TIP3   OH267959   2.739   6.515   4.818 -0.4865  0.1200 -0.2390
15515TIP3    H167960   2.788   6.450   4.769 -1.2468 -0.1126 -0.7084
15515TIP3    H267961   2.678   6.553   4.754 -1.7555 -0.4589  0.5770
15516TIP3   OH267962   6.727   0.893  15.165  0.7231  0.0321 -0.3139
15516TIP3    H167963   6.693   0.900  15.076 -1.4815 -2.8645  0.1545
15516TIP3    H267964   6.815   0.858  15.155  0.3190 -0.7287 -1.3687
15517TIP3   OH267965   1.920   0.982   1.073  0.4725 -0.2174  0.1004
15517TIP3    H167966   1.925   0.968   0.978  0.1861 -0.3276  0.0995
15517TIP3    H267967   1.883   1.069   1.083  0.7489 -0.0995  0.1117
15518TIP3   OH267968   0.460   5.106  14.013  0.0251 -0.5178  0.2337
15518TIP3    H167969   0.494   5.092  13.925 -1.4112  0.3674 -0.4838
15518TIP3    H267970   0.456   5.019  14.051  0.1553 -0.9673 -0.7574
15519TIP3   OH267971   5.664   2.099   0.825 -0.8824 -0.3154  1.2981
15519TIP3    H167972   5.586   2.043   0.823 -1.0932 -0.0488 -1.4294
15519TIP3    H267973   5.691   2.106   0.733  0.9001  1.6407  1.8962
15520TIP3   OH267974   4.173   2.462  13.405  0.3428 -0.0597 -0.0867
15520TIP3    H167975   4.116   2.418  13.467  0.6105 -1.2269 -0.6451
15520TIP3    H267976   4.119   2.532  13.368 -0.6887 -1.0286 -0.4819
15521TIP3   OH267977   6.188   6.485   3.257 -0.4111  0.2913  0.0866
15521TIP3    H167978   6.200   6.390   3.249 -3.2023 -0.1302 -0.1844
15521TIP3    H267979   6.184   6.501   3.352  0.1700  0.1766  0.1351
15522TIP3   OH267980   5.043   1.396   3.939  0.3562 -0.3213 -0.2262
15522TIP3    H167981   4.985   1.341   3.992  0.3628  1.8590  2.2159
15522TIP3    H267982   4.985   1.462   3.900  0.8725  0.4121  0.2385
15523TIP3   OH267983   0.045   0.402   0.252  0.1135 -0.9705 -0.1081
15523TIP3    H167984   0.134   0.401   0.287  0.0345 -1.8846  0.0942
15523TIP3    H267985   0.001   0.471   0.302  1.0773  0.5227 -1.2284
15524TIP3   OH267986   3.641   6.149   0.542  0.2114  0.3325 -0.4666
15524TIP3    H167987   3.654   6.145   0.448 -0.2331  0.4031 -0.5298
15524TIP3    H267988   3.636   6.057   0.570 -1.1358  0.3195 -0.7156
15525TIP3   OH267989   2.110   2.016  10.956 -0.3040  0.4588 -0.1786
15525TIP3    H167990   2.043   1.974  11.009 -1.1312  0.4779 -1.1760
15525TIP3    H267991   2.187   1.960  10.965 -0.8311 -0.2449  0.0031
15526TIP3   OH267992   4.436   2.170   4.434  0.3044  0.1627  0.4720
15526TIP3    H167993   4.443   2.078   4.459  0.2146  0.0862  0.2221
15526TIP3    H267994   4.344   2.193   4.449 -0.8924 -1.0496 -3.6109
15527TIP3   OH267995   0.092   5.896  10.788  0.4391  0.6026 -0.0532
15527TIP3    H167996   0.166   5.850  10.828  0.3835  0.5027 -0.0640
15527TIP3    H267997   0.028   5.826  10.770  0.8636  0.4965 -1.2152
15528TIP3   OH267998   1.714   5.551  14.483 -0.0470 -0.1044 -0.0451
15528TIP3    H167999   1.759   5.565  14.400  0.4020  1.5088  0.4229
15528TIP3    H268000   1.763   5.481  14.526  0.3526 -0.2273 -0.6863
15529TIP3   OH268001   1.657   0.573  10.364 -0.4568  0.1626 -0.0730
15529TIP3    H168002   1.734   0.629  10.369  1.5144 -2.3653  0.2288
15529TIP3    H268003   1.614   0.583  10.449  0.9547 -0.2012  0.7170
15530TIP3   OH268004   5.189   5.202  12.256  0.1401  0.5456  0.2300
15530TIP3    H168005   5.111   5.227  12.206 -0.4806  0.7985  1.2929
15530TIP3    H268006   5.184   5.255  12.336  1.2781  0.3859  0.4206
15531TIP3   OH268007   0.399   1.181  11.732  0.3591 -0.2532  0.2781
15531TIP3    H168008   0.380   1.239  11.805  1.6653 -1.8312  1.9380
15531TIP3    H268009   0.317   1.134  11.717 -0.0341  0.3775  0.4277
15532TIP3   OH268010   3.828   4.790   4.660  0.0796 -0.1608  0.0965
15532TIP3    H168011   3.791   4.748   4.738  0.5346 -0.1052  0.3462
15532TIP3    H268012   3.860   4.718   4.606 -0.4046 -0.2098 -0.1249
15533TIP3   OH268013   1.494   3.159   4.891 -0.6613 -0.0413 -0.0138
15533TIP3    H168014   1.422   3.205   4.848 -0.6101 -0.4689 -0.5670
15533TIP3    H268015   1.462   3.141   4.979 -1.6341 -1.0945 -0.5531
15534TIP3   OH268016   1.739   3.422   6.119 -0.2060  0.4509 -0.7312
15534TIP3    H168017   1.792   3.494   6.084 -1.8080  1.4240 -1.2393
15534TIP3    H268018   1.780   3.401   6.203  2.2562 -0.3025 -1.9964
15535TIP3   OH268019   6.463   6.410   2.834 -0.0951 -0.1307 -0.0195
15535TIP3    H168020   6.525   6.473   2.871 -0.3108 -0.7752  1.4931
15535TIP3    H268021   6.414   6.460   2.769  2.6191  0.1764 -2.0024
15536TIP3   OH268022   5.709   6.241  12.761  0.5928 -0.0570  0.5349
15536TIP3    H168023   5.757   6.213  12.683  1.1537  2.0073  0.0833
15536TIP3    H268024   5.683   6.331  12.743 -0.9303 -0.1620  1.9825
15537TIP3   OH268025   4.301   1.509   5.750  0.4033  0.1278  0.2085
15537TIP3    H168026   4.214   1.471   5.738  0.1896  0.8521 -0.7023
15537TIP3    H268027   4.362   1.436   5.737 -0.0509 -0.2504  0.1967
15538TIP3   OH268028   1.173   4.009   3.249  0.0701  0.4381  0.2793
15538TIP3    H168029   1.238   3.938   3.252 -0.6822 -0.2481  0.9200
15538TIP3    H268030   1.183   4.054   3.332  1.6939  2.1849 -0.7876
15539TIP3   OH268031   6.648   1.994  14.090 -0.5481  0.1021 -0.2951
15539TIP3    H168032   6.702   2.040  14.026  0.5409 -0.8024 -0.0538
15539TIP3    H268033   6.700   1.994  14.170 -0.6423 -1.2529 -0.2063
15540TIP3   OH268034   2.114   2.671   0.962  0.1768 -0.5039 -0.4812
15540TIP3    H168035   2.045   2.665   0.896  0.1792 -1.4215 -0.4020
15540TIP3    H268036   2.099   2.597   1.020  2.8111 -2.3768 -1.9859
15541TIP3   OH268037   5.551   2.336   0.350 -0.1682 -0.0715  0.2830
15541TIP3    H168038   5.614   2.272   0.316 -0.4487 -2.4007  3.7247
15541TIP3    H268039   5.595   2.375   0.425 -1.2235  1.5614  0.1008
15542TIP3   OH268040   1.515   1.239   4.518 -0.4199 -0.1294  0.0679
15542TIP3    H168041   1.472   1.289   4.588  2.2962  2.0605  0.3489
15542TIP3    H268042   1.540   1.157   4.560 -0.1559  0.5336  1.2710
15543TIP3   OH268043   5.878   6.523   2.120 -0.0286 -0.1121 -0.6341
15543TIP3    H168044   5.912   6.607   2.090  1.5448 -0.5000 -0.0233
15543TIP3    H268045   5.849   6.539   2.210  0.5382 -0.2885 -0.4193
15544TIP3   OH268046   2.231   3.037  16.017  0.1311  0.1793 -0.1898
15544TIP3    H168047   2.222   2.966  15.954  0.2293 -0.5148  0.5582
15544TIP3    H268048   2.318   3.026  16.054  0.2375  0.8358 -0.2310
15545TIP3   OH268049   5.542   5.145  12.258 -0.3036 -0.0640  0.3223
15545TIP3    H168050   5.589   5.072  12.218 -1.9506 -0.0512 -1.7983
15545TIP3    H268051   5.450   5.119  12.255 -0.9662  2.2076 -0.8160
15546TIP3   OH268052   6.294   2.836  11.327  0.4516  0.1373 -0.0101
15546TIP3    H168053   6.359   2.837  11.256 -0.0068  2.4337 -0.4769
15546TIP3    H268054   6.213   2.810  11.284  0.1836  1.4856 -0.3505
15547TIP3   OH268055   5.262   2.568   2.599 -0.2372  0.2907  0.0047
15547TIP3    H168056   5.218   2.652   2.588 -1.0247 -0.4053 -3.6131
15547TIP3    H268057   5.344   2.578   2.552 -0.3918 -0.9563 -0.5745
15548TIP3   OH268058   3.313   0.918   6.281 -0.8587  0.3376 -0.2197
15548TIP3    H168059   3.292   0.835   6.238  0.6358 -1.6658  2.6060
15548TIP3    H268060   3.228   0.956   6.302 -1.5946 -1.2554 -0.2043
15549TIP3   OH268061   4.090   3.081   4.145 -0.1061 -0.3312  0.4495
15549TIP3    H168062   4.038   3.008   4.112 -2.4480  2.5662 -3.0889
15549TIP3    H268063   4.179   3.062   4.116 -0.6874 -1.6794 -0.5722
15550TIP3   OH268064   3.371   5.480   6.075 -0.3885  0.6429 -0.6239
15550TIP3    H168065   3.327   5.463   6.159  1.4700 -1.3547  0.0289
15550TIP3    H268066   3.446   5.535   6.098 -0.0913  0.4149 -1.0412
15551TIP3   OH268067   0.008   5.749   5.768  0.0556 -0.1149  0.0588
15551TIP3    H168068   0.032   5.709   5.684  1.0422 -1.1287  0.7957
15551TIP3    H268069   0.071   5.819   5.780  1.0132 -1.0534  0.7205
15552TIP3   OH268070   1.721   5.937  15.018  0.1887 -0.3141  0.2758
15552TIP3    H168071   1.682   5.857  14.983  1.1615 -0.8118  0.3094
15552TIP3    H268072   1.690   5.941  15.109 -1.9872  0.7515 -0.4517
15553TIP3   OH268073   6.491   6.582  12.406 -0.7128 -0.0620 -0.3401
15553TIP3    H168074   6.422   6.648  12.400  0.2065  0.8327 -1.4466
15553TIP3    H268075   6.495   6.543  12.318  1.0708  0.8385 -0.7054
15554TIP3   OH268076   2.588   5.828   0.184  0.9268 -0.6082  0.3283
15554TIP3    H168077   2.577   5.880   0.105 -0.0718  0.0119  0.8459
15554TIP3    H268078   2.630   5.747   0.155 -1.5415 -1.4288 -1.2625
15555TIP3   OH268079   0.714   0.721   0.191 -0.2414  0.3368  0.3146
15555TIP3    H168080   0.714   0.815   0.209 -0.8118  0.1987  1.0625
15555TIP3    H268081   0.708   0.716   0.096  1.1202  1.0632  0.1641
15556TIP3   OH268082   0.312   5.024  12.419  0.0610 -0.3912 -0.7003
15556TIP3    H168083   0.370   5.098  12.433  0.0539 -0.4186 -0.5299
15556TIP3    H268084   0.224   5.058  12.434 -0.0962 -0.0076 -2.2481
15557TIP3   OH268085   5.023   0.459   1.664  0.1796  0.1403  0.5094
15557TIP3    H168086   5.105   0.502   1.641 -0.8176  1.3890 -0.8669
15557TIP3    H268087   4.981   0.518   1.727  0.3731 -0.5684  1.3310
15558TIP3   OH268088   2.415   3.118   5.867 -0.2613  0.3845  0.6327
15558TIP3    H168089   2.422   3.107   5.772  0.0245  0.5028  0.6389
15558TIP3    H268090   2.336   3.069   5.891 -1.1227  1.4921  0.1528
15559TIP3   OH268091   0.437   4.855  15.919 -0.4576  0.3882  0.2909
15559TIP3    H168092   0.399   4.829  16.003 -0.1278 -2.7231 -0.3895
15559TIP3    H268093   0.374   4.917  15.883 -0.6854  1.6963  2.7006
15560TIP3   OH268094   4.181   2.487  13.085  0.4222 -0.6206  0.1120
15560TIP3    H168095   4.221   2.411  13.043  1.1279 -1.2096  1.7657
15560TIP3    H268096   4.196   2.473  13.179  0.7397  1.6595  0.4469
15561TIP3   OH268097   5.041   3.909   3.481 -0.0703 -0.0005  0.3646
15561TIP3    H168098   5.047   3.839   3.546  2.6113  0.4157  0.6678
15561TIP3    H268099   5.125   3.955   3.487 -0.4876  1.2521 -2.0664
15562TIP3   OH268100   0.355   5.808  15.591 -0.1869  0.7420 -0.0623
15562TIP3    H168101   0.312   5.737  15.639  0.9030 -0.0495 -0.2179
15562TIP3    H268102   0.329   5.888  15.638 -1.2882  0.2276  0.2189
15563TIP3   OH268103   5.747   4.941  14.543 -0.1236 -0.2501 -0.0552
15563TIP3    H168104   5.817   4.939  14.478  0.2585 -0.1145  0.3476
15563TIP3    H268105   5.708   5.028  14.535 -0.1553 -0.2771 -0.1876
15564TIP3   OH268106   4.626   0.741  14.288  0.4847 -0.0110  0.1068
15564TIP3    H168107   4.577   0.695  14.356  0.1690  1.5154  0.9594
15564TIP3    H268108   4.559   0.791  14.241  0.7866 -0.5579 -0.9355
15565TIP3   OH268109   4.902   4.981  15.539 -0.1182  0.2090 -0.2875
15565TIP3    H168110   4.928   4.965  15.630  0.7320 -1.3090 -0.7588
15565TIP3    H268111   4.859   4.900  15.512  2.3552 -0.6039 -2.1337
15566TIP3   OH268112   6.520   1.036   4.305  0.2525 -0.9389 -0.1982
15566TIP3    H168113   6.474   1.118   4.323  1.6264  0.2670 -1.8216
15566TIP3    H268114   6.511   0.985   4.386  0.6952  1.4688  1.4900
15567TIP3   OH268115   4.416   3.520   0.363  0.0172 -0.9595  0.2809
15567TIP3    H168116   4.413   3.614   0.344  2.7369 -0.3210  2.4950
15567TIP3    H268117   4.326   3.499   0.389 -0.8089  0.8310 -0.8594
15568TIP3   OH268118   5.454   6.314  16.065  0.0033 -0.2711 -0.8884
15568TIP3    H168119   5.388   6.334  15.998 -0.0221  0.5946 -0.6202
15568TIP3    H268120   5.405   6.299  16.145  0.1345  1.0499 -0.5277
15569TIP3   OH268121   3.052   5.887  13.722  0.4028  0.0228  0.2178
15569TIP3    H168122   3.112   5.920  13.789  0.9653 -0.4440 -0.0584
15569TIP3    H268123   2.980   5.951  13.722  0.1404 -0.2411  1.6170
15570TIP3   OH268124   1.150   3.379   2.517  0.0350 -0.3841  0.1824
15570TIP3    H168125   1.180   3.371   2.608  0.2100 -2.0334  0.0050
15570TIP3    H268126   1.221   3.428   2.474  1.3890 -2.1146  0.3197
15571TIP3   OH268127   0.879   5.185  14.730  0.7436  0.3138  0.2304
15571TIP3    H168128   0.842   5.128  14.797 -2.4076  1.4445 -0.3624
15571TIP3    H268129   0.853   5.145  14.647  1.3810  0.8838 -0.2608
15572TIP3   OH268130   5.390   6.626   6.141  0.3937 -0.5822  0.1261
15572TIP3    H168131   5.306   6.631   6.186  1.1777  0.3127  1.5443
15572TIP3    H268132   5.452   6.666   6.201  1.9770 -1.8593 -0.5978
15573TIP3   OH268133   3.865   4.837  16.979 -0.2605 -0.3193  0.4023
15573TIP3    H168134   3.828   4.841  16.891 -2.1623  0.0587  1.1781
15573TIP3    H268135   3.957   4.816  16.965 -0.3031  0.6405 -1.7135
15574TIP3   OH268136   2.647   4.180  14.206  0.5237  0.0299 -0.5461
15574TIP3    H168137   2.634   4.238  14.281  0.8799 -1.1500  0.4627
15574TIP3    H268138   2.734   4.201  14.173  0.9169 -0.3418  0.2185
15575TIP3   OH268139   4.796   4.845  10.977  0.7081  0.0329  0.3235
15575TIP3    H168140   4.740   4.842  10.900  1.9439 -2.0507 -0.5926
15575TIP3    H268141   4.751   4.904  11.038 -4.1483 -3.6055  0.8898
15576TIP3   OH268142   3.957   0.235  15.832 -0.0469 -0.2640 -0.2986
15576TIP3    H168143   3.955   0.323  15.795 -1.5716 -0.5878 -1.0611
15576TIP3    H268144   3.956   0.249  15.927 -0.3236  0.5358 -0.4155
15577TIP3   OH268145   2.976   1.273   5.658  0.1976 -0.3712  1.0740
15577TIP3    H168146   2.953   1.180   5.652 -1.5268  0.1223 -0.9877
15577TIP3    H268147   2.908   1.318   5.609  2.1479  1.8072  0.1723
15578TIP3   OH268148   6.255   0.658  16.372  0.0353 -0.2011 -0.8316
15578TIP3    H168149   6.259   0.724  16.441 -0.2986  0.0940 -1.0953
15578TIP3    H268150   6.328   0.679  16.314 -1.7713  1.7924 -2.5690
15579TIP3   OH268151   4.531   5.318  12.886 -0.4951  0.7037  0.4409
15579TIP3    H168152   4.581   5.368  12.821 -0.1329 -0.4443 -0.1966
15579TIP3    H268153   4.585   5.319  12.964 -0.2425  0.8547  0.2663
15580TIP3   OH268154   6.316   6.200   3.895 -0.3730 -0.2969 -0.2981
15580TIP3    H168155   6.378   6.147   3.846  0.4386 -1.4184  1.7889
15580TIP3    H268156   6.358   6.286   3.904 -0.9703  0.2536 -2.3033
15581TIP3   OH268157   3.192   2.442  15.273  0.1143  0.3233 -0.6307
15581TIP3    H168158   3.137   2.517  15.250  0.7922  1.1621  0.3674
15581TIP3    H268159   3.275   2.459  15.229 -0.0437 -0.3722 -1.2236
15582TIP3   OH268160   5.431   6.651  13.540  0.2269  0.0620 -0.2880
15582TIP3    H168161   5.470   6.565  13.555 -0.3233  0.0335  1.1298
15582TIP3    H268162   5.347   6.648  13.586 -1.0337  0.4758 -2.4000
15583TIP3   OH268163   4.811   2.197   4.631  0.3015 -0.4833 -0.4676
15583TIP3    H168164   4.906   2.206   4.640  0.3272 -2.5248  2.8760
15583TIP3    H268165   4.800   2.111   4.589 -0.0965 -0.4205 -0.4881
15584TIP3   OH268166   4.154   4.800   2.813  0.9340  0.0533  0.4627
15584TIP3    H168167   4.217   4.814   2.743 -1.4667  2.8657 -1.3880
15584TIP3    H268168   4.184   4.857   2.884  0.6058  1.3077 -0.3705
15585TIP3   OH268169   1.895   5.267  15.807  0.2090  0.2707  0.2494
15585TIP3    H168170   1.914   5.342  15.863  2.2319 -1.4604  2.0760
15585TIP3    H268171   1.980   5.245  15.767 -0.7578  0.1572 -1.8673
15586TIP3   OH268172   0.417   0.278   4.599 -0.3909  0.3777  0.4942
15586TIP3    H168173   0.407   0.264   4.505  2.7298  1.0740 -0.0730
15586TIP3    H268174   0.439   0.192   4.634  0.9015  0.5182  0.1001
15587TIP3   OH268175   0.706   4.774  15.542 -0.1848 -0.1439 -0.2299
15587TIP3    H168176   0.788   4.824  15.549  0.5749 -1.3296 -0.4979
15587TIP3    H268177   0.638   4.840  15.556  0.7320  1.2279 -1.7454
15588TIP3   OH268178   4.784   2.756   2.688 -0.3189 -0.8459  1.0363
15588TIP3    H168179   4.779   2.762   2.592  0.9554 -1.5880  0.9103
15588TIP3    H268180   4.850   2.822   2.712 -2.5368  1.3058  1.6969
15589TIP3   OH268181   6.593   6.605  13.871 -0.2130 -0.2468  0.2441
15589TIP3    H168182   6.536   6.679  13.895 -1.7772 -1.0653 -0.7743
15589TIP3    H268183   6.555   6.530  13.917 -0.6908 -1.0250 -1.3506
15590TIP3   OH268184   6.441   4.843   5.388  0.0171  0.3831 -0.0386
15590TIP3    H168185   6.526   4.885   5.402 -1.6559  3.6298  1.7587
15590TIP3    H268186   6.412   4.819   5.476 -0.9784 -0.5606 -0.6092
15591TIP3   OH268187   0.729   2.040   3.160  0.4464 -0.0102  0.3724
15591TIP3    H168188   0.747   1.962   3.212  0.9004 -0.0110  0.2182
15591TIP3    H268189   0.772   2.111   3.208 -1.3754  0.4394  1.4154
15592TIP3   OH268190   0.821   4.376  12.585  0.9749 -0.1400 -0.5699
15592TIP3    H168191   0.908   4.356  12.550  1.1823 -0.4329  0.0925
15592TIP3    H268192   0.766   4.303  12.555  1.6419 -1.6041  1.5043
15593TIP3   OH268193   6.456   3.058  16.264  0.5589 -0.1259  0.2218
15593TIP3    H168194   6.438   2.965  16.251 -1.0693 -0.0135  1.4775
15593TIP3    H268195   6.378   3.102  16.231  1.9022  0.9561 -1.7529
15594TIP3   OH268196   0.413   3.859   1.594  0.4164 -0.5644  0.1109
15594TIP3    H168197   0.461   3.916   1.654 -0.8772  1.2877 -0.4889
15594TIP3    H268198   0.341   3.824   1.647  1.2376 -1.7021  0.4916
15595TIP3   OH268199   5.451   3.157  12.389  0.5926  0.1033 -0.0444
15595TIP3    H168200   5.380   3.193  12.442  1.3612  0.7386  0.5908
15595TIP3    H268201   5.485   3.232  12.340  0.6001 -0.2634 -0.6082
15596TIP3   OH268202   0.194   3.321   6.105 -0.5821 -0.5692 -0.6831
15596TIP3    H168203   0.209   3.231   6.076 -0.5340 -0.4914 -0.9064
15596TIP3    H268204   0.103   3.324   6.131  0.4868 -2.0194  4.1383
15597TIP3   OH268205   1.324   1.048   5.521 -0.8845 -0.3378 -0.2846
15597TIP3    H168206   1.322   1.080   5.611 -0.6499 -0.5521 -0.2003
15597TIP3    H268207   1.236   1.011   5.507 -0.3715 -1.9989  0.4958
15598TIP3   OH268208   0.723   4.084  12.674  0.0092  0.1644  0.6549
15598TIP3    H168209   0.695   4.026  12.604  0.4077  0.1767  0.4861
15598TIP3    H268210   0.817   4.097  12.660  0.0358  0.4002  1.0169
15599TIP3   OH268211   5.413   3.826   0.399  0.5960 -0.6587  0.2363
15599TIP3    H168212   5.430   3.753   0.460 -1.3073 -0.8344  0.6108
15599TIP3    H268213   5.409   3.784   0.313 -0.2538 -0.9900  0.4238
15600TIP3   OH268214   5.895   2.380   0.304  0.0046 -0.7986  0.5345
15600TIP3    H168215   5.967   2.388   0.242  0.4061 -2.2004  0.7769
15600TIP3    H268216   5.816   2.386   0.250  0.2656  0.8354  0.2771
15601TIP3   OH268217   6.370   3.770   3.181 -0.4325 -0.2450 -0.1544
15601TIP3    H168218   6.450   3.817   3.204  0.1372 -0.8247 -0.8884
15601TIP3    H268219   6.305   3.800   3.245  0.6942 -0.7076  1.2753
15602TIP3   OH268220   4.787   1.423  17.173 -0.4269 -0.1114 -0.1564
15602TIP3    H168221   4.733   1.472  17.236 -0.1247 -1.4893  1.2571
15602TIP3    H268222   4.772   1.331  17.197  3.2494 -0.5576  0.9842
15603TIP3   OH268223   4.231   0.730   0.589  0.1417 -0.6170 -0.4517
15603TIP3    H168224   4.265   0.652   0.544 -0.8107 -1.0191 -0.5171
15603TIP3    H268225   4.154   0.697   0.636  0.5111  0.0208  0.6112
15604TIP3   OH268226   4.578   4.947  16.587  0.3801 -0.0773  0.4558
15604TIP3    H168227   4.512   4.892  16.544  0.4708 -0.7858  1.2004
15604TIP3    H268228   4.629   4.983  16.515 -0.8312  0.5064 -0.1388
15605TIP3   OH268229   3.261   0.732  16.917  0.0871  0.5708  0.3915
15605TIP3    H168230   3.335   0.685  16.957  0.4209 -0.1614 -1.0334
15605TIP3    H268231   3.262   0.705  16.825 -1.1080  1.6446  0.0360
15606TIP3   OH268232   2.515   6.148   5.198 -0.2262 -0.5713 -0.4971
15606TIP3    H168233   2.582   6.145   5.129  1.0926 -0.2111  0.7019
15606TIP3    H268234   2.566   6.154   5.280 -1.7425 -0.0930  0.4498
15607TIP3   OH268235   2.004   3.355  14.784  0.5438  0.0907 -0.0259
15607TIP3    H168236   2.021   3.350  14.690  1.3854 -0.4058  0.1494
15607TIP3    H268237   1.938   3.288  14.800  0.6868 -0.0894 -0.1955
15608TIP3   OH268238   0.748   0.029  16.707  0.1628 -0.2004 -0.2952
15608TIP3    H168239   0.740  -0.032  16.634  2.6828 -0.0009 -0.8591
15608TIP3    H268240   0.666   0.021  16.755 -0.9300 -1.5212 -2.2350
15609TIP3   OH268241   2.018   3.426   6.505 -0.5072 -0.6349 -0.3188
15609TIP3    H168242   2.099   3.419   6.454  0.2030  0.2797  0.6541
15609TIP3    H268243   1.983   3.513   6.482  0.5814  0.4368  1.7660
15610TIP3   OH268244   5.001   6.113   1.825  1.0575  0.1340 -1.0191
15610TIP3    H168245   4.928   6.156   1.780  0.8801 -2.1849 -3.1754
15610TIP3    H268246   4.997   6.147   1.914 -1.8069  1.1487 -1.4145
15611TIP3   OH268247   1.720   5.291   5.393  0.0184 -0.2173 -0.1263
15611TIP3    H168248   1.764   5.209   5.371 -0.2812 -0.4887  0.2697
15611TIP3    H268249   1.627   5.273   5.380 -0.1124 -0.1858  0.7186
15612TIP3   OH268250   6.307   6.398   1.493 -0.3217  0.1358 -0.2220
15612TIP3    H168251   6.398   6.390   1.520 -0.6665 -0.5855  0.7655
15612TIP3    H268252   6.299   6.488   1.460  0.1648  1.0303  1.9586
15613TIP3   OH268253   5.235   4.944  16.307  0.5206  0.2685  0.1064
15613TIP3    H168254   5.187   5.027  16.307 -0.7786 -0.4588  1.1703
15613TIP3    H268255   5.233   4.916  16.215 -0.7909  0.4350  0.0693
15614TIP3   OH268256   5.982   0.803  12.988 -0.1832 -0.2936 -0.3456
15614TIP3    H168257   6.028   0.834  13.065 -3.9214  1.2926  1.5358
15614TIP3    H268258   5.961   0.883  12.939 -0.8465 -0.9174 -1.1073
15615TIP3   OH268259   5.323   2.460   0.331 -0.5606 -0.1251  0.6570
15615TIP3    H168260   5.327   2.518   0.255 -2.1292 -1.4856 -0.5484
15615TIP3    H268261   5.413   2.433   0.346 -0.2960 -0.4807 -1.2961
15616TIP3   OH268262   0.902   2.400  13.866  0.3353 -0.9608 -0.1313
15616TIP3    H168263   0.871   2.490  13.875  1.0918 -0.6670 -0.3416
15616TIP3    H268264   0.996   2.406  13.885  0.4556 -1.6426 -0.5153
15617TIP3   OH268265   0.556   5.108  13.744  0.2081 -0.0170  0.2945
15617TIP3    H168266   0.524   5.188  13.702 -1.0242 -0.1304  0.9444
15617TIP3    H268267   0.483   5.046  13.737  1.1712 -1.1246 -0.2587
15618TIP3   OH268268   0.239   5.243  15.794  0.6508  0.1967 -0.9153
15618TIP3    H168269   0.246   5.314  15.859  0.0121  0.0976 -0.7385
15618TIP3    H268270   0.257   5.286  15.710  1.9000  0.2479 -0.6486
15619TIP3   OH268271   2.475   3.546  16.374  0.0081  0.3686 -0.1205
15619TIP3    H168272   2.539   3.593  16.427 -0.3866  0.6866  0.0726
15619TIP3    H268273   2.390   3.569  16.412 -0.1459 -1.3742  0.6995
15620TIP3   OH268274   6.433   2.412   4.426  0.0154  0.6133 -0.4782
15620TIP3    H168275   6.339   2.411   4.406  0.0089  0.9807 -0.4745
15620TIP3    H268276   6.467   2.485   4.375  0.3263  0.3976 -0.5844
15621TIP3   OH268277   0.504   6.023   2.480  0.1845  0.1893  0.6199
15621TIP3    H168278   0.475   5.959   2.415  0.8294  0.0226  0.4853
15621TIP3    H268279   0.598   6.033   2.463 -0.0673  1.8336  0.0743
15622TIP3   OH268280   0.467   5.739  15.000 -0.4796 -0.6552 -0.4101
15622TIP3    H168281   0.418   5.794  15.061  0.6298  0.7518 -0.7575
15622TIP3    H268282   0.414   5.659  14.993 -1.0563 -0.5260  1.7415
15623TIP3   OH268283   5.620   3.199  16.490 -0.1457  0.7216 -0.2290
15623TIP3    H168284   5.703   3.151  16.487 -0.6901 -0.2519 -0.2137
15623TIP3    H268285   5.643   3.288  16.464  0.7205  0.2096 -1.3247
15624TIP3   OH268286   1.366   4.133  12.998 -0.4681  0.3917  0.3775
15624TIP3    H168287   1.431   4.195  12.966 -1.6081  1.0564 -0.7280
15624TIP3    H268288   1.300   4.129  12.929  0.1196 -2.9568 -0.1814
15625TIP3   OH268289   2.374   4.118   4.422 -0.0051  0.1682  0.1423
15625TIP3    H168290   2.322   4.038   4.435  1.6747 -0.9667  0.2828
15625TIP3    H268291   2.405   4.140   4.510  0.7475  0.1071 -0.1036
15626TIP3   OH268292   1.106   0.182   0.109 -0.0780 -0.0620  0.1618
15626TIP3    H168293   1.042   0.212   0.173 -0.9932 -0.0150 -0.7516
15626TIP3    H268294   1.190   0.207   0.146 -0.4391 -1.4877  2.1472
15627TIP3   OH268295   0.474   1.372  16.852 -0.3116  0.1405  0.0297
15627TIP3    H168296   0.471   1.444  16.789  1.2113  0.1048 -0.1121
15627TIP3    H268297   0.433   1.299  16.807 -1.4330  0.7640 -0.0017
15628TIP3   OH268298   1.015   5.204   4.351 -0.1368  0.3998  0.2963
15628TIP3    H168299   0.959   5.213   4.428 -2.0042 -1.1911 -0.7811
15628TIP3    H268300   1.044   5.113   4.352 -2.4486 -0.5197 -2.1883
15629TIP3   OH268301   6.407   5.185   5.390 -0.9815 -0.5670  0.8697
15629TIP3    H168302   6.388   5.278   5.373 -0.8808 -0.8578 -0.9768
15629TIP3    H268303   6.444   5.185   5.479 -1.3587  1.1068  1.0693
15630TIP3   OH268304   5.803   1.689  16.810  0.0578  0.2938  0.4552
15630TIP3    H168305   5.781   1.726  16.896  1.6769 -1.0699  1.5212
15630TIP3    H268306   5.898   1.700  16.803  0.0776 -0.5014 -0.7278
15631TIP3   OH268307   6.054   1.616   5.339  0.0985 -0.6526  0.4888
15631TIP3    H168308   6.038   1.710   5.330  1.9666 -0.1057  2.1495
15631TIP3    H268309   6.081   1.588   5.251  0.7251  0.6462  0.2478
15632TIP3   OH268310   1.402   2.006  14.086 -0.3890 -0.2153 -0.4326
15632TIP3    H168311   1.371   1.917  14.071 -0.8955 -0.6637  2.6379
15632TIP3    H268312   1.324   2.056  14.109  0.2035  0.3726  0.3762
15633TIP3   OH268313   3.774   4.260  17.334  0.1200  0.5673  0.1063
15633TIP3    H168314   3.775   4.248  17.429  1.1477 -0.8041 -0.0551
15633TIP3    H268315   3.866   4.270  17.310 -0.0933  0.3865 -0.8182
15634TIP3   OH268316   1.691   1.435  14.773 -0.9622  0.4335 -0.3242
15634TIP3    H168317   1.685   1.506  14.837  0.1312  1.0950 -0.9360
15634TIP3    H268318   1.709   1.357  14.826  0.3819  1.0488  0.1534
15635TIP3   OH268319   2.649   1.089   1.869 -0.3203 -0.1285  0.2532
15635TIP3    H168320   2.697   1.151   1.814 -0.4701 -0.3271 -0.1040
15635TIP3    H268321   2.650   1.008   1.819 -0.1811 -0.3967  0.6934
15636TIP3   OH268322   1.957   4.770  13.981  0.5918  0.1309  0.2230
15636TIP3    H168323   2.023   4.701  13.976  0.6685  0.1286  1.0935
15636TIP3    H268324   1.885   4.739  13.927  0.8152 -0.4180  0.2332
15637TIP3   OH268325   6.430   1.825  13.055  0.2300  0.2437  0.0614
15637TIP3    H168326   6.464   1.795  12.970  1.8383 -0.6112  0.9506
15637TIP3    H268327   6.347   1.778  13.065  1.6113 -2.3170  0.3895
15638TIP3   OH268328   4.790   4.250  12.857 -0.4663 -0.0887 -0.3630
15638TIP3    H168329   4.850   4.323  12.840 -1.2341  1.0434  1.4400
15638TIP3    H268330   4.771   4.257  12.950 -1.9153 -1.5793 -0.5122
15639TIP3   OH268331   0.712   0.856   1.112  0.0523 -0.3006 -0.2108
15639TIP3    H168332   0.717   0.931   1.171 -1.5323 -0.4749  0.1887
15639TIP3    H268333   0.799   0.850   1.073 -0.2268  2.7170 -1.4935
15640TIP3   OH268334   5.427   0.729  11.119 -0.2005  0.0800  0.4464
15640TIP3    H168335   5.427   0.808  11.066  1.0196 -0.3078 -0.1578
15640TIP3    H268336   5.419   0.658  11.056  0.4141 -0.3542  0.8482
15641TIP3   OH268337   3.742   2.564  12.080  0.1394 -0.0879  0.3611
15641TIP3    H168338   3.729   2.508  12.003  0.0020 -0.2955  0.5348
15641TIP3    H268339   3.676   2.535  12.142 -0.3500  0.6898  0.2209
15642TIP3   OH268340   3.340   1.103   3.196 -0.2124 -0.0339  0.5571
15642TIP3    H168341   3.329   1.161   3.121  2.5783  0.3909  0.3575
15642TIP3    H268342   3.291   1.024   3.172  1.2978 -0.2909 -2.2183
15643TIP3   OH268343   4.754   0.171  14.949  0.1195  0.6400  0.4509
15643TIP3    H168344   4.804   0.104  14.902 -0.3731 -0.1130  0.9660
15643TIP3    H268345   4.766   0.149  15.041 -1.8531 -0.1258  0.5772
15644TIP3   OH268346   4.054   4.281  17.303  0.1768  0.3548  0.0850
15644TIP3    H168347   4.047   4.218  17.232 -0.1044 -0.8615  1.1404
15644TIP3    H268348   4.084   4.362  17.262 -1.8233  0.2602 -1.7275
15645TIP3   OH268349   0.169   4.108  16.771  0.0424  0.1900 -0.3150
15645TIP3    H168350   0.189   4.056  16.848  3.6521  0.0236 -1.2152
15645TIP3    H268351   0.132   4.189  16.805  1.1305 -0.0628  1.5403
15646TIP3   OH268352   1.992   2.642  15.042 -0.5705  0.2773 -0.2608
15646TIP3    H168353   1.954   2.567  14.996  0.0452 -0.2760  0.1138
15646TIP3    H268354   1.941   2.648  15.123 -1.1206  0.7469 -0.6342
15647TIP3   OH268355   4.467   5.073  12.039 -0.0179 -0.4402  0.0907
15647TIP3    H168356   4.522   5.073  11.961  0.8208 -0.1419  0.6746
15647TIP3    H268357   4.415   4.993  12.032  1.0864 -1.1607 -0.0553
15648TIP3   OH268358   3.084   6.702   5.786  0.1199 -0.2215 -0.0250
15648TIP3    H168359   3.102   6.771   5.849  1.8609  0.4631 -1.1678
15648TIP3    H268360   3.107   6.621   5.831 -0.7801  0.0379  0.9246
15649TIP3   OH268361   1.146   6.385   5.658 -0.2009  0.1625  0.2344
15649TIP3    H168362   1.206   6.414   5.589 -0.2824  0.9256  0.4810
15649TIP3    H268363   1.158   6.448   5.729 -0.0118 -0.6941  0.9926
15650TIP3   OH268364   2.267   4.661  14.542 -0.4749  0.3739  0.4716
15650TIP3    H168365   2.219   4.579  14.552  0.0090  0.2870  2.5131
15650TIP3    H268366   2.346   4.637  14.493 -1.1462 -0.0062 -0.4690
15651TIP3   OH268367   0.060   4.767  11.728  0.7595 -0.4263 -0.1304
15651TIP3    H168368   0.092   4.814  11.805  0.9932  0.0821 -0.5413
15651TIP3    H268369   0.135   4.759  11.670  0.3015  0.2676 -0.8442
15652TIP3   OH268370   6.030   2.911  14.427 -0.4716 -0.8367 -0.1881
15652TIP3    H168371   6.101   2.903  14.491 -1.1637  1.1453  0.9017
15652TIP3    H268372   6.002   3.002  14.433 -2.2360 -1.2290 -1.5632
15653TIP3   OH268373   4.700   6.001  15.755 -0.2499 -1.0085 -0.3428
15653TIP3    H168374   4.722   5.921  15.706  2.0467  0.5821 -2.1326
15653TIP3    H268375   4.781   6.024  15.801 -0.5575  0.7884 -0.6406
15654TIP3   OH268376   4.796   0.036  16.323 -0.4383  0.0187 -0.1883
15654TIP3    H168377   4.818   0.129  16.321 -1.7262  0.3394 -0.3899
15654TIP3    H268378   4.754   0.020  16.238 -0.2530 -0.7413 -0.1419
15655TIP3   OH268379   2.179   2.376   4.144  0.2974  0.0101 -0.1337
15655TIP3    H168380   2.115   2.410   4.082  0.6494  1.3605  0.2070
15655TIP3    H268381   2.239   2.325   4.090 -0.8883 -1.0417 -0.4934
15656TIP3   OH268382   6.422   3.945   1.127  0.4849 -0.6614 -0.8813
15656TIP3    H168383   6.478   3.910   1.196 -2.2999  0.2589  2.0693
15656TIP3    H268384   6.442   4.038   1.124  0.4117 -0.6521 -1.1188
15657TIP3   OH268385   4.302   4.947  14.805 -0.1080 -0.0868 -0.2932
15657TIP3    H168386   4.236   5.012  14.783 -0.8754 -0.8846 -0.3903
15657TIP3    H268387   4.307   4.891  14.727  0.4214 -0.2464 -0.1500
15658TIP3   OH268388   3.263   0.807   5.375  0.3665 -0.3422  0.0235
15658TIP3    H168389   3.225   0.876   5.430 -2.0346 -1.8438  0.4006
15658TIP3    H268390   3.267   0.847   5.288 -1.0081  0.3307  0.2277
15659TIP3   OH268391   0.385   4.079   0.589 -0.3309  0.1448 -0.2227
15659TIP3    H168392   0.292   4.057   0.584  0.0989 -2.0238  0.4490
15659TIP3    H268393   0.430   3.995   0.589  1.6744  1.1502 -0.7420
15660TIP3   OH268394   0.090   2.675   3.762 -0.5678 -0.3907  0.0889
15660TIP3    H168395   0.020   2.624   3.802 -0.5313  0.3233  1.1007
15660TIP3    H268396   0.084   2.654   3.668 -1.2494 -1.3812  0.3330
15661TIP3   OH268397   0.590   4.088  13.913 -0.6656 -0.3000  0.4625
15661TIP3    H168398   0.683   4.084  13.935 -0.4217 -0.7392 -0.6010
15661TIP3    H268399   0.570   4.001  13.877 -1.5088 -0.2347  0.7384
15662TIP3   OH268400   1.964   4.061  13.669 -0.1146 -0.1577  0.3034
15662TIP3    H168401   1.955   4.132  13.606 -1.1802  0.4267  1.0861
15662TIP3    H268402   1.905   3.992  13.638 -0.5317  0.0739  0.5693
15663TIP3   OH268403   2.229   0.717  15.597  0.0225 -0.4078  0.1463
15663TIP3    H168404   2.142   0.749  15.620  0.2444 -0.4626  1.0909
15663TIP3    H268405   2.289   0.785  15.627  0.2907 -0.2247 -0.7892
15664TIP3   OH268406   3.495   5.538   5.835  0.9528  0.3170  0.5631
15664TIP3    H168407   3.426   5.533   5.901  0.3679 -1.3324 -0.1355
15664TIP3    H268408   3.489   5.455   5.787  1.8612  1.1445 -1.0656
15665TIP3   OH268409   1.849   5.831  12.090  0.4564  0.7995  0.5257
15665TIP3    H168410   1.807   5.864  12.011  2.5215  0.8011 -0.6452
15665TIP3    H268411   1.837   5.901  12.155 -1.2291  0.8137  0.2480
15666TIP3   OH268412   0.040   1.992  11.930  0.0844 -0.2999 -0.6260
15666TIP3    H168413   0.093   2.040  11.867  0.7782 -0.7855 -0.4236
15666TIP3    H268414   0.045   2.044  12.010 -0.5678  0.1701 -0.8829
15667TIP3   OH268415   6.286   3.616   1.402 -0.4340  0.3080  0.5056
15667TIP3    H168416   6.228   3.692   1.392 -0.0897  0.7353  1.5663
15667TIP3    H268417   6.340   3.616   1.323  1.4181  2.8099  1.6345
15668TIP3   OH268418   2.290   0.732  12.172  0.3443  0.3296  0.3460
15668TIP3    H168419   2.230   0.666  12.136  0.5748  0.0432  0.4739
15668TIP3    H268420   2.245   0.815  12.160  0.0255  0.1425  0.2250
15669TIP3   OH268421   3.334   0.363  17.080  0.1371 -0.2419  0.4114
15669TIP3    H168422   3.307   0.369  16.988 -1.1628 -0.4385  0.7594
15669TIP3    H268423   3.252   0.371  17.130  0.5282 -2.1608  1.4806
15670TIP3   OH268424   4.068   4.623   6.596 -0.2142  0.3345  0.2292
15670TIP3    H168425   3.991   4.679   6.607 -0.6903 -0.2155 -0.2674
15670TIP3    H268426   4.063   4.562   6.670 -1.1049 -0.6786 -0.6494
15671TIP3   OH268427   2.919   0.251   1.580  1.0895  0.0055  0.2678
15671TIP3    H168428   2.917   0.325   1.520  3.7177 -0.6963 -0.8512
15671TIP3    H268429   2.902   0.175   1.526 -0.4061 -0.3574  1.1935
15672TIP3   OH268430   6.001   6.129   4.845  0.0386 -0.5787 -0.5878
15672TIP3    H168431   6.030   6.115   4.935 -0.7026  1.5097  0.0518
15672TIP3    H268432   5.905   6.125   4.849  0.0178 -1.4815 -1.5042
15673TIP3   OH268433   3.606   2.193  14.342  0.3324  0.2433 -0.5275
15673TIP3    H168434   3.512   2.176  14.353  0.3528 -0.7511 -1.6753
15673TIP3    H268435   3.647   2.147  14.415  0.0494 -1.0882 -1.1653
15674TIP3   OH268436   2.175   3.548  14.710  0.2204 -0.3414  0.2102
15674TIP3    H168437   2.104   3.496  14.748 -0.3668  1.0024  1.0792
15674TIP3    H268438   2.240   3.555  14.780  0.8115 -0.8221 -0.2812
15675TIP3   OH268439   5.323   2.752   2.146 -0.4599 -0.3277 -0.4994
15675TIP3    H168440   5.391   2.687   2.131 -1.2972 -0.8690 -2.0751
15675TIP3    H268441   5.351   2.829   2.096  0.5161  0.5876  1.3353
15676TIP3   OH268442   1.141   3.997  11.485 -0.4921  0.1143  0.1617
15676TIP3    H168443   1.131   4.026  11.576  1.4020 -1.4046  0.9355
15676TIP3    H268444   1.117   3.904  11.488 -0.6129  0.0992 -0.9529
15677TIP3   OH268445   3.067   4.416  12.502  0.3116 -0.1187  0.1775
15677TIP3    H168446   3.012   4.440  12.427 -0.5897 -0.1844  0.8088
15677TIP3    H268447   3.006   4.406  12.575  1.1796 -0.0153  0.9400
15678TIP3   OH268448   6.438   3.586   0.440  0.0417 -0.3868  0.3263
15678TIP3    H168449   6.517   3.532   0.446 -0.4785 -1.2717 -0.4298
15678TIP3    H268450   6.463   3.670   0.478  1.5337 -0.4538 -0.4186
15679TIP3   OH268451   2.020   1.622  16.341  0.1952  0.2496 -0.1084
15679TIP3    H168452   2.069   1.540  16.335 -2.6634 -1.6509  0.3459
15679TIP3    H268453   2.077   1.688  16.300  2.0651 -2.2107 -1.7452
15680TIP3   OH268454   5.885   0.079  12.519 -0.4348 -0.0601 -0.2435
15680TIP3    H168455   5.842   0.164  12.506  1.3799  1.1469  1.2614
15680TIP3    H268456   5.976   0.094  12.494  0.3478 -0.9992  1.9118
15681TIP3   OH268457   0.073   6.229   6.698  0.6840 -0.3794  0.6259
15681TIP3    H168458   0.030   6.194   6.776  0.4195  1.1005  1.1839
15681TIP3    H268459   0.004   6.229   6.631  0.3868  0.0891  0.9312
15682TIP3   OH268460   0.591   2.051  16.661  1.0425  0.2524 -0.6321
15682TIP3    H168461   0.584   2.099  16.579  2.3857  1.2678 -0.1880
15682TIP3    H268462   0.525   2.091  16.718  0.5558 -0.0193 -0.9950
15683TIP3   OH268463   0.284   0.744  11.243 -0.2835 -0.0634  0.2461
15683TIP3    H168464   0.265   0.650  11.245 -1.7090  0.1994 -0.1719
15683TIP3    H268465   0.292   0.765  11.150 -1.7152  0.5442  0.2412
15684TIP3   OH268466   2.920   0.991   5.808  0.1258  0.0693 -0.0376
15684TIP3    H168467   2.907   0.921   5.872  1.0995  1.1396  1.3955
15684TIP3    H268468   2.833   1.027   5.793 -0.4018 -1.4465 -0.8525
15685TIP3   OH268469   0.909   2.332  16.576  0.0611  0.3118 -0.7330
15685TIP3    H168470   0.869   2.275  16.511 -0.0344 -0.5208  0.0403
15685TIP3    H268471   0.957   2.273  16.634  3.0529  1.3021 -2.0098
15686TIP3   OH268472   0.232   4.728   4.220  0.2920  0.1524  0.0001
15686TIP3    H168473   0.320   4.763   4.207 -0.4079  2.0891  0.1415
15686TIP3    H268474   0.186   4.748   4.138 -0.0124 -0.9342 -0.1110
15687TIP3   OH268475   5.003   4.898   0.321  0.6030 -0.2296  0.0606
15687TIP3    H168476   5.021   4.988   0.292 -0.3914 -0.2841 -0.7616
15687TIP3    H268477   5.088   4.855   0.321  1.1964  0.8651  1.0440
15688TIP3   OH268478   5.176   1.778   3.155  0.2402 -0.7866  0.3877
15688TIP3    H168479   5.113   1.708   3.141  1.5387 -1.8992 -0.1628
15688TIP3    H268480   5.159   1.810   3.243 -2.3669  0.3220 -0.4173
15689TIP3   OH268481   5.226   5.316  15.768 -0.0792  0.0798  0.2360
15689TIP3    H168482   5.224   5.224  15.741 -0.1884  0.6516 -1.9300
15689TIP3    H268483   5.205   5.365  15.688 -1.7303  1.9384  1.7058
15690TIP3   OH268484   1.664   5.347   1.302  0.0790  0.0572  0.2658
15690TIP3    H168485   1.572   5.373   1.288 -0.1022 -0.8664 -0.3611
15690TIP3    H268486   1.662   5.293   1.381 -0.0276 -0.5347 -0.1423
15691TIP3   OH268487   4.706   4.804  12.938 -0.2906 -0.1428  0.3698
15691TIP3    H168488   4.801   4.813  12.927 -0.3183 -1.1500 -0.9273
15691TIP3    H268489   4.673   4.789  12.850 -1.5901 -0.4168  0.8829
15692TIP3   OH268490   3.238   0.651   1.251 -0.2820 -0.2086  0.5153
15692TIP3    H168491   3.303   0.624   1.186  0.4426  1.3917  0.5190
15692TIP3    H268492   3.238   0.581   1.316 -0.1764 -1.2796 -0.6061
15693TIP3   OH268493   0.465   5.062  12.724  0.6362  0.0956 -0.7669
15693TIP3    H168494   0.445   5.027  12.811  0.0100 -0.1034 -0.9816
15693TIP3    H268495   0.512   4.992  12.680  0.8005  0.1300 -0.6441
15694TIP3   OH268496   0.155   1.925   3.277 -0.0135  0.3175  0.2983
15694TIP3    H168497   0.167   1.986   3.349  1.6444  0.3394  0.0405
15694TIP3    H268498   0.175   1.976   3.198 -2.5494  0.5099 -0.3015
15695TIP3   OH268499   4.228   2.755  11.488 -0.2773 -0.0285  0.4370
15695TIP3    H168500   4.312   2.742  11.445  0.0026 -0.8441  1.2054
15695TIP3    H268501   4.172   2.686  11.451 -0.7913  0.8554 -0.4895
15696TIP3   OH268502   5.040   1.060   2.896  0.1820  0.5203  0.3739
15696TIP3    H168503   5.062   0.985   2.842  1.6953 -0.7666  2.6130
15696TIP3    H268504   4.950   1.044   2.925 -0.0752  0.4372 -0.4401
15697TIP3   OH268505   6.299   4.065   2.960 -0.6307  0.1695 -0.5417
15697TIP3    H168506   6.260   3.984   2.992 -0.0694 -0.6403 -1.8115
15697TIP3    H268507   6.389   4.040   2.937  0.2250  1.6622  1.0333
15698TIP3   OH268508   2.083   1.943  16.910  0.2881 -0.4074  0.1388
15698TIP3    H168509   2.001   1.925  16.865 -0.1498 -0.4169  0.9234
15698TIP3    H268510   2.126   2.009  16.855 -0.6369  0.2334  0.1627
15699TIP3   OH268511   3.831   1.480   3.802 -0.3114  0.1109  0.7436
15699TIP3    H168512   3.889   1.549   3.770 -0.8948  0.7480  1.0402
15699TIP3    H268513   3.860   1.401   3.756 -0.0720  0.6788 -0.1052
15700TIP3   OH268514   3.240   0.231   2.534 -0.5867 -0.3519 -0.1193
15700TIP3    H168515   3.310   0.292   2.557 -1.5427  0.2706  1.3333
15700TIP3    H268516   3.243   0.225   2.439 -0.7894  2.4084 -0.3665
15701TIP3   OH268517   1.986   3.541   6.128 -0.1658 -0.1131  0.1196
15701TIP3    H168518   2.012   3.540   6.036  0.5095  0.5455  0.2919
15701TIP3    H268519   1.956   3.631   6.143  2.8769  0.8343  1.3583
15702TIP3   OH268520   4.465   5.841  14.335  0.6300 -0.4335  0.3469
15702TIP3    H168521   4.524   5.767  14.325  1.0726 -0.1285  0.6476
15702TIP3    H268522   4.487   5.901  14.264 -0.4815 -1.0740 -0.5724
15703TIP3   OH268523   5.514   0.260   4.483  0.0300  0.3400 -0.1174
15703TIP3    H168524   5.598   0.297   4.453 -0.0318  0.4220 -0.1906
15703TIP3    H268525   5.452   0.332   4.473 -0.9520 -0.8045 -3.8854
15704TIP3   OH268526   2.581   5.840  14.752  0.5474 -0.1513  0.4484
15704TIP3    H168527   2.555   5.788  14.829  0.0516 -0.6756 -0.0655
15704TIP3    H268528   2.569   5.781  14.678 -1.7177  1.1838 -0.3667
15705TIP3   OH268529   3.494   4.106   3.009 -0.1962  0.0145 -0.0444
15705TIP3    H168530   3.481   4.031   2.951 -1.0851  0.8871 -1.0248
15705TIP3    H268531   3.488   4.069   3.097 -1.2286 -0.9934 -0.4989
15706TIP3   OH268532   0.109   3.804   5.620 -0.0075 -1.0633  0.2156
15706TIP3    H168533   0.119   3.887   5.666  1.7196 -0.1891 -1.5554
15706TIP3    H268534   0.081   3.742   5.687 -3.5577  1.3117  1.2266
15707TIP3   OH268535   6.427   6.329  15.742 -0.1798  0.3902 -0.7220
15707TIP3    H168536   6.351   6.377  15.710 -0.6964 -0.1591 -0.3466
15707TIP3    H268537   6.500   6.390  15.733 -0.7968  1.1847 -0.3824
15708TIP3   OH268538   3.940   6.481  12.999  0.9897 -0.5037 -0.2730
15708TIP3    H168539   3.908   6.417  13.063  0.5582 -0.4729 -0.4531
15708TIP3    H268540   4.017   6.520  13.041 -0.0390  0.4600  0.8297
15709TIP3   OH268541   2.069   0.854   4.124  0.3305  0.0097  0.2668
15709TIP3    H168542   2.159   0.826   4.106  1.3357  4.1227 -2.8360
15709TIP3    H268543   2.065   0.865   4.219  3.7150  1.0940  0.4167
15710TIP3   OH268544   1.401   2.255   2.376 -0.5160 -0.3496 -0.4127
15710TIP3    H168545   1.378   2.342   2.408 -1.9967 -0.8177 -0.0788
15710TIP3    H268546   1.487   2.265   2.335 -0.6529  1.2508 -0.3573
15711TIP3   OH268547   1.432   4.813  12.691  0.1330  0.1726  0.1530
15711TIP3    H168548   1.415   4.907  12.681 -1.0553 -0.0941 -0.5643
15711TIP3    H268549   1.397   4.791  12.777 -1.6314 -0.0125 -0.5748
15712TIP3   OH268550   2.703   3.792   5.216 -0.1752  0.2237  0.1990
15712TIP3    H168551   2.755   3.834   5.285 -0.9617 -0.9690  1.5592
15712TIP3    H268552   2.615   3.827   5.227  0.0222  1.3177 -1.3332
15713TIP3   OH268553   3.932   4.408  12.203  0.4541 -0.3181 -0.0438
15713TIP3    H168554   3.859   4.364  12.159 -0.4278 -0.4167  1.4549
15713TIP3    H268555   3.890   4.475  12.257  1.2768 -1.4603  2.1329
15714TIP3   OH268556   2.312   3.186  14.171 -0.2021 -0.2531  0.1302
15714TIP3    H168557   2.255   3.250  14.128  1.3520  0.2710 -1.2751
15714TIP3    H268558   2.282   3.184  14.262 -2.6522 -0.2738 -0.6035
15715TIP3   OH268559   3.047   3.952  11.760 -0.0912  0.7533 -0.5691
15715TIP3    H168560   3.041   3.880  11.697 -1.2026 -0.0327  0.3879
15715TIP3    H268561   2.983   4.016  11.730 -0.9342  0.1848 -0.0226
15716TIP3   OH268562   0.625   2.047  14.312  0.1639  0.0612 -0.1159
15716TIP3    H168563   0.676   2.022  14.389  0.2312  0.3319 -0.0698
15716TIP3    H268564   0.633   2.142  14.308  0.0743  0.0592 -0.3983
15717TIP3   OH268565   0.272   3.897   4.214 -0.3405 -0.1151  0.4455
15717TIP3    H168566   0.199   3.959   4.209  0.2870  0.5557 -1.0540
15717TIP3    H268567   0.308   3.895   4.125  0.7168 -1.3549  0.8675
15718TIP3   OH268568   5.199   2.670  14.089  0.0663  0.6753 -0.1982
15718TIP3    H168569   5.164   2.681  14.001  1.1412  0.5388 -0.6539
15718TIP3    H268570   5.294   2.670  14.078  0.2189  0.6557  0.9601
15719TIP3   OH268571   6.485   5.649  17.025 -0.7106  0.3550 -0.0350
15719TIP3    H168572   6.409   5.609  16.981 -0.3988 -0.2203 -0.0594
15719TIP3    H268573   6.519   5.580  17.081 -0.3615  0.7008  0.1834
15720TIP3   OH268574   5.432   3.690   4.232 -0.5988 -0.5798 -0.2063
15720TIP3    H168575   5.382   3.658   4.307  0.2708 -0.6777  0.3437
15720TIP3    H268576   5.513   3.725   4.270 -0.8573  0.9043 -0.9403
15721TIP3   OH268577   4.825   3.594   2.973  0.1320 -0.4460  0.2365
15721TIP3    H168578   4.750   3.597   3.032 -0.9563  1.6720 -1.1076
15721TIP3    H268579   4.848   3.686   2.960  0.7953 -0.8783 -2.0321
15722TIP3   OH268580   6.743   2.910  13.685  0.3219 -0.2042  0.4568
15722TIP3    H168581   6.812   2.972  13.659 -0.7195  0.3858 -1.0770
15722TIP3    H268582   6.692   2.957  13.750 -0.9471  0.9408 -1.2837
15723TIP3   OH268583   5.731   1.669   2.518  0.2483 -0.2259 -0.0671
15723TIP3    H168584   5.797   1.704   2.578 -0.5129 -3.6283  3.1323
15723TIP3    H268585   5.648   1.678   2.565 -1.1499  0.9081 -2.5706
15724TIP3   OH268586   3.718   2.957   5.056  0.0650 -0.1213 -0.6723
15724TIP3    H168587   3.637   2.972   5.007  0.3979  0.2041 -1.1334
15724TIP3    H268588   3.730   3.036   5.109 -0.1435 -0.3509 -0.2826
15725TIP3   OH268589   1.260   3.390  15.839 -0.2556  0.1727  0.1483
15725TIP3    H168590   1.223   3.327  15.902 -0.8409  0.8824  0.5260
15725TIP3    H268591   1.354   3.388  15.856 -0.4992  1.2332  1.8956
15726TIP3   OH268592   1.340   6.171   1.992 -0.1721  0.2587  0.5176
15726TIP3    H168593   1.392   6.141   1.917 -1.3080 -0.1337 -0.1307
15726TIP3    H268594   1.264   6.214   1.953 -0.0775  1.3288  1.4478
15727TIP3   OH268595   1.539   1.663   0.977 -0.3765  0.3321  0.4699
15727TIP3    H168596   1.518   1.582   1.024 -1.9720  1.2873  1.5011
15727TIP3    H268597   1.632   1.676   0.993 -0.3868 -0.5830  1.4446
15728TIP3   OH268598   2.858   1.304   5.216 -0.3044  0.8568 -0.1072
15728TIP3    H168599   2.859   1.353   5.299 -1.6788  0.5365  0.1191
15728TIP3    H268600   2.770   1.267   5.211  0.6820 -1.6489 -0.2407
15729TIP3   OH268601   1.975   4.690   5.218  0.4531 -0.1247 -0.0546
15729TIP3    H168602   1.989   4.779   5.184  1.0010 -0.0498  0.3497
15729TIP3    H268603   2.054   4.642   5.194 -0.2804 -0.8167 -1.2009
15730TIP3   OH268604   1.225   3.048  16.925  0.0743  0.0215  0.3844
15730TIP3    H168605   1.193   2.961  16.951  1.0995 -0.1016  1.3179
15730TIP3    H268606   1.298   3.065  16.985  0.4093  1.1775 -0.3286
15731TIP3   OH268607   1.539   0.908  13.806  0.4917 -0.2641 -0.2554
15731TIP3    H168608   1.569   0.976  13.866 -0.5455 -0.0319  0.0164
15731TIP3    H268609   1.594   0.833  13.825  1.5442  0.4424 -0.4473
15732TIP3   OH268610   1.998   0.205  12.381  0.4426  0.7231 -0.1076
15732TIP3    H168611   1.985   0.178  12.472 -0.5618  0.2523 -0.3719
15732TIP3    H268612   1.939   0.279  12.369 -1.8378 -1.1459 -1.2003
15733TIP3   OH268613   1.510   0.043  12.387 -0.1812 -0.0973 -0.3074
15733TIP3    H168614   1.593   0.004  12.416  0.3551  1.2580  0.0683
15733TIP3    H268615   1.505   0.126  12.434 -0.2682  1.2644 -2.5912
15734TIP3   OH268616   4.350   3.830   5.776  0.0728  0.9047 -0.1203
15734TIP3    H168617   4.297   3.824   5.697 -0.0437 -0.2546  0.0281
15734TIP3    H268618   4.440   3.830   5.746  0.1712 -2.6970 -0.1932
15735TIP3   OH268619   2.078   3.786  13.756 -0.4893  0.5786  0.7964
15735TIP3    H168620   2.063   3.880  13.765 -2.8484  0.3468  0.1377
15735TIP3    H268621   2.104   3.757  13.843 -0.1633  1.7755  1.1112
15736TIP3   OH268622   5.159   0.704   4.893 -0.5667 -0.5791 -0.0852
15736TIP3    H168623   5.114   0.772   4.843 -0.2340  0.4206  0.9330
15736TIP3    H268624   5.151   0.733   4.984 -0.6128 -2.0296  0.3925
15737TIP3   OH268625   6.475   6.556   0.741 -0.5404  0.2287 -0.0700
15737TIP3    H168626   6.567   6.576   0.758 -0.4505 -0.4471  0.2715
15737TIP3    H268627   6.439   6.533   0.827 -0.6770 -0.8625 -0.4080
15738TIP3   OH268628   4.095   0.345   6.076 -0.0169 -0.6741  0.1237
15738TIP3    H168629   4.093   0.277   6.143 -0.9025 -2.5979 -1.7296
15738TIP3    H268630   4.184   0.341   6.040 -0.4534 -1.8378 -0.8808
15739TIP3   OH268631   6.470   5.737   0.486  0.8540 -0.0500  0.8235
15739TIP3    H168632   6.505   5.742   0.575 -0.5402 -0.6546  1.4363
15739TIP3    H268633   6.496   5.650   0.456  1.7712  0.3502  0.4277
15740TIP3   OH268634   1.394   1.425   1.101 -0.6010  0.0280  0.0805
15740TIP3    H168635   1.448   1.362   1.052 -0.8607  0.7266 -1.1604
15740TIP3    H268636   1.304   1.402   1.078 -0.7560  0.0311  0.6716
15741TIP3   OH268637   2.616   4.326  14.434 -0.5120  0.5785  0.5503
15741TIP3    H168638   2.662   4.407  14.454 -0.9180  0.8104  0.5439
15741TIP3    H268639   2.654   4.262  14.493  0.9555  0.3838 -0.5491
15742TIP3   OH268640   5.788   0.667   4.296 -0.0434  0.1116  0.4939
15742TIP3    H168641   5.771   0.761   4.300  0.5258  0.3840 -1.8713
15742TIP3    H268642   5.867   0.660   4.242  0.4392 -1.6967  1.3741
15743TIP3   OH268643   0.222   0.152   2.876 -0.1541  0.1584 -0.1677
15743TIP3    H168644   0.133   0.151   2.911 -0.0056 -0.9429  0.1898
15743TIP3    H268645   0.277   0.121   2.947  0.9223  3.3584  0.5669
15744TIP3   OH268646   2.138   4.499  15.206  0.1087 -0.4343 -0.2157
15744TIP3    H168647   2.217   4.517  15.155 -0.5134 -0.1673 -1.1125
15744TIP3    H268648   2.077   4.569  15.182  0.1790  0.3843  1.7903
15745TIP3   OH268649   1.437   1.656   4.419 -0.0052 -0.3548  0.1480
15745TIP3    H168650   1.360   1.689   4.373 -0.4152 -1.0928  0.2907
15745TIP3    H268651   1.473   1.589   4.361 -0.7572 -1.5789  1.0525
15746TIP3   OH268652   2.455   1.894   0.323  0.2425 -0.0733 -0.3684
15746TIP3    H168653   2.517   1.958   0.288  1.7562 -0.9535  0.5983
15746TIP3    H268654   2.488   1.874   0.411 -0.7074 -1.4865 -0.2939
15747TIP3   OH268655   2.018   5.781  15.451 -0.1164 -0.0017 -0.0944
15747TIP3    H168656   1.930   5.743  15.446 -1.0461  1.7183  1.6919
15747TIP3    H268657   2.030   5.825  15.367 -0.4032 -1.3139 -0.8480
15748TIP3   OH268658   0.385   1.090   0.532 -0.2044  0.4203 -0.1417
15748TIP3    H168659   0.466   1.123   0.572 -0.4387  0.1376  0.5854
15748TIP3    H268660   0.402   0.998   0.516 -0.2470  0.4498 -0.3591
15749TIP3   OH268661   0.073   1.216  16.662  0.2220 -0.2773 -0.6788
15749TIP3    H168662   0.093   1.307  16.639 -1.2487  0.7697  1.7563
15749TIP3    H268663   0.124   1.200  16.742 -1.6133 -0.5770  0.4982
15750TIP3   OH268664   3.739   0.060   3.251  0.1408 -0.1520  0.4352
15750TIP3    H168665   3.763   0.005   3.177  0.2266  0.2798  0.1379
15750TIP3    H268666   3.684   0.005   3.306  1.0434 -0.8621  0.6523
15751TIP3   OH268667   6.519   0.194   5.780  0.1928  0.1016  0.3315
15751TIP3    H168668   6.473   0.136   5.841 -0.6844  0.6279  0.1882
15751TIP3    H268669   6.469   0.276   5.784  2.2668  1.3839  1.6883
15752TIP3   OH268670   3.355   4.431  14.047 -0.5163  0.7256  0.2577
15752TIP3    H168671   3.381   4.355  14.099  0.2101  0.8851  0.1477
15752TIP3    H268672   3.431   4.489  14.051 -1.1676  1.5807  0.5799
15753TIP3   OH268673   4.329   2.601   3.658 -0.5617  0.0067 -0.0318
15753TIP3    H168674   4.303   2.658   3.731 -1.7594 -0.2807 -0.2192
15753TIP3    H268675   4.377   2.530   3.700 -1.0867 -0.0620  0.4663
15754TIP3   OH268676   5.145   5.003   5.287 -0.2048  0.1812 -0.2128
15754TIP3    H168677   5.107   4.938   5.346  0.0119  1.0848  0.9582
15754TIP3    H268678   5.240   4.993   5.299 -0.1147 -0.2885 -1.1701
15755TIP3   OH268679   0.999   5.930  17.086  0.2912 -0.0418  0.3661
15755TIP3    H168680   1.056   5.996  17.126  0.6277  0.4479 -0.8701
15755TIP3    H268681   1.055   5.888  17.020 -0.2193 -0.8949  0.4631
15756TIP3   OH268682   3.288   6.320  12.210  0.0537 -0.3328  0.5320
15756TIP3    H168683   3.198   6.290  12.212 -0.1826  0.2530 -0.5074
15756TIP3    H268684   3.338   6.249  12.252 -0.5337 -1.9774 -1.3849
15757TIP3   OH268685   4.133   4.441  17.112  0.3891 -0.4718 -0.2868
15757TIP3    H168686   4.185   4.515  17.080 -0.2840  1.6134  2.9088
15757TIP3    H268687   4.185   4.364  17.092  4.4297  1.3803  1.9409
15758TIP3   OH268688   6.162   2.131  10.624  0.1744 -0.5361 -0.1507
15758TIP3    H168689   6.070   2.136  10.597 -0.4862  2.2220  2.1558
15758TIP3    H268690   6.211   2.159  10.546 -1.1474  0.5716 -0.6147
15759TIP3   OH268691   4.097   5.078  14.377 -0.3321  0.5692 -0.7964
15759TIP3    H168692   4.063   5.024  14.448 -1.6456 -1.6258 -2.9383
15759TIP3    H268693   4.171   5.029  14.343  0.2077  1.5262 -1.0333
15760TIP3   OH268694   4.639   4.408   5.144  0.2489  0.1201  0.4637
15760TIP3    H168695   4.575   4.337   5.129  0.6897 -0.0493 -0.7572
15760TIP3    H268696   4.696   4.405   5.067 -0.4280  2.5697 -0.2141
15761TIP3   OH268697   6.368   3.441   2.677 -0.3031 -0.0077 -0.4714
15761TIP3    H168698   6.399   3.473   2.593  0.4073 -1.9258 -1.0063
15761TIP3    H268699   6.275   3.422   2.663 -0.2832  0.0618 -0.7004
15762TIP3   OH268700   5.140   0.962   5.125  0.2940 -0.0563  0.1726
15762TIP3    H168701   5.149   0.987   5.033 -1.9518 -0.1848 -0.1578
15762TIP3    H268702   5.073   1.022   5.159  1.4557  0.3313  1.8915
15763TIP3   OH268703   5.491   3.496   1.957  0.2747 -0.2235 -0.3581
15763TIP3    H168704   5.543   3.444   2.019 -0.6210 -1.7198 -0.8078
15763TIP3    H268705   5.518   3.464   1.871 -1.8860 -1.5923 -0.5884
15764TIP3   OH268706   0.377   5.422   1.857  0.3167 -0.0184  0.5271
15764TIP3    H168707   0.427   5.419   1.939  1.0660  1.8232  0.1852
15764TIP3    H268708   0.442   5.406   1.789 -0.2582 -1.2688  0.2312
15765TIP3   OH268709   3.533   3.715  14.850  0.4191 -0.4511 -0.0084
15765TIP3    H168710   3.459   3.722  14.911 -0.0652  1.9587 -0.7741
15765TIP3    H268711   3.567   3.804  14.843  0.2543 -0.5398 -3.4776
15766TIP3   OH268712   1.184   5.351   3.644 -0.0205 -0.0789 -0.5376
15766TIP3    H168713   1.264   5.397   3.619  0.3055  0.0635  0.6857
15766TIP3    H268714   1.113   5.413   3.626  0.4940  1.4409  2.1404
15767TIP3   OH268715   2.785   4.500   0.767 -0.7489  0.4815 -0.3434
15767TIP3    H168716   2.749   4.434   0.826 -2.1680 -0.0784 -1.7977
15767TIP3    H268717   2.865   4.460   0.733 -0.4364  0.4183  0.4413
15768TIP3   OH268718   5.802   0.965   4.218  0.6684  0.6404 -0.9380
15768TIP3    H168719   5.764   0.992   4.134 -0.7010  2.0993  0.0859
15768TIP3    H268720   5.794   1.042   4.274  2.0393 -0.1301  0.3899
15769TIP3   OH268721   0.943   4.079   3.110  0.6339  0.0977  0.5209
15769TIP3    H168722   0.967   4.148   3.049  0.2728 -0.2571 -0.0288
15769TIP3    H268723   1.022   4.064   3.163  1.2080 -0.1433 -0.3837
15770TIP3   OH268724   0.167   1.279   1.975 -0.1869 -0.4128 -0.5107
15770TIP3    H168725   0.209   1.361   1.951 -0.2086  0.7184  2.8093
15770TIP3    H268726   0.074   1.298   1.976 -0.1603 -0.2522  0.8146
15771TIP3   OH268727   3.014   2.824  14.622 -0.4932  0.1009  0.8106
15771TIP3    H168728   3.065   2.820  14.703  0.9606  0.7972 -0.0169
15771TIP3    H268729   3.048   2.752  14.569 -0.0181  0.8324  0.0817
15772TIP3   OH268730   5.789   4.074  16.575 -1.1475  0.2061  0.0604
15772TIP3    H168731   5.834   4.118  16.647 -1.0058 -0.4704  0.3923
15772TIP3    H268732   5.838   4.099  16.497 -0.5903  0.0178  0.3406
15773TIP3   OH268733   3.221   1.515   6.671  0.2220 -0.1704  0.3781
15773TIP3    H168734   3.135   1.506   6.631  0.7929 -0.7246 -0.7621
15773TIP3    H268735   3.258   1.426   6.670  1.0192  0.1480  0.3531
15774TIP3   OH268736   5.052   4.254   3.299  0.0522  0.0646  0.2943
15774TIP3    H168737   5.120   4.208   3.350 -0.2848 -0.9327 -0.1410
15774TIP3    H268738   5.084   4.252   3.209 -0.9097 -1.1299 -0.0487
15775TIP3   OH268739   3.137   0.712   2.102 -0.0065  0.1185  0.2600
15775TIP3    H168740   3.084   0.774   2.152 -0.0040 -1.1951  1.9881
15775TIP3    H268741   3.206   0.685   2.163  0.0611 -1.4729 -0.4709
15776TIP3   OH268742   1.596   4.780  14.097 -0.4506  0.5759  1.1284
15776TIP3    H168743   1.633   4.854  14.049 -1.2737  0.3517  0.0970
15776TIP3    H268744   1.515   4.759  14.049 -0.9771 -0.0626  2.2642
15777TIP3   OH268745   2.430   5.016   6.510  0.4662  0.2881  0.0748
15777TIP3    H168746   2.511   4.967   6.492 -0.1087  0.2983 -3.0160
15777TIP3    H268747   2.430   5.087   6.446 -1.4006  1.0779  0.8825
15778TIP3   OH268748   0.962   2.673   5.074  0.6449 -0.0587 -0.1942
15778TIP3    H168749   1.024   2.601   5.069 -0.2063 -0.8850  0.7332
15778TIP3    H268750   0.970   2.706   5.164  0.9758  0.9713 -0.5857
15779TIP3   OH268751   0.985   0.076   1.791 -0.4771  0.1044 -0.1909
15779TIP3    H168752   0.940   0.145   1.743  0.2095 -1.1103 -2.7390
15779TIP3    H268753   0.923   0.003   1.793 -0.1988 -0.1315  0.0377
15780TIP3   OH268754   1.911   6.256  14.408 -0.6829 -0.0327  0.1027
15780TIP3    H168755   1.958   6.287  14.330  0.5109 -0.2065  0.7334
15780TIP3    H268756   1.826   6.299  14.403 -1.1481 -1.0304 -1.9912
15781TIP3   OH268757   5.635   1.649   1.584 -0.2864 -0.1027 -0.5976
15781TIP3    H168758   5.622   1.663   1.490 -0.7134  2.6194 -0.1905
15781TIP3    H268759   5.546   1.638   1.619 -0.1580 -0.6058 -0.4098
15782TIP3   OH268760   5.975   4.053   5.399  0.3822  0.2260 -0.3882
15782TIP3    H168761   5.993   4.144   5.423  0.6608 -0.1380  0.8851
15782TIP3    H268762   6.059   4.019   5.368  0.0390  0.6757 -1.9016
15783TIP3   OH268763   3.990   6.273   5.810 -0.1241  0.2896 -0.0387
15783TIP3    H168764   3.976   6.366   5.793  0.4732  0.2379 -0.8376
15783TIP3    H268765   3.965   6.229   5.730  0.2899 -0.1747  0.0777
15784TIP3   OH268766   5.529   0.739   1.673  0.3425  0.0181  0.0258
15784TIP3    H168767   5.559   0.693   1.752  0.4603  0.7687  0.4297
15784TIP3    H268768   5.533   0.831   1.697 -1.4430  0.1904 -0.2095
15785TIP3   OH268769   1.705   4.255   4.627 -0.0837  0.3599 -0.3478
15785TIP3    H168770   1.690   4.201   4.705  1.3511 -0.7365 -0.7764
15785TIP3    H268771   1.637   4.229   4.566 -0.1160 -0.1161 -0.1150
15786TIP3   OH268772   2.885   1.065  14.125  0.0544 -0.4259  0.3364
15786TIP3    H168773   2.902   0.980  14.084  1.0761  0.3718 -0.9618
15786TIP3    H268774   2.956   1.121  14.095 -0.9518  1.0800  0.6452
15787TIP3   OH268775   6.236   1.990   4.595 -0.3213 -0.4871  0.1266
15787TIP3    H168776   6.274   2.076   4.610  0.0056 -0.7629  0.8904
15787TIP3    H268777   6.311   1.933   4.578 -0.5035 -0.7111  0.0655
15788TIP3   OH268778   1.135   4.083  10.978 -0.3759 -0.5371  0.6272
15788TIP3    H168779   1.048   4.122  10.977  0.2754  1.0101 -1.4365
15788TIP3    H268780   1.167   4.091  10.888  1.6132 -1.7824  1.1368
15789TIP3   OH268781   2.205   5.645   4.225 -0.8131  0.0716 -0.5946
15789TIP3    H168782   2.167   5.708   4.164 -0.7783 -1.2712 -2.0899
15789TIP3    H268783   2.141   5.574   4.229 -0.8609  0.1687  1.0584
15790TIP3   OH268784   4.732   6.722  16.066  0.1357  0.1071 -0.2797
15790TIP3    H168785   4.775   6.645  16.029 -1.7743 -1.5273  0.7073
15790TIP3    H268786   4.643   6.719  16.032 -0.0825  1.6882  0.0832
15791TIP3   OH268787   3.505   3.504  11.960  0.7431  0.5419 -0.6590
15791TIP3    H168788   3.561   3.441  11.914 -0.2001 -0.0982 -0.9564
15791TIP3    H268789   3.472   3.561  11.891 -1.4719 -1.0280 -1.0160
15792TIP3   OH268790   0.871   2.697  10.654  0.3711 -0.3573  0.2659
15792TIP3    H168791   0.871   2.605  10.681 -1.3240 -0.8981 -1.3876
15792TIP3    H268792   0.857   2.746  10.735  0.6234 -1.5826  1.0706
15793TIP3   OH268793   2.777   1.720   2.201  0.2333  0.3350 -0.2497
15793TIP3    H168794   2.824   1.677   2.129 -1.4283 -1.4472 -0.3592
15793TIP3    H268795   2.701   1.760   2.159  0.0809  0.6371  0.3138
15794TIP3   OH268796   2.036   4.675   1.359  0.1362 -0.4365 -0.1724
15794TIP3    H168797   1.989   4.628   1.290 -1.9745  1.7135 -0.3335
15794TIP3    H268798   2.093   4.735   1.312  1.3652 -1.3859  0.0361
15795TIP3   OH268799   3.579   3.024  15.054  0.2191 -0.4046  0.0208
15795TIP3    H168800   3.622   3.095  15.102 -0.8404  1.3137 -1.4204
15795TIP3    H268801   3.607   3.036  14.963 -1.7218 -0.4250 -0.6231
15796TIP3   OH268802   5.277   1.101   6.032 -0.1312 -0.4061 -0.4290
15796TIP3    H168803   5.215   1.056   6.090 -2.6354  1.1734 -1.7456
15796TIP3    H268804   5.322   1.164   6.089 -0.1576 -1.1340  0.4200
15797TIP3   OH268805   1.045   4.601  15.925 -0.1666 -0.1237  0.8720
15797TIP3    H168806   0.990   4.680  15.921  0.5183  0.3463  0.5934
15797TIP3    H268807   1.021   4.560  16.008  0.4421  1.1091  1.6927
15798TIP3   OH268808   5.601   5.351  14.157 -0.0196 -0.1625 -0.6750
15798TIP3    H168809   5.559   5.413  14.098 -0.0294  1.6216  1.0927
15798TIP3    H268810   5.553   5.269  14.144 -2.2852  1.0853 -0.7065
15799TIP3   OH268811   4.522   4.385   4.680 -0.6011  0.5119  0.4021
15799TIP3    H168812   4.427   4.373   4.673 -0.5800 -0.7266  1.8093
15799TIP3    H268813   4.558   4.297   4.673  0.3577  0.8420  0.9962
15800TIP3   OH268814   1.104   2.436  16.080 -0.2286  0.6057 -0.3115
15800TIP3    H168815   1.084   2.405  15.992  0.3402  0.7187 -0.4890
15800TIP3    H268816   1.106   2.532  16.072 -1.2440  0.6731  0.0694
15801TIP3   OH268817   0.416   1.255   4.485  0.3709  0.2127  0.1140
15801TIP3    H168818   0.413   1.160   4.488 -1.7670  0.1573 -1.1611
15801TIP3    H268819   0.405   1.276   4.392  1.4214  1.7130  0.2905
15802TIP3   OH268820   0.273   2.203   2.051  0.2515 -0.5749  0.1949
15802TIP3    H168821   0.282   2.181   2.143  0.5049 -0.4373  0.2050
15802TIP3    H268822   0.274   2.299   2.049  0.4995 -0.5790  0.0280
15803TIP3   OH268823   0.449   6.599   3.457 -0.4883  0.2041 -0.7950
15803TIP3    H168824   0.516   6.637   3.401  0.5723 -0.0061  0.2820
15803TIP3    H268825   0.391   6.672   3.479  0.9253  1.0075  0.4043
15804TIP3   OH268826   1.636   3.530   3.430  0.5072  0.0862 -0.6273
15804TIP3    H168827   1.680   3.508   3.348  1.7357 -0.4341  0.1482
15804TIP3    H268828   1.667   3.464   3.492 -0.6046  0.3190  0.1974
15805TIP3   OH268829   6.124   6.675  14.728  0.7319 -0.2713 -0.0665
15805TIP3    H168830   6.100   6.670  14.636 -0.1330 -1.1549  0.1847
15805TIP3    H268831   6.198   6.615  14.737 -0.9684 -2.4160  0.3179
15806TIP3   OH268832   5.924   4.338  16.236  0.8334  0.3947 -0.0076
15806TIP3    H168833   5.872   4.405  16.281  2.0097  0.8991  0.6321
15806TIP3    H268834   5.971   4.293  16.306 -1.5390 -2.6037 -0.1679
15807TIP3   OH268835   1.323   4.711   2.969  0.5161 -0.4581 -0.2997
15807TIP3    H168836   1.406   4.663   2.967  0.5231 -0.5044  0.5955
15807TIP3    H268837   1.336   4.778   3.036 -0.9548 -1.9410  1.5641
15808TIP3   OH268838   1.226   0.174   0.650  1.0869 -0.4378 -0.3059
15808TIP3    H168839   1.205   0.163   0.743 -1.2497  0.4236 -0.6671
15808TIP3    H268840   1.146   0.150   0.604  1.0398  2.2713 -1.8935
15809TIP3   OH268841   0.310   4.798  11.584 -0.1705  0.0613 -0.1878
15809TIP3    H168842   0.387   4.761  11.626 -0.7986 -0.9901  0.0729
15809TIP3    H268843   0.270   4.724  11.538 -0.6625  0.7364 -0.8681
15810TIP3   OH268844   6.148   1.499  15.490  0.1701 -0.7891  0.4813
15810TIP3    H168845   6.126   1.556  15.563 -0.4507  2.4078 -1.9899
15810TIP3    H268846   6.069   1.446  15.476 -0.2696 -0.3062  1.1355
15811TIP3   OH268847   4.028   6.597  13.337 -0.0140  0.4373  0.2000
15811TIP3    H168848   3.934   6.593  13.318  0.1767  0.3003 -0.7345
15811TIP3    H268849   4.071   6.592  13.252  0.8162  1.9289  0.4966
15812TIP3   OH268850   5.190   0.672  15.916 -1.0289  0.2426 -0.1844
15812TIP3    H168851   5.270   0.708  15.877 -0.8092 -0.7279 -0.6488
15812TIP3    H268852   5.217   0.639  16.001 -1.0762  0.5003 -0.0680
15813TIP3   OH268853   2.581   1.300   0.593 -0.3700 -0.2660  0.4614
15813TIP3    H168854   2.580   1.389   0.556 -0.2366 -0.0227  1.0418
15813TIP3    H268855   2.671   1.286   0.622 -0.0331 -1.1282 -0.8853
15814TIP3   OH268856   5.681   5.255   1.497 -0.1961 -0.2970 -0.1822
15814TIP3    H168857   5.748   5.320   1.518  1.3584 -1.8876  0.0533
15814TIP3    H268858   5.625   5.298   1.432  0.6066  1.3447  0.1586
15815TIP3   OH268859   0.421   5.828  11.700 -0.3804  0.0327 -0.0777
15815TIP3    H168860   0.332   5.813  11.670 -0.4557  0.1686  0.0773
15815TIP3    H268861   0.421   5.801  11.792 -0.5321  1.0005  0.2231
15816TIP3   OH268862   3.737   2.222   4.503 -0.0871  0.2023 -0.8075
15816TIP3    H168863   3.737   2.127   4.518 -0.1607  0.0090 -1.9185
15816TIP3    H268864   3.818   2.252   4.543  0.1133 -0.3835 -0.7572
15817TIP3   OH268865   6.696   1.874  12.329  0.0485  0.1416  0.3884
15817TIP3    H168866   6.640   1.892  12.254 -0.1757 -1.9323 -0.0067
15817TIP3    H268867   6.776   1.836  12.291  0.3527  0.0176  1.1296
15818TIP3   OH268868   6.662   4.386  12.034 -0.3822 -0.5096  0.6158
15818TIP3    H168869   6.742   4.431  12.006 -1.6653  0.9410 -1.0071
15818TIP3    H268870   6.658   4.399  12.129  0.4413  0.8964  0.4810
15819TIP3   OH268871   5.109   0.047  13.439 -0.4150 -0.1947 -0.2195
15819TIP3    H168872   5.114  -0.042  13.404 -1.1259 -0.2957 -0.0724
15819TIP3    H268873   5.196   0.083  13.423 -0.2970 -0.7144 -0.8170
15820TIP3   OH268874   4.605   2.085  12.574 -0.3320  0.4003  0.0323
15820TIP3    H168875   4.602   2.180  12.569 -0.1374  0.4266  0.3617
15820TIP3    H268876   4.697   2.063  12.561 -0.4283  0.2323 -0.3896
15821TIP3   OH268877   2.970   4.649   5.506 -0.7052 -0.3836 -0.0543
15821TIP3    H168878   2.895   4.644   5.566  1.1893  1.6428  2.7648
15821TIP3    H268879   3.038   4.598   5.549  0.3504  0.1232 -1.0900
15822TIP3   OH268880   1.787   5.200   0.589 -0.1361 -0.0382  0.0895
15822TIP3    H168881   1.846   5.233   0.658 -0.9707  0.5963  0.5181
15822TIP3    H268882   1.832   5.222   0.508  1.8117 -2.5283  0.3781
15823TIP3   OH268883   5.549   0.028  14.313  0.9891 -0.0721 -0.1245
15823TIP3    H168884   5.579   0.017  14.222 -0.6986  1.3167 -0.9034
15823TIP3    H268885   5.484  -0.042  14.325  0.1776  0.5948 -0.5005
15824TIP3   OH268886   0.198   5.828  14.833 -0.3205 -0.6695 -0.4086
15824TIP3    H168887   0.222   5.737  14.813  0.1948 -0.9906  1.4949
15824TIP3    H268888   0.206   5.835  14.928 -3.1061  0.5982 -0.1713
15825TIP3   OH268889   1.349   4.247   5.575  0.1673 -0.1377  0.0647
15825TIP3    H168890   1.437   4.260   5.612  0.6091 -3.0398  0.3127
15825TIP3    H268891   1.328   4.156   5.596 -1.8240 -0.3047 -2.2535
15826TIP3   OH268892   5.074   2.079   3.024 -0.3071  0.2523 -0.4856
15826TIP3    H168893   5.167   2.077   3.047 -0.3523 -1.6190 -0.3729
15826TIP3    H268894   5.046   2.168   3.048  1.1727  0.4807  0.5294
15827TIP3   OH268895   2.724   0.449  12.662 -0.6422  0.8220 -0.2580
15827TIP3    H168896   2.698   0.365  12.700  0.8544  0.1032 -0.7757
15827TIP3    H268897   2.641   0.491  12.639 -1.4111 -1.3108 -1.6909
15828TIP3   OH268898   5.056   2.383   0.689  0.2192  0.1536  0.0773
15828TIP3    H168899   5.039   2.394   0.595 -1.2356 -0.2187  0.2778
15828TIP3    H268900   5.037   2.468   0.728 -0.4544 -0.0507  0.2011
15829TIP3   OH268901   2.755   1.269  14.813  0.0182 -0.3216 -0.0804
15829TIP3    H168902   2.791   1.188  14.850  0.9574  0.1246 -0.0168
15829TIP3    H268903   2.725   1.318  14.889  0.6914 -0.0151 -0.0068
15830TIP3   OH268904   4.866   3.429   1.481 -0.2005 -0.1466  0.1384
15830TIP3    H168905   4.864   3.358   1.546  0.2061 -0.9420 -0.6916
15830TIP3    H268906   4.853   3.509   1.532 -1.6501 -0.8854  0.9869
15831TIP3   OH268907   5.895   6.034  11.579  0.0659 -0.0304 -0.0076
15831TIP3    H168908   5.935   6.121  11.589 -0.2710  0.1367 -0.1191
15831TIP3    H268909   5.807   6.044  11.614  0.3785 -0.6071  1.0001
15832TIP3   OH268910   0.812   6.068  13.906  0.2875  0.2406 -0.2242
15832TIP3    H168911   0.792   5.999  13.970 -1.8585  0.9962 -0.0100
15832TIP3    H268912   0.907   6.077  13.909  0.5604 -2.1736  0.2948
15833TIP3   OH268913   6.296   3.068  16.685  0.0927  0.0162 -0.5772
15833TIP3    H168914   6.361   3.133  16.712 -1.1038  1.6098 -1.3839
15833TIP3    H268915   6.348   2.998  16.645  1.6175 -0.7150  2.3865
15834TIP3   OH268916   4.224   3.969  17.291 -0.1139 -0.4386  0.0911
15834TIP3    H168917   4.223   4.053  17.244 -0.0005 -0.9002 -0.7457
15834TIP3    H268918   4.131   3.951  17.308 -0.1586 -0.2907  0.0130
15835TIP3   OH268919   1.151   1.458   4.831 -0.3057  0.8491 -0.3793
15835TIP3    H168920   1.097   1.537   4.826 -1.5221  0.1052  0.4207
15835TIP3    H268921   1.238   1.486   4.802 -1.1163  2.0821 -1.7576
15836TIP3   OH268922   0.233   5.559  12.931 -0.6986 -1.0157 -0.5793
15836TIP3    H168923   0.243   5.596  12.844 -1.4874 -1.0613 -0.6963
15836TIP3    H268924   0.309   5.591  12.980  0.6519 -2.3180 -1.7311
15837TIP3   OH268925   2.838   1.358   4.484 -0.6077 -0.2800 -0.0367
15837TIP3    H168926   2.825   1.319   4.397 -1.4836 -0.3271  0.1139
15837TIP3    H268927   2.923   1.324   4.512 -0.7668 -1.0560 -0.4553
15838TIP3   OH268928   4.200   1.591   0.576  0.0265  0.5223  0.2378
15838TIP3    H168929   4.112   1.591   0.612 -0.0625  0.0769  0.0214
15838TIP3    H268930   4.254   1.555   0.647 -0.1539 -0.3870 -0.0749
15839TIP3   OH268931   4.398   5.315   0.718 -0.5645  0.1453  0.1489
15839TIP3    H168932   4.350   5.244   0.761  1.3202 -0.3624  1.5145
15839TIP3    H268933   4.349   5.330   0.637 -1.4306 -2.2209  0.1484
15840TIP3   OH268934   6.160   1.976  11.229  0.5906 -0.1120 -0.4676
15840TIP3    H168935   6.128   2.066  11.232 -2.5985 -1.1112  0.3171
15840TIP3    H268936   6.114   1.937  11.154  1.1127 -1.3482 -0.1726
15841TIP3   OH268937   3.643   5.354   3.071 -0.2378 -0.1208  0.0047
15841TIP3    H168938   3.616   5.385   3.157 -1.8600 -1.3976  0.0187
15841TIP3    H268939   3.584   5.281   3.053  1.5183 -1.3145 -1.2309
15842TIP3   OH268940   5.170   0.992  10.469  0.1045  0.0280 -0.0945
15842TIP3    H168941   5.106   0.947  10.414 -1.9280  0.3696  1.8494
15842TIP3    H268942   5.124   1.008  10.552  2.4036  1.1876  1.0650
15843TIP3   OH268943   0.286   1.447   6.295 -0.4061 -0.3971 -0.2672
15843TIP3    H168944   0.257   1.365   6.254 -1.1140 -0.2858 -0.0062
15843TIP3    H268945   0.363   1.422   6.345  0.2632 -0.6065 -1.3652
15844TIP3   OH268946   5.363   3.253  15.854  0.3539 -0.0961  0.0102
15844TIP3    H168947   5.277   3.291  15.835  0.5483  0.0607 -0.6002
15844TIP3    H268948   5.392   3.217  15.770  0.6089 -0.7102  0.3553
15845TIP3   OH268949   5.529   0.836   6.327 -0.3943  0.0790 -0.2929
15845TIP3    H168950   5.528   0.925   6.363  0.5214 -0.1681  0.3793
15845TIP3    H268951   5.458   0.791   6.371 -0.5324  0.3333 -0.2524
15846TIP3   OH268952   3.827   1.873  15.270 -0.3158 -0.1983 -0.4577
15846TIP3    H168953   3.820   1.811  15.198 -0.9659  0.2436 -0.7867
15846TIP3    H268954   3.746   1.860  15.320  0.6274 -1.2891  0.8459
15847TIP3   OH268955   3.717   4.506   5.846 -0.2555  0.4506 -0.7143
15847TIP3    H168956   3.779   4.480   5.778  1.0532  0.7066  0.3169
15847TIP3    H268957   3.688   4.423   5.885  0.5601  0.3494 -0.2837
15848TIP3   OH268958   2.480   4.542  16.052 -0.2182  0.0261 -0.2751
15848TIP3    H168959   2.498   4.630  16.085 -0.5300 -0.6731  1.9259
15848TIP3    H268960   2.451   4.556  15.962 -1.0129  2.2396  0.2457
15849TIP3   OH268961   0.567   5.430   2.070 -0.1353 -0.6485 -0.7376
15849TIP3    H168962   0.616   5.348   2.080 -0.1591 -0.6374 -0.5054
15849TIP3    H268963   0.633   5.494   2.043  0.2788 -0.3109  0.9333
15850TIP3   OH268964   0.702   1.176  11.814  0.2093 -0.5458 -0.3779
15850TIP3    H168965   0.782   1.208  11.773  0.6532 -1.7187 -0.4342
15850TIP3    H268966   0.633   1.200  11.752  0.4386  0.8184 -0.1492
15851TIP3   OH268967   4.029   6.192   2.778  0.6618 -0.0400 -0.1471
15851TIP3    H168968   4.111   6.235   2.804  0.1063  2.3974 -2.0803
15851TIP3    H268969   4.057   6.106   2.745  2.5543  0.8786 -1.1216
15852TIP3   OH268970   6.190   6.504   2.471 -0.1052  0.2477 -0.5364
15852TIP3    H168971   6.232   6.418   2.470  0.3529  0.4705 -0.5231
15852TIP3    H268972   6.150   6.512   2.384 -0.0590  0.0666 -0.5753
15853TIP3   OH268973   6.319   6.555  11.210 -0.3840 -0.1780 -0.2891
15853TIP3    H168974   6.343   6.470  11.247 -0.0189 -0.6344 -1.5329
15853TIP3    H268975   6.374   6.564  11.132 -0.3646  1.2430 -0.1296
15854TIP3   OH268976   1.388   6.521  16.933  0.2680  0.5774 -0.4075
15854TIP3    H168977   1.337   6.572  16.869  0.4117  0.7712 -0.3720
15854TIP3    H268978   1.353   6.433  16.927 -0.6660  0.8969  0.2520
15855TIP3   OH268979   0.418   2.743   4.555  0.0116  0.5165 -0.5587
15855TIP3    H168980   0.324   2.731   4.543 -0.0688  1.7325 -1.4505
15855TIP3    H268981   0.432   2.733   4.649 -1.1137  0.8785 -0.3286
15856TIP3   OH268982   3.675   5.644   2.703  0.1487  0.4805 -0.5708
15856TIP3    H168983   3.663   5.734   2.731 -1.0153  0.2824 -0.3898
15856TIP3    H268984   3.611   5.594   2.754  0.8596 -0.4630 -0.5846
15857TIP3   OH268985   1.256   3.781   3.381 -0.4174 -0.0282 -0.1495
15857TIP3    H168986   1.289   3.704   3.336 -0.5707 -1.7475  2.5023
15857TIP3    H268987   1.165   3.761   3.401 -0.4032  0.7240  0.7786
15858TIP3   OH268988   1.863   3.371  11.448  0.2015 -0.1563 -0.3857
15858TIP3    H168989   1.838   3.448  11.499  2.0283 -0.2238  0.6705
15858TIP3    H268990   1.886   3.406  11.362  1.7132  0.6128  0.2988
15859TIP3   OH268991   0.486   1.665  13.465 -0.8666 -0.0048  0.3945
15859TIP3    H168992   0.552   1.595  13.465 -2.5836 -1.7362 -0.4181
15859TIP3    H268993   0.527   1.737  13.417 -0.2112 -1.7679 -1.8611
15860TIP3   OH268994   4.530   6.477   3.980 -0.5104 -0.3259 -0.2627
15860TIP3    H168995   4.578   6.414   4.033 -0.9514 -0.9089 -0.5558
15860TIP3    H268996   4.597   6.542   3.955  0.0668 -0.9710 -0.4273
15861TIP3   OH268997   4.373   2.465   2.367  0.0836 -0.1302 -0.4928
15861TIP3    H168998   4.418   2.509   2.295  0.5616 -1.4788 -1.0324
15861TIP3    H268999   4.443   2.441   2.428 -0.2037  0.0787 -0.0786
15862TIP3   OH269000   6.599   5.154  14.495 -0.1656 -0.7248 -0.0690
15862TIP3    H169001   6.684   5.141  14.454  0.6866  2.1608  0.5155
15862TIP3    H269002   6.536   5.138  14.425  0.8714 -2.1197 -0.7319
15863TIP3   OH269003   4.253   4.243  16.768 -1.1189  0.1489  0.0421
15863TIP3    H169004   4.261   4.157  16.811  1.9574  0.4098  0.2074
15863TIP3    H269005   4.183   4.230  16.703 -0.2323 -2.7709 -0.5093
15864TIP3   OH269006   3.772   6.646  14.517  0.3191  0.0561  0.1126
15864TIP3    H169007   3.794   6.629  14.425  0.4927  1.6994 -0.1729
15864TIP3    H269008   3.676   6.644  14.519  0.3041 -2.2288  0.3920
15865TIP3   OH269009   0.097   0.165  16.748  0.0573  0.0521  0.1172
15865TIP3    H169010   0.157   0.190  16.677  2.0251 -1.3443  1.1924
15865TIP3    H269011   0.085   0.245  16.799  1.3858  0.2661  0.1230
15866TIP3   OH269012   0.466   0.117  16.140 -0.5989 -0.0141 -0.2071
15866TIP3    H169013   0.407   0.101  16.215 -0.6961 -1.9726 -0.6466
15866TIP3    H269014   0.407   0.131  16.066 -0.4981  1.2399 -0.0663
15867TIP3   OH269015   1.543   5.705   6.185 -0.4453  0.2118  0.7619
15867TIP3    H169016   1.553   5.628   6.240 -1.9871 -0.9972 -0.5526
15867TIP3    H269017   1.493   5.766   6.239 -1.2769 -0.6588  0.9977
15868TIP3   OH269018   6.692   1.989  15.864  0.0685  0.2883 -0.5659
15868TIP3    H169019   6.620   2.013  15.805 -1.1134 -2.2358 -0.2937
15868TIP3    H269020   6.653   1.926  15.925  1.7435  1.3145  1.7169
15869TIP3   OH269021   1.358   5.557   4.762 -0.2497  0.3055 -0.0278
15869TIP3    H169022   1.402   5.499   4.700  0.0500  1.2750 -0.7494
15869TIP3    H269023   1.417   5.561   4.837 -0.8703 -1.3089  0.5835
15870TIP3   OH269024   4.242   3.022  12.154  0.1800  0.4169 -0.3952
15870TIP3    H169025   4.199   3.008  12.069  1.3196  1.2348 -1.1409
15870TIP3    H269026   4.296   2.944  12.166 -0.2299  0.1522 -0.2680
15871TIP3   OH269027   1.839   6.608   4.624  0.1358 -0.0589  0.4265
15871TIP3    H169028   1.842   6.583   4.532 -0.8640  1.2609  0.0015
15871TIP3    H269029   1.802   6.532   4.669 -1.0138 -0.0806 -0.5311
15872TIP3   OH269030   6.598   5.543   3.417  0.1227  0.0965  0.0922
15872TIP3    H169031   6.573   5.464   3.367  0.4780  0.9861 -1.5788
15872TIP3    H269032   6.693   5.534   3.429 -0.0379 -0.3486  1.0465
15873TIP3   OH269033   2.487   1.703  11.582  0.3853  0.2567  0.4377
15873TIP3    H169034   2.468   1.796  11.570 -1.0216 -0.1413 -0.8259
15873TIP3    H269035   2.423   1.658  11.526  0.6531 -1.4945  1.4478
15874TIP3   OH269036   4.778   2.283  12.018 -0.0886  0.5910 -0.8327
15874TIP3    H169037   4.696   2.243  11.989  0.1131 -0.4773 -0.0279
15874TIP3    H269038   4.751   2.361  12.066 -0.6305  0.3103 -0.6722
15875TIP3   OH269039   1.232   2.030  12.195  0.2637 -0.5991  0.5781
15875TIP3    H169040   1.227   1.937  12.217  0.5504 -0.5929  0.6692
15875TIP3    H269041   1.325   2.051  12.200  0.1828 -0.2728  0.6971
15876TIP3   OH269042   1.536   6.174   6.820 -0.3755  0.7026 -0.3846
15876TIP3    H169043   1.622   6.216   6.834  0.1660 -0.0484 -1.3932
15876TIP3    H269044   1.482   6.244   6.784  0.7184  0.4374 -2.7154
15877TIP3   OH269045   0.090   2.813  15.873 -0.2520  0.1357 -0.1509
15877TIP3    H169046   0.162   2.757  15.903  0.6804  1.7469  0.7327
15877TIP3    H269047   0.070   2.781  15.785  1.0165 -0.8454 -0.1121
15878TIP3   OH269048   2.786   0.909  16.098  0.4497  0.4888 -0.2634
15878TIP3    H169049   2.728   0.890  16.024  1.7238  0.0615 -1.2012
15878TIP3    H269050   2.848   0.973  16.064  0.5075  0.9765  0.7295
15879TIP3   OH269051   2.614   1.074   6.143  0.1147  0.2330 -0.1821
15879TIP3    H169052   2.636   1.116   6.060 -0.2072  0.4429 -0.1670
15879TIP3    H269053   2.697   1.042   6.177  0.1377 -0.5349 -0.9491
15880TIP3   OH269054   0.949   4.037   5.803 -0.5942 -0.3441  0.0455
15880TIP3    H169055   1.024   3.985   5.832  0.2556  0.5299 -0.5214
15880TIP3    H269056   0.973   4.127   5.825 -2.5585 -0.2404  2.1602
15881TIP3   OH269057   0.369   1.922   2.064  0.1398  0.3552 -0.1242
15881TIP3    H169058   0.425   1.942   2.139  1.5338 -0.6765 -0.8497
15881TIP3    H269059   0.330   2.007   2.041 -0.4915  0.6531  1.8678
15882TIP3   OH269060   3.729   2.698   1.760  0.3698  0.0070  0.1969
15882TIP3    H169061   3.777   2.780   1.760  0.9801 -0.1983 -3.2971
15882TIP3    H269062   3.777   2.642   1.821  1.5143  1.3959  0.6226
15883TIP3   OH269063   1.701   1.568   4.809  0.2771 -0.3625  0.3802
15883TIP3    H169064   1.791   1.584   4.835  0.9981  0.3334 -2.1831
15883TIP3    H269065   1.695   1.473   4.798  0.2875 -0.5395  1.7979
15884TIP3   OH269066   4.415   1.698  17.197 -0.3579 -0.7630  0.3318
15884TIP3    H169067   4.475   1.730  17.130 -2.6412 -0.2530 -1.6088
15884TIP3    H269068   4.395   1.608  17.169 -1.0152 -0.6936  0.5787
15885TIP3   OH269069   5.182   5.469   5.557 -0.5710  0.0750 -0.0230
15885TIP3    H169070   5.228   5.552   5.558  0.3804 -0.2412  4.2383
15885TIP3    H269071   5.208   5.426   5.639 -3.9581 -2.7127 -0.1347
15886TIP3   OH269072   4.686   5.593   4.760 -0.4587 -0.5111  0.4703
15886TIP3    H169073   4.745   5.517   4.754 -0.0914 -0.1890 -0.1780
15886TIP3    H269074   4.633   5.588   4.681 -0.9046 -0.4717  0.7679
15887TIP3   OH269075   1.886   3.811  13.532 -0.0021  0.0365 -0.0226
15887TIP3    H169076   1.901   3.773  13.446 -0.4658  0.5112 -0.3177
15887TIP3    H269077   1.974   3.832  13.565  0.2459 -1.1159  0.0737
15888TIP3   OH269078   2.850   4.728  15.101 -0.1421 -0.0369  0.1826
15888TIP3    H169079   2.810   4.792  15.160  0.0478 -0.0602  0.3339
15888TIP3    H269080   2.794   4.731  15.023  0.1099  0.6222  0.0196
15889TIP3   OH269081   3.773   1.225  14.339  0.2371 -0.4982 -0.7945
15889TIP3    H169082   3.721   1.189  14.267 -0.3764  0.3017 -0.7557
15889TIP3    H269083   3.712   1.278  14.390  0.2410 -2.3430  1.2962
15890TIP3   OH269084   1.844   6.112   1.116 -0.7014 -0.1563 -0.6522
15890TIP3    H169085   1.859   6.050   1.187 -0.7762 -0.5459 -0.9732
15890TIP3    H269086   1.769   6.077   1.069 -1.3088  0.6566 -0.3109
15891TIP3   OH269087   5.924   5.736  15.385  0.2252  0.0305 -0.2596
15891TIP3    H169088   5.829   5.734  15.387  0.0457  2.9020 -1.5474
15891TIP3    H269089   5.946   5.737  15.292  1.6953 -2.7239 -0.0570
15892TIP3   OH269090   0.094   6.347   3.523 -0.1928 -0.1322  0.4046
15892TIP3    H169091   0.169   6.290   3.507 -0.9254 -0.4388 -2.3356
15892TIP3    H269092   0.050   6.306   3.598  1.5258 -0.7692  1.1303
15893TIP3   OH269093   1.217   3.864   0.026  0.1284  0.1318  0.2089
15893TIP3    H169094   1.163   3.924   0.076 -1.0724 -0.6455 -0.1148
15893TIP3    H269095   1.214   3.782   0.075  0.3606 -0.1424 -0.2192
15894TIP3   OH269096   4.320   1.546  12.833  0.2834 -0.0752 -0.0885
15894TIP3    H169097   4.251   1.519  12.893  1.6481  0.1830  1.6564
15894TIP3    H269098   4.274   1.593  12.763 -1.3918 -0.8234  0.4638
15895TIP3   OH269099   4.932   1.000   1.409  0.2231 -0.2490 -0.3884
15895TIP3    H169100   4.946   0.914   1.449  0.0120 -0.0461  0.1130
15895TIP3    H269101   4.849   1.031   1.444  1.2394  1.0405  0.9980
15896TIP3   OH269102   2.886   0.456   1.392 -0.3395 -0.2605 -0.0229
15896TIP3    H169103   2.829   0.533   1.395  1.4390  1.0854  0.9035
15896TIP3    H269104   2.863   0.413   1.309 -2.2304  0.5391  0.0206
15897TIP3   OH269105   3.462   2.678   4.808 -0.6262 -0.3243 -0.0585
15897TIP3    H169106   3.437   2.611   4.745 -2.0372 -0.2454  0.3961
15897TIP3    H269107   3.497   2.750   4.755 -2.7911  0.1900 -0.8676
15898TIP3   OH269108   5.932   4.377   0.707  0.1284  0.2828  0.4945
15898TIP3    H169109   5.889   4.293   0.726  1.7354 -1.5292 -2.9494
15898TIP3    H269110   6.025   4.358   0.716  0.4980  1.9048  0.2712
15899TIP3   OH269111   3.567   3.342  14.465 -0.3165 -0.2065  0.4668
15899TIP3    H169112   3.488   3.368  14.513 -1.3080 -0.4711 -0.9364
15899TIP3    H269113   3.610   3.425  14.443 -0.6960 -0.0040  0.4705
15900TIP3   OH269114   0.004   2.362  15.611  0.6883 -0.0154  0.0367
15900TIP3    H169115  -0.087   2.380  15.634  0.7641  0.4986 -0.0581
15900TIP3    H269116   0.054   2.389  15.689  0.9122  1.3878 -0.5592
15901TIP3   OH269117   2.083   2.350   0.308 -0.0060  0.2177  0.1188
15901TIP3    H169118   2.155   2.356   0.245  0.2151 -1.8631  0.0835
15901TIP3    H269119   2.126   2.349   0.394  0.0487 -1.0292  0.0980
15902TIP3   OH269120   2.749   6.715   3.142 -0.7073  0.5939 -0.5010
15902TIP3    H169121   2.715   6.661   3.213  0.0887  1.7775  0.8295
15902TIP3    H269122   2.719   6.671   3.062 -2.1837 -0.4156  0.5502
15903TIP3   OH269123   0.330   4.770  12.475 -0.1228 -0.2141  0.4188
15903TIP3    H169124   0.321   4.856  12.433 -1.9042 -1.6159 -2.3346
15903TIP3    H269125   0.244   4.731  12.468  1.0596 -2.9386 -0.0262
15904TIP3   OH269126   1.312   6.549   3.013  0.1639 -0.0142 -0.2574
15904TIP3    H169127   1.356   6.466   2.994 -0.9679 -0.1790 -2.5011
15904TIP3    H269128   1.363   6.615   2.968 -0.7826  0.0369 -1.2939
15905TIP3   OH269129   6.577   3.693   4.915  0.2319  0.1082  0.7592
15905TIP3    H169130   6.581   3.618   4.857  0.4146 -0.7726  1.8821
15905TIP3    H269131   6.489   3.689   4.953  0.1268  0.6545  0.5842
15906TIP3   OH269132   1.737   5.959   2.432  0.1250 -0.5212  0.1861
15906TIP3    H169133   1.667   5.894   2.421 -0.7765 -0.2332  3.2216
15906TIP3    H269134   1.753   5.960   2.527  3.1213  0.6275 -0.2469
15907TIP3   OH269135   2.667   1.066  11.486  0.4906 -0.1854  0.1320
15907TIP3    H169136   2.596   1.020  11.531  1.0632  0.0625  1.3250
15907TIP3    H269137   2.731   1.085  11.555  1.1522  0.6781 -0.6930
15908TIP3   OH269138   2.837   6.580   1.975  0.1796 -0.0990  0.2301
15908TIP3    H169139   2.776   6.522   2.020 -1.8285  2.1093  0.5994
15908TIP3    H269140   2.921   6.567   2.020 -0.2015 -2.5348  0.3496
15909TIP3   OH269141   4.760   6.134   5.688 -0.4139 -0.3140  0.3094
15909TIP3    H169142   4.855   6.147   5.677 -0.6206  2.0342  0.7768
15909TIP3    H269143   4.733   6.089   5.608  0.8424  0.5721 -0.6582
15910TIP3   OH269144   6.621   1.781   3.052 -0.2422 -0.0714 -0.4244
15910TIP3    H169145   6.530   1.803   3.072 -0.5932 -2.1384  0.5464
15910TIP3    H269146   6.637   1.699   3.099  1.7305 -0.4460 -1.6145
15911TIP3   OH269147   2.142   1.193   4.088  0.0450  0.2367 -0.5778
15911TIP3    H169148   2.124   1.251   4.162 -0.1537  0.4952 -0.8271
15911TIP3    H269149   2.150   1.106   4.127 -0.7806  0.2614 -0.3376
15912TIP3   OH269150   6.690   2.689   2.761  0.4150  0.2721 -0.3603
15912TIP3    H169151   6.752   2.709   2.831  0.5142 -0.0104 -0.3623
15912TIP3    H269152   6.650   2.773   2.737  0.4556  0.3822 -0.0353
15913TIP3   OH269153   6.349   0.624  14.085  0.4683 -0.0302 -0.6585
15913TIP3    H169154   6.404   0.660  14.015  1.8696 -0.2141  0.3150
15913TIP3    H269155   6.381   0.666  14.165 -1.2277  0.3209 -0.1179
15914TIP3   OH269156   0.192   2.846  16.598 -0.4612  0.1459  0.4291
15914TIP3    H169157   0.269   2.866  16.651  0.2462 -0.5990 -0.2710
15914TIP3    H269158   0.194   2.912  16.528  0.0826 -0.4344 -0.1127
15915TIP3   OH269159   0.681   3.469  16.876  0.3941  0.0646  0.0102
15915TIP3    H169160   0.717   3.386  16.844  0.3843  0.7899 -2.0053
15915TIP3    H269161   0.590   3.468  16.845  0.9124  1.6125 -1.7075
15916TIP3   OH269162   1.517   2.901   0.829 -0.2685 -0.0548  0.6660
15916TIP3    H169163   1.493   2.891   0.921  0.0362  0.3261  0.7872
15916TIP3    H269164   1.536   2.995   0.819 -1.6697  0.1748 -0.1099
15917TIP3   OH269165   0.305   0.666  16.512 -0.5279  0.9048 -0.0479
15917TIP3    H169166   0.395   0.637  16.500 -0.9755 -2.8731  3.5159
15917TIP3    H269167   0.258   0.634  16.435  0.5368 -0.4326 -0.1663
15918TIP3   OH269168   2.329   5.727  11.683 -0.2418 -0.1309  0.9449
15918TIP3    H169169   2.363   5.772  11.605 -0.1425 -0.0587  1.0303
15918TIP3    H269170   2.350   5.785  11.755 -1.4283  0.3775  0.8838
15919TIP3   OH269171   4.098   0.852   6.740  0.5150 -0.3469 -0.0040
15919TIP3    H169172   4.030   0.920   6.732 -0.5050 -1.4309 -0.9426
15919TIP3    H269173   4.049   0.770   6.739  1.7770 -1.1197  0.4718
15920TIP3   OH269174   3.914   4.477   4.845 -0.3143 -0.0486  0.0616
15920TIP3    H169175   3.854   4.546   4.871  1.5191  1.7863 -0.2854
15920TIP3    H269176   3.884   4.451   4.758 -1.1923  0.1291  0.3066
15921TIP3   OH269177   5.964   6.267   2.923 -0.6046 -0.6531 -0.0419
15921TIP3    H169178   5.994   6.297   2.838 -1.5565 -1.2611 -0.6058
15921TIP3    H269179   5.917   6.185   2.906 -0.8027 -0.7979  1.0582
15922TIP3   OH269180   1.728   4.453   2.827 -0.2768 -0.0829  0.1069
15922TIP3    H169181   1.776   4.493   2.755 -0.9498 -0.9159 -0.8381
15922TIP3    H269182   1.672   4.388   2.785 -1.7430  0.3898  1.2383
15923TIP3   OH269183   0.131   6.581  15.127 -0.1162 -1.2768 -0.3850
15923TIP3    H169184   0.127   6.598  15.033  0.4394 -1.1925 -0.3962
15923TIP3    H269185   0.221   6.601  15.152 -0.5559 -0.1732  0.3869
15924TIP3   OH269186   0.352   4.887  14.467  0.2168 -0.3495 -0.3994
15924TIP3    H169187   0.415   4.920  14.404  1.0478  1.2011  1.1433
15924TIP3    H269188   0.331   4.799  14.437  4.0233 -1.4488 -0.3458
15925TIP3   OH269189   6.617   4.397  14.928  0.0970 -0.0541 -0.3413
15925TIP3    H169190   6.564   4.462  14.882 -1.0096 -0.9467 -0.3695
15925TIP3    H269191   6.574   4.314  14.912  0.2611 -0.5406  1.4368
15926TIP3   OH269192   0.222   3.000  14.833  0.4371  0.5094  0.0964
15926TIP3    H169193   0.148   3.060  14.821  0.9256  1.2303  0.6489
15926TIP3    H269194   0.279   3.016  14.758  0.0616 -0.0125 -0.3045
15927TIP3   OH269195   5.105   2.001  13.967 -0.0829 -0.7757 -0.1928
15927TIP3    H169196   5.067   2.047  13.892 -0.8043 -1.0941 -0.0263
15927TIP3    H269197   5.062   2.040  14.043  1.2085  0.1020  0.1377
15928TIP3   OH269198   6.726   0.085   1.519 -0.2640  0.3148 -0.2618
15928TIP3    H169199   6.665   0.023   1.481  0.4140  0.7803 -2.2144
15928TIP3    H269200   6.777   0.033   1.581 -1.0393 -0.6052 -0.3718
15929TIP3   OH269201   4.457   1.482   2.156  0.0068  0.1541  0.6169
15929TIP3    H169202   4.510   1.558   2.131 -2.4271  1.9014  0.4580
15929TIP3    H269203   4.513   1.433   2.217  1.9405  1.6393  0.1457
15930TIP3   OH269204   2.828   2.296   3.101 -0.4534 -0.3897 -0.1158
15930TIP3    H169205   2.767   2.235   3.142  0.6349 -1.3589  0.1156
15930TIP3    H269206   2.878   2.241   3.040  1.2939  0.0363  0.8969
15931TIP3   OH269207   4.671   1.030  15.467 -0.3038  0.0645  0.3733
15931TIP3    H169208   4.746   1.007  15.522  0.5001  0.4179 -0.5428
15931TIP3    H269209   4.694   1.117  15.432 -0.1977 -0.6837 -1.5008
15932TIP3   OH269210   6.497   3.499  12.959  0.1395 -0.0879  0.3637
15932TIP3    H169211   6.503   3.427  12.896 -0.1077  1.1172 -1.0902
15932TIP3    H269212   6.478   3.456  13.042  0.4569 -1.7349 -0.3726
15933TIP3   OH269213   0.632   4.257   0.576  0.2751  0.4926  0.1569
15933TIP3    H169214   0.585   4.184   0.616 -0.0049  0.9309  0.6332
15933TIP3    H269215   0.563   4.315   0.543  0.4953  0.4180 -0.4608
15934TIP3   OH269216   3.800   3.787   2.908  0.1981 -0.2700 -0.9349
15934TIP3    H169217   3.837   3.845   2.975  1.4442 -1.0818 -0.8738
15934TIP3    H269218   3.734   3.841   2.864  0.2916  0.7138  0.0567
15935TIP3   OH269219   6.118   4.849   1.769  0.2623  0.7616  0.4116
15935TIP3    H169220   6.134   4.925   1.713  2.6139  0.4654  0.5850
15935TIP3    H269221   6.080   4.783   1.710 -2.0086  2.0609  0.3095
15936TIP3   OH269222   5.984   1.062  16.217  0.6282  0.4512  0.0787
15936TIP3    H169223   6.060   1.064  16.274  0.0848  0.6882  0.8105
15936TIP3    H269224   5.961   1.155  16.204 -0.4142  0.3577  1.0830
15937TIP3   OH269225   6.720   3.052  12.695 -0.3737 -0.1499 -0.3827
15937TIP3    H169226   6.640   3.033  12.743 -0.1376 -1.6223 -0.5272
15937TIP3    H269227   6.778   3.092  12.759 -0.7480 -0.3115  0.0607
15938TIP3   OH269228   3.484   3.753  15.595 -0.4757 -0.0702 -0.3646
15938TIP3    H169229   3.533   3.807  15.532 -1.5368 -0.1212 -1.2709
15938TIP3    H269230   3.509   3.787  15.681  0.2267  0.6790 -0.8495
15939TIP3   OH269231   1.371   4.480   2.609 -0.1203  0.4004  0.0879
15939TIP3    H169232   1.440   4.419   2.632 -1.1331 -0.6914  0.2914
15939TIP3    H269233   1.406   4.530   2.535  0.0275 -1.7414 -1.3625
15940TIP3   OH269234   0.865   2.746  11.529 -0.1664 -0.4427  0.2966
15940TIP3    H169235   0.844   2.799  11.607 -3.7085 -0.7248 -0.2615
15940TIP3    H269236   0.882   2.659  11.564 -1.1138 -0.4262  0.8670
15941TIP3   OH269237   3.276   4.693   2.578  0.1959  0.6428  0.4507
15941TIP3    H169238   3.207   4.639   2.618 -0.9040  1.9200  0.3681
15941TIP3    H269239   3.255   4.693   2.485  0.8176  0.3674  0.3059
15942TIP3   OH269240   3.386   1.868   0.308 -0.2227  0.6454  0.3402
15942TIP3    H169241   3.334   1.947   0.326 -0.8877  0.4077 -0.4843
15942TIP3    H269242   3.388   1.861   0.213 -1.1826 -0.9754  0.4010
15943TIP3   OH269243   6.017   1.785   2.413 -0.6749 -0.0928  0.0979
15943TIP3    H169244   5.961   1.840   2.467  0.7222 -0.0239  1.5670
15943TIP3    H269245   6.101   1.830   2.412  0.0171 -1.3336 -0.1018
15944TIP3   OH269246   4.473   5.712  11.541 -0.2388 -0.4058 -0.3105
15944TIP3    H169247   4.439   5.715  11.452  3.2813  1.9354 -1.7926
15944TIP3    H269248   4.543   5.648  11.538  0.9042  0.7744  0.3146
15945TIP3   OH269249   3.813   3.160   5.612  0.0921 -0.5572  0.2027
15945TIP3    H169250   3.745   3.179   5.677 -0.6789 -2.4024 -0.0120
15945TIP3    H269251   3.894   3.155   5.662 -0.1747  0.0637  0.7105
15946TIP3   OH269252   3.305   1.753  14.449 -0.3776 -0.4293  0.1770
15946TIP3    H169253   3.391   1.796  14.453 -0.6394  0.0265  1.1619
15946TIP3    H269254   3.323   1.662  14.473  0.1519 -0.8920 -1.7502
15947TIP3   OH269255   1.774   0.936  13.177  0.2967 -0.3831  0.5208
15947TIP3    H169256   1.701   0.998  13.182  1.0540  0.4964  0.9528
15947TIP3    H269257   1.836   0.967  13.243  1.6421 -0.3618 -0.7004
15948TIP3   OH269258   6.044   1.553   2.660 -0.0165  0.3506 -0.7825
15948TIP3    H169259   6.086   1.564   2.575  0.9530 -1.3797 -0.5733
15948TIP3    H269260   5.997   1.470   2.652 -2.3756  1.5936 -0.5672
15949TIP3   OH269261   2.531   3.688  13.243 -0.1247  0.0283 -0.8690
15949TIP3    H169262   2.558   3.600  13.269  0.1691 -0.0152 -1.3212
15949TIP3    H269263   2.586   3.709  13.168  0.2216  0.8317 -0.3934
15950TIP3   OH269264   3.656   4.179  10.966  0.8002 -0.0415  0.4577
15950TIP3    H169265   3.660   4.156  11.058 -1.0271  1.3913  0.9504
15950TIP3    H269266   3.739   4.224  10.949  1.4619 -0.9612  1.2000
15951TIP3   OH269267   6.154   5.186  14.490 -0.3625  0.3116  0.5077
15951TIP3    H169268   6.234   5.166  14.538 -0.7042 -2.7261 -0.0306
15951TIP3    H269269   6.181   5.249  14.423  1.1557  0.7015  1.4298
15952TIP3   OH269270   0.210   1.938  15.315  0.5171 -0.2276  0.2219
15952TIP3    H169271   0.161   1.958  15.235  1.1253  0.6326  0.0475
15952TIP3    H269272   0.175   1.999  15.380  0.3877 -0.5704  0.4750
15953TIP3   OH269273   5.939   0.325   2.708 -0.1173 -0.1268 -0.3608
15953TIP3    H169274   5.857   0.338   2.755 -1.4534 -0.6726 -2.3777
15953TIP3    H269275   6.001   0.297   2.775 -1.0916  1.8960  1.5204
15954TIP3   OH269276   0.517   5.681  11.140 -0.2692  0.2688  0.6022
15954TIP3    H169277   0.436   5.721  11.110 -0.5575  0.2202  1.2958
15954TIP3    H269278   0.519   5.699  11.234 -1.3639 -2.9565  1.3640
15955TIP3   OH269279   2.968   5.446  14.994  0.2360 -0.2558 -0.8106
15955TIP3    H169280   2.978   5.459  15.088 -2.4937  2.3054 -0.7308
15955TIP3    H269281   2.997   5.356  14.979  2.5189 -0.1509  2.1063
15956TIP3   OH269282   1.240   0.957  14.554 -0.0520  0.1721 -0.1775
15956TIP3    H169283   1.283   0.953  14.639 -0.4175  0.1215  0.0059
15956TIP3    H269284   1.164   1.013  14.568 -0.4223 -0.2880 -0.3302
15957TIP3   OH269285   5.999   6.746   2.884  0.5081 -0.1343 -0.4288
15957TIP3    H169286   5.998   6.677   2.951  0.4715  0.9881  0.7585
15957TIP3    H269287   5.924   6.726   2.828  1.5529 -2.1053 -1.2435
15958TIP3   OH269288   5.334   3.879   1.090 -0.0600 -0.0557 -0.2363
15958TIP3    H169289   5.416   3.929   1.092 -0.2015  0.2121  2.2429
15958TIP3    H269290   5.360   3.790   1.113 -0.3854 -0.0444  0.2064
15959TIP3   OH269291   2.483   5.662  17.117  0.2847 -0.4421  0.1077
15959TIP3    H169292   2.485   5.577  17.161 -0.7567 -0.7115 -0.3461
15959TIP3    H269293   2.569   5.700  17.135  0.8094 -1.6405  0.2145
15960TIP3   OH269294   4.632   3.883  14.529 -0.0244 -0.1242 -0.2921
15960TIP3    H169295   4.599   3.972  14.515  0.4367 -0.0714 -1.0414
15960TIP3    H269296   4.641   3.876  14.624 -1.1800  0.2255 -0.1402
15961TIP3   OH269297   2.377   2.518  13.703  0.2003  0.4928 -0.5190
15961TIP3    H169298   2.314   2.487  13.638 -1.6129 -0.9749  1.7824
15961TIP3    H269299   2.328   2.583  13.753  0.0552 -1.3980  1.9544
15962TIP3   OH269300   3.603   6.026   0.288 -0.0052 -0.1079 -0.8763
15962TIP3    H169301   3.639   6.078   0.216 -1.6241  2.7530  0.2443
15962TIP3    H269302   3.508   6.030   0.274 -0.2865 -0.4818  0.7985
15963TIP3   OH269303   1.826   3.535  15.090  0.5641 -0.3625  0.2268
15963TIP3    H169304   1.790   3.541  15.179  1.6360  0.8909  0.6063
15963TIP3    H269305   1.921   3.531  15.103  0.7423  0.0792 -0.8730
15964TIP3   OH269306   0.605   2.788  12.952 -0.5534  0.0633 -0.0748
15964TIP3    H169307   0.698   2.812  12.959 -0.6899  0.2142  1.4862
15964TIP3    H269308   0.594   2.718  13.015 -1.4253 -0.2555 -0.5699
15965TIP3   OH269309   4.113   6.690   2.603  0.3504  0.4713  0.2959
15965TIP3    H169310   4.204   6.721   2.600 -0.1374  2.0363  0.9834
15965TIP3    H269311   4.120   6.596   2.587  1.8714  0.9263 -2.3774
15966TIP3   OH269312   1.931   1.276  16.489  0.7705  0.2284 -0.0187
15966TIP3    H169313   1.945   1.209  16.555  2.7963  1.5760  1.0079
15966TIP3    H269314   1.843   1.310  16.507  0.2827 -1.1436  0.3102
15967TIP3   OH269315   6.097   5.609  16.056  0.0887 -1.0237 -0.0989
15967TIP3    H169316   6.185   5.628  16.089 -0.4491  0.9181  0.4089
15967TIP3    H269317   6.100   5.635  15.964 -1.5605  6.1295  1.2661
15968TIP3   OH269318   0.944   4.191   0.647  0.1159  0.3953 -0.2629
15968TIP3    H169319   0.865   4.232   0.614  0.5646  2.1378  0.6937
15968TIP3    H269320   1.006   4.264   0.659  1.7395 -0.8548 -0.6170
15969TIP3   OH269321   6.362   6.696   5.856  0.2682  0.3703 -0.1703
15969TIP3    H169322   6.312   6.667   5.780  0.7134 -1.5056  0.1990
15969TIP3    H269323   6.411   6.619   5.883  0.7115  1.2078  1.5653
15970TIP3   OH269324   0.660   2.872   5.530  0.1095 -0.2475  0.0218
15970TIP3    H169325   0.684   2.950   5.480 -1.0043 -0.4450 -0.8625
15970TIP3    H269326   0.650   2.904   5.620 -0.0096  0.5660 -0.2670
15971TIP3   OH269327   0.900   2.317   2.987 -0.3228  0.4788  0.3619
15971TIP3    H169328   0.915   2.247   2.924  0.2520  0.5087  0.4533
15971TIP3    H269329   0.828   2.286   3.041 -0.2079  0.0485  0.2745
15972TIP3   OH269330   0.248   1.532   3.081 -0.9171  0.0442  0.0042
15972TIP3    H169331   0.292   1.527   3.166 -2.0760  0.0141  0.6192
15972TIP3    H269332   0.192   1.454   3.078 -1.3715  0.3819 -0.5068
15973TIP3   OH269333   1.727   5.840  16.509 -0.6342 -0.0761  0.0984
15973TIP3    H169334   1.664   5.779  16.547 -0.2803 -0.4094  0.1553
15973TIP3    H269335   1.704   5.842  16.416 -0.3019 -0.7223 -0.0038
15974TIP3   OH269336   0.069   5.155  12.356 -0.0393 -0.0147  0.0982
15974TIP3    H169337  -0.018   5.123  12.334  0.5064 -1.7889  0.3843
15974TIP3    H269338   0.053   5.234  12.408 -1.4413  0.0556 -0.3970
15975TIP3   OH269339   0.762   1.268  13.999 -0.1696 -0.1171  0.2047
15975TIP3    H169340   0.709   1.247  13.922  2.7569 -1.0063 -1.7182
15975TIP3    H269341   0.766   1.186  14.049 -0.8519  0.0542  0.5547
15976TIP3   OH269342   3.377   0.406   3.866  0.2039  0.4671  0.3714
15976TIP3    H169343   3.408   0.476   3.925  2.4395 -1.1974  1.3204
15976TIP3    H269344   3.454   0.382   3.816 -1.0490  0.0406 -1.4354
15977TIP3   OH269345   4.922   5.129  12.434 -0.5831 -0.0596 -0.3506
15977TIP3    H169346   4.863   5.198  12.404 -2.8889 -1.7014  0.1585
15977TIP3    H269347   4.891   5.050  12.391  1.8515 -0.8880 -0.7560
15978TIP3   OH269348   3.971   6.575   5.822 -0.4508  0.6832 -0.0033
15978TIP3    H169349   4.037   6.628   5.867 -1.0209  2.0808 -0.7690
15978TIP3    H269350   3.895   6.578   5.880 -0.0784 -0.4336  0.5872
15979TIP3   OH269351   1.313   3.655  10.524  0.2857  0.3586 -0.4704
15979TIP3    H169352   1.233   3.681  10.478 -0.5114 -0.0438  0.6231
15979TIP3    H269353   1.287   3.576  10.572  1.4215  0.0772 -0.3025
15980TIP3   OH269354   0.318   4.753   3.187  0.4410  0.0663  0.3286
15980TIP3    H169355   0.364   4.778   3.267  0.1697 -2.7557  1.4786
15980TIP3    H269356   0.321   4.658   3.186 -1.9030 -0.0969 -1.6548
15981TIP3   OH269357   5.371   2.797  13.379  0.0288  0.1329  0.9988
15981TIP3    H169358   5.395   2.889  13.367  0.2138 -0.0879 -0.4664
15981TIP3    H269359   5.284   2.800  13.419 -1.7888  1.0244 -2.6668
15982TIP3   OH269360   2.514   0.949   3.880 -0.1238  0.5170 -0.3979
15982TIP3    H169361   2.549   1.019   3.935  1.0756 -0.8288  0.6226
15982TIP3    H269362   2.547   0.968   3.792  1.4158  0.4649  0.1397
15983TIP3   OH269363   1.032   0.597  15.659 -0.3813  0.7107  0.1921
15983TIP3    H169364   1.084   0.597  15.740 -0.7105  2.3748  0.4381
15983TIP3    H269365   1.072   0.529  15.605 -0.6736 -1.0473  2.0545
15984TIP3   OH269366   4.867   1.415   4.772  0.3456  0.0535  0.4386
15984TIP3    H169367   4.778   1.444   4.752  0.9347  0.9329 -1.1155
15984TIP3    H269368   4.891   1.359   4.698  1.1531 -0.0321  0.7592
15985TIP3   OH269369   1.470   2.807   0.566 -0.0317  0.7863  0.0253
15985TIP3    H169370   1.468   2.848   0.652  0.6525  1.8194 -0.4249
15985TIP3    H269371   1.564   2.792   0.549 -0.1757  0.3694 -0.4336
15986TIP3   OH269372   1.113   5.722   4.307  0.0263 -0.5101  0.6374
15986TIP3    H169373   1.072   5.637   4.289  0.6306 -1.0628  1.7877
15986TIP3    H269374   1.157   5.745   4.225 -0.0751 -1.3474  0.3360
15987TIP3   OH269375   4.681   1.411  16.593  0.9297 -0.3050 -0.3395
15987TIP3    H169376   4.766   1.370  16.576  0.1774 -1.0796 -2.6583
15987TIP3    H269377   4.617   1.347  16.561 -0.6013 -0.0628  2.0241
15988TIP3   OH269378   4.144   3.876  11.792  0.6218  1.1210 -0.3995
15988TIP3    H169379   4.088   3.943  11.831  0.8171  1.9005 -1.4102
15988TIP3    H269380   4.083   3.820  11.744  0.3476 -0.0060  1.1989
15989TIP3   OH269381   4.625   3.123  16.890 -0.1371 -0.4184  0.4603
15989TIP3    H169382   4.540   3.164  16.905 -0.0804  0.6705 -1.7944
15989TIP3    H269383   4.622   3.092  16.800  0.7019 -3.4129  1.3376
15990TIP3   OH269384   2.511   4.181  11.778 -0.1800  0.0483 -0.0114
15990TIP3    H169385   2.416   4.191  11.784 -0.2372 -0.3509 -0.2382
15990TIP3    H269386   2.534   4.121  11.848 -0.1149  0.0134 -0.0620
15991TIP3   OH269387   3.769   1.711  16.769  0.3542  0.0271 -0.0624
15991TIP3    H169388   3.697   1.756  16.724 -0.0042 -0.7440 -0.2792
15991TIP3    H269389   3.846   1.763  16.747 -0.3960  2.3563  2.1805
15992TIP3   OH269390   5.206   1.327  10.805  0.1805 -0.1039 -0.2836
15992TIP3    H169391   5.120   1.340  10.845  0.4908  0.7886  0.1281
15992TIP3    H269392   5.211   1.395  10.737  0.3318 -0.5324 -0.7115
15993TIP3   OH269393   3.995   0.810  13.147 -0.0235  0.0225 -0.0950
15993TIP3    H169394   4.011   0.733  13.092 -0.5070 -1.6313  1.9183
15993TIP3    H269395   3.918   0.852  13.107  0.5409 -0.2297 -1.5106
15994TIP3   OH269396   5.069   1.477  14.381 -0.4876 -0.1389 -0.2382
15994TIP3    H169397   4.988   1.492  14.431  0.0865 -0.3086  0.7790
15994TIP3    H269398   5.138   1.483  14.447  0.1346 -2.7508 -0.5470
15995TIP3   OH269399   4.776   5.025  16.999 -0.0931  0.4196 -0.1911
15995TIP3    H169400   4.769   4.969  17.076  1.0883 -0.2620 -0.5525
15995TIP3    H269401   4.855   4.995  16.955 -1.9514 -0.8520 -2.9684
15996TIP3   OH269402   6.043   2.432   4.763 -0.1137  0.6296 -0.0751
15996TIP3    H169403   6.074   2.463   4.677 -0.1256  2.3330  0.4926
15996TIP3    H269404   6.105   2.469   4.825  0.9126 -2.0383  0.5775
15997TIP3   OH269405   3.557   4.737   0.715  0.0749  0.1782 -0.0932
15997TIP3    H169406   3.535   4.654   0.758 -0.7540  0.4495  0.0176
15997TIP3    H269407   3.476   4.763   0.671  0.9476 -0.1824 -2.0157
15998TIP3   OH269408   0.894   2.337  12.715  0.2808  0.4525 -0.1704
15998TIP3    H169409   0.798   2.335  12.710  0.1504  0.3122  1.6814
15998TIP3    H269410   0.919   2.413  12.662 -0.9907  1.4918  0.6456
15999TIP3   OH269411   6.366   2.055   2.879  0.3476  0.3397  0.0184
15999TIP3    H169412   6.306   2.018   2.944  0.8883 -2.6295 -1.0254
15999TIP3    H269413   6.309   2.082   2.807  0.0875 -0.8540 -0.2445
16000TIP3   OH269414   2.592   4.331  11.319  0.2662  0.2423 -0.6447
16000TIP3    H169415   2.601   4.405  11.258  1.9191  0.8136  0.2412
16000TIP3    H269416   2.535   4.364  11.389  0.7514  0.5876 -0.4077
16001TIP3   OH269417   2.189   2.540  14.620  0.3555 -0.1518 -0.0486
16001TIP3    H169418   2.168   2.510  14.708  0.4535 -0.2414 -0.0550
16001TIP3    H269419   2.281   2.568  14.626 -0.5166  2.9866  0.7332
16002TIP3   OH269420   5.610   4.598   4.769  0.0369 -0.3854  0.0550
16002TIP3    H169421   5.597   4.658   4.695  1.1358  1.8635  1.5540
16002TIP3    H269422   5.696   4.558   4.752  0.2621  0.0825  0.0764
16003TIP3   OH269423   4.551   3.753  11.857 -0.0328 -0.2924  0.5705
16003TIP3    H169424   4.582   3.686  11.796  0.8777  1.2365 -0.7231
16003TIP3    H269425   4.487   3.804  11.807 -1.6317 -0.8929  1.9226
16004TIP3   OH269426   0.178   4.147  14.607  0.4645 -0.1987  0.3144
16004TIP3    H169427   0.197   4.076  14.546 -0.8999 -0.2834 -0.0489
16004TIP3    H269428   0.242   4.215  14.586 -0.7238  0.2772 -2.0959
16005TIP3   OH269429   2.916   4.926  14.513  0.0733 -0.2232  0.2982
16005TIP3    H169430   2.881   4.853  14.564  2.0700 -2.4657 -1.2895
16005TIP3    H269431   2.990   4.958  14.563  2.0775 -2.4695 -1.0081
16006TIP3   OH269432   4.770   2.958  13.764  0.4680  0.0651  0.2631
16006TIP3    H169433   4.767   3.048  13.796 -0.0964 -0.0426  0.5322
16006TIP3    H269434   4.679   2.938  13.741  0.6758 -0.2661 -0.2799
16007TIP3   OH269435   3.556   4.257   0.240 -0.9548  0.5413 -0.0774
16007TIP3    H169436   3.650   4.239   0.232 -0.9836  0.3126  0.0976
16007TIP3    H269437   3.546   4.346   0.208 -0.7456  0.3975 -0.5549
16008TIP3   OH269438   4.061   3.801   0.400  0.0838  0.3188 -0.0842
16008TIP3    H169439   4.138   3.768   0.445 -0.7452 -1.2232  0.2834
16008TIP3    H269440   4.047   3.888   0.437  0.5503 -0.1406  1.2552
16009TIP3   OH269441   3.370   2.537  14.429  0.8214  0.7248 -0.3893
16009TIP3    H169442   3.443   2.556  14.488  1.1647 -2.3794  0.3612
16009TIP3    H269443   3.411   2.519  14.345  1.2604 -2.6296  0.4043
16010TIP3   OH269444   4.002   4.429  13.208 -0.5722  0.0990  0.1027
16010TIP3    H169445   4.040   4.448  13.123  0.2161  0.2799  0.4776
16010TIP3    H269446   3.945   4.503  13.227 -1.3727 -0.3256 -0.6083
16011TIP3   OH269447   1.817   6.153   4.523 -0.2048 -0.3366  0.0448
16011TIP3    H169448   1.784   6.079   4.574 -0.2718  0.0009  0.5053
16011TIP3    H269449   1.762   6.156   4.445  0.2262 -1.1765 -0.3018
16012TIP3   OH269450   2.029   6.069  10.539  0.3054 -0.0899 -0.7334
16012TIP3    H169451   2.000   6.159  10.522 -1.7203 -0.3321  1.0380
16012TIP3    H269452   2.085   6.076  10.616 -1.8367 -0.5524  0.9511
16013TIP3   OH269453   2.248   3.527   5.574  0.0683 -0.0441 -0.0059
16013TIP3    H169454   2.340   3.511   5.555  0.0553  0.5488 -0.5902
16013TIP3    H269455   2.203   3.450   5.541  0.5227 -1.2892  2.0559
16014TIP3   OH269456   2.841   3.520  11.183 -0.0039 -0.0822  0.1336
16014TIP3    H169457   2.767   3.461  11.170  0.3985 -0.4402 -0.5716
16014TIP3    H269458   2.846   3.570  11.101  1.7394 -1.4330 -0.6497
16015TIP3   OH269459   3.811   6.033   3.871 -0.0548  0.3814 -0.2436
16015TIP3    H169460   3.875   6.100   3.895  0.0958  0.2649 -0.3169
16015TIP3    H269461   3.791   5.988   3.953 -0.5517  0.8560 -0.0986
16016TIP3   OH269462   0.996   0.228  14.807  0.0610  0.0304  0.1302
16016TIP3    H169463   0.940   0.180  14.745 -0.1895 -0.9383  1.0872
16016TIP3    H269464   1.050   0.284  14.751 -0.7084 -0.2356 -0.9193
16017TIP3   OH269465   2.669   5.771   4.027  0.9759  0.0295  0.4909
16017TIP3    H169466   2.589   5.750   3.979  1.4682 -1.7993  0.3933
16017TIP3    H269467   2.639   5.827   4.100 -0.5592 -1.4142  1.0369
16018TIP3   OH269468   2.144   1.185  13.175 -0.2843 -0.1277  0.3983
16018TIP3    H169469   2.200   1.234  13.115 -1.0792 -0.0746 -0.3306
16018TIP3    H269470   2.132   1.243  13.250 -0.4393  0.4095 -0.0366
16019TIP3   OH269471   2.651   1.349  13.778  0.1282  0.0161  0.4078
16019TIP3    H169472   2.611   1.338  13.865  0.0641 -1.0364  0.2568
16019TIP3    H269473   2.589   1.404  13.731 -0.1264  0.1147  0.8471
16020TIP3   OH269474   4.372   1.143  11.758  0.5136 -0.5292  0.0847
16020TIP3    H169475   4.282   1.168  11.738  1.0739 -0.1767 -2.3796
16020TIP3    H269476   4.418   1.227  11.767  1.0639 -0.6587 -1.2936
16021TIP3   OH269477   0.840   3.349   1.502  0.3599 -0.5351  0.3450
16021TIP3    H169478   0.870   3.424   1.554 -0.9159  1.8280 -2.1041
16021TIP3    H269479   0.757   3.323   1.544 -1.1308  1.9271 -0.8379
16022TIP3   OH269480   0.721   1.844  12.519 -0.1582 -0.1835  0.4807
16022TIP3    H169481   0.746   1.937  12.515 -1.8869  0.3911  1.7468
16022TIP3    H269482   0.659   1.834  12.446 -0.6493 -0.0872  0.8748
16023TIP3   OH269483   0.082   4.470   2.704 -0.4954  0.3149 -0.1119
16023TIP3    H169484   0.052   4.383   2.728  0.1053  0.1279 -0.0244
16023TIP3    H269485   0.160   4.455   2.650 -0.6586  0.7857 -0.4853
16024TIP3   OH269486   4.545   4.315  14.739 -0.9701  0.5956 -0.2879
16024TIP3    H169487   4.618   4.260  14.768 -2.2570 -0.2300  1.6407
16024TIP3    H269488   4.578   4.404  14.745 -0.2530  0.2731  1.0893
16025TIP3   OH269489   2.665   1.582  11.848 -0.0901 -0.4761  0.3491
16025TIP3    H169490   2.671   1.501  11.797  1.9967 -0.1131 -0.1009
16025TIP3    H269491   2.673   1.554  11.939 -2.0384 -0.9771  0.3946
16026TIP3   OH269492   5.485   2.544   2.220  0.3828  0.0882 -0.1051
16026TIP3    H169493   5.459   2.596   2.296 -0.5362 -0.2427 -0.1839
16026TIP3    H269494   5.459   2.455   2.241  2.8102 -0.5618  0.4407
16027TIP3   OH269495   5.122   1.310  12.199 -0.2458  0.3826 -0.8770
16027TIP3    H169496   5.095   1.391  12.242  1.1022  0.4963 -0.2021
16027TIP3    H269497   5.155   1.339  12.113  1.9129  0.8130  0.0415
16028TIP3   OH269498   4.807   2.671   4.473 -0.2580  0.1501 -0.2831
16028TIP3    H169499   4.798   2.675   4.568  1.8949  1.7102 -0.0875
16028TIP3    H269500   4.727   2.627   4.444 -0.6558 -1.0131  2.2746
16029TIP3   OH269501   2.354   3.162  13.092 -0.1466 -0.1004  0.3112
16029TIP3    H169502   2.430   3.126  13.047 -0.0696  0.4266  0.0092
16029TIP3    H269503   2.304   3.206  13.023 -0.1464  0.5129  0.6923
16030TIP3   OH269504   3.814   0.369  12.635 -0.6783 -0.3756 -0.3253
16030TIP3    H169505   3.748   0.301  12.622  2.3924 -4.0296  1.2042
16030TIP3    H269506   3.860   0.374  12.551  0.4090 -1.9086  0.1273
16031TIP3   OH269507   1.879   3.821  16.449 -0.0018  0.3582 -0.4064
16031TIP3    H169508   1.806   3.766  16.422 -0.9140  0.1123  2.3500
16031TIP3    H269509   1.932   3.766  16.506  0.1110  1.7073  0.8630
16032TIP3   OH269510   0.582   4.288   0.927 -0.6602  0.6340  0.3857
16032TIP3    H169511   0.566   4.197   0.904 -0.2847  0.4867  0.6893
16032TIP3    H269512   0.662   4.286   0.981 -0.8446  1.0978  0.6919
16033TIP3   OH269513   6.607   1.551   4.207  0.1845 -0.0223 -0.4220
16033TIP3    H169514   6.643   1.636   4.181 -0.3912 -0.4439 -2.8824
16033TIP3    H269515   6.622   1.495   4.131  1.8455 -2.5986  1.6129
16034TIP3   OH269516   1.351   0.611   5.506  0.0331 -0.3633 -0.8039
16034TIP3    H169517   1.377   0.653   5.424 -0.0591 -0.4391 -0.8727
16034TIP3    H269518   1.263   0.644   5.523  0.5269  0.6274 -0.0749
16035TIP3   OH269519   3.874   4.474  16.094  0.0957 -0.6218  0.2791
16035TIP3    H169520   3.796   4.458  16.147  0.5924  0.0707  1.2477
16035TIP3    H269521   3.877   4.400  16.032 -0.7703 -1.1751  0.8871
16036TIP3   OH269522   3.118   2.067  11.218  0.3644 -0.2227  0.6617
16036TIP3    H169523   3.094   2.157  11.242  0.0966  0.1546 -0.8769
16036TIP3    H269524   3.137   2.072  11.125  0.0874 -1.8238  0.4910
16037TIP3   OH269525   0.054   1.858   3.665 -0.2522 -0.2433  0.1973
16037TIP3    H169526  -0.002   1.872   3.588  1.6111 -1.8324 -1.5977
16037TIP3    H269527   0.072   1.945   3.698 -0.5136  0.5678 -1.6541
16038TIP3   OH269528   2.774   6.051  12.581 -0.0319  0.2143  0.3180
16038TIP3    H169529   2.800   6.079  12.494  1.2246  1.1586  0.9696
16038TIP3    H269530   2.769   5.956  12.576  0.4704  0.2334 -0.6522
16039TIP3   OH269531   0.211   1.642  11.124  0.4129 -0.3813 -0.1406
16039TIP3    H169532   0.135   1.699  11.111  1.4049  0.7279 -1.3325
16039TIP3    H269533   0.247   1.668  11.209 -0.1236 -0.4241  0.1044
16040TIP3   OH269534   1.495   1.179   1.977  0.2309 -0.1382 -0.4670
16040TIP3    H169535   1.500   1.084   1.963 -1.4337 -0.4053  0.3991
16040TIP3    H269536   1.440   1.188   2.055  1.9246  1.4992  0.5991
16041TIP3   OH269537   3.669   1.092   2.489  0.1520 -0.3832 -0.4565
16041TIP3    H169538   3.605   1.022   2.502  0.5489 -0.6095  0.3481
16041TIP3    H269539   3.703   1.076   2.401  0.8733 -1.7610  0.0411
16042TIP3   OH269540   1.371   4.036  13.708 -0.3075  0.2011 -0.0159
16042TIP3    H169541   1.380   3.975  13.635 -1.6714 -0.7947  0.6028
16042TIP3    H269542   1.435   4.105  13.690  0.4864 -0.8302 -1.3180
16043TIP3   OH269543   2.065   6.461   2.722  0.1415 -0.3418  0.1969
16043TIP3    H169544   2.084   6.484   2.631 -1.2386 -1.2848 -0.3647
16043TIP3    H269545   2.039   6.369   2.719 -1.6249  0.0660  1.2642
16044TIP3   OH269546   3.882   0.965  14.738 -0.1122 -0.1389  0.1022
16044TIP3    H169547   3.851   0.874  14.747 -0.5773 -0.1681 -1.4730
16044TIP3    H269548   3.958   0.958  14.680 -1.2373  0.6416 -1.5334
16045TIP3   OH269549   3.498   0.538  11.727 -0.6186  0.0618  0.0924
16045TIP3    H169550   3.533   0.526  11.816  0.4911 -0.1894 -0.3654
16045TIP3    H269551   3.553   0.483  11.672 -0.3852  1.3036 -0.9531
16046TIP3   OH269552   2.367   0.932  15.483  0.4751 -0.2250  0.1889
16046TIP3    H169553   2.434   0.878  15.442 -0.1111  0.7457 -2.1815
16046TIP3    H269554   2.293   0.929  15.422 -0.9395  0.2876  1.8005
16047TIP3   OH269555   0.615   1.838   0.730  0.4470  0.3236 -0.0618
16047TIP3    H169556   0.699   1.793   0.730  0.7421  0.8570  0.6689
16047TIP3    H269557   0.575   1.816   0.814  0.1581  0.6186 -0.1191
16048TIP3   OH269558   1.231   6.697  16.776  0.5093  0.2056 -0.3048
16048TIP3    H169559   1.243   6.771  16.716  0.3704 -0.8577 -1.6915
16048TIP3    H269560   1.140   6.703  16.803  0.5774  0.7032 -0.1672
16049TIP3   OH269561   5.518   6.101  11.360 -0.1055  0.5477 -0.5273
16049TIP3    H169562   5.569   6.176  11.332  1.9355 -0.5531  0.0396
16049TIP3    H269563   5.506   6.049  11.281  1.3599 -0.1138 -0.3550
16050TIP3   OH269564   3.558   2.836   1.927 -0.5143  1.0652  0.3318
16050TIP3    H169565   3.616   2.762   1.909 -1.1071  0.5016  0.7113
16050TIP3    H269566   3.602   2.882   1.999 -0.5565  0.6167  0.6479
16051TIP3   OH269567   0.333   4.490  13.911  0.3256 -0.2017 -0.5107
16051TIP3    H169568   0.403   4.505  13.975 -0.1611 -0.1849  0.0280
16051TIP3    H269569   0.375   4.439  13.841  1.0425  0.3875 -0.5243
16052TIP3   OH269570   3.310   5.660  11.944  0.0462  0.0572 -0.4368
16052TIP3    H169571   3.305   5.605  11.866 -3.3384 -0.6413  0.1174
16052TIP3    H269572   3.270   5.743  11.917  1.4619  0.8607 -0.1641
16053TIP3   OH269573   0.701   2.219  13.970  0.2350  0.1006  0.0038
16053TIP3    H169574   0.668   2.256  14.052  1.4708 -1.7291  1.4193
16053TIP3    H269575   0.785   2.265  13.955 -0.8200  1.7442 -1.3170
16054TIP3   OH269576   0.979   0.320   0.297  0.8493  0.5821  0.0708
16054TIP3    H169577   0.888   0.304   0.322  0.9797  1.7164  1.3599
16054TIP3    H269578   0.974   0.396   0.238  0.6271 -1.6011 -2.9489
16055TIP3   OH269579   5.748   1.721   2.217  0.1015 -0.0139  0.4080
16055TIP3    H169580   5.756   1.814   2.196  0.0363 -0.6332 -3.0123
16055TIP3    H269581   5.718   1.719   2.308 -0.8352  3.3110  0.3038
16056TIP3   OH269582   1.491   6.073  12.583  0.3232 -0.1699 -0.2916
16056TIP3    H169583   1.582   6.065  12.554  0.1091 -0.6234 -0.8439
16056TIP3    H269584   1.444   6.005  12.535 -0.0262 -0.9921  1.1663
16057TIP3   OH269585   5.327   2.121  14.293 -0.0714  0.2473 -0.1265
16057TIP3    H169586   5.267   2.048  14.312 -0.2355  0.6611  1.0041
16057TIP3    H269587   5.271   2.188  14.255 -0.1702  0.3132  0.1359
16058TIP3   OH269588   5.648   2.598  14.242  0.4897  0.5095  0.2958
16058TIP3    H169589   5.677   2.653  14.170 -1.4869 -0.7724 -1.6106
16058TIP3    H269590   5.579   2.543  14.204 -0.3989 -0.4813  3.0955
16059TIP3   OH269591   3.036   6.595   4.553  0.2129 -0.5751  0.0166
16059TIP3    H169592   3.001   6.518   4.598 -0.7890 -0.3798 -0.4081
16059TIP3    H269593   2.996   6.592   4.466  1.5078 -0.5118 -0.6082
16060TIP3   OH269594   3.194   1.339  12.661 -0.1659  0.0524 -0.0453
16060TIP3    H169595   3.210   1.427  12.696 -0.0071  0.1920 -0.4602
16060TIP3    H269596   3.245   1.336  12.581  1.1978 -1.0160  0.8148
16061TIP3   OH269597   4.370   4.385   1.540 -0.3915 -0.1619 -0.5248
16061TIP3    H169598   4.399   4.316   1.600 -0.9353 -0.9018 -1.1041
16061TIP3    H269599   4.451   4.428   1.512 -0.0897 -0.2054  0.2515
16062TIP3   OH269600   5.164   1.915  13.503 -0.0002 -0.3882 -0.2969
16062TIP3    H169601   5.159   1.899  13.409  0.2052 -0.4810 -0.2922
16062TIP3    H269602   5.211   1.839  13.538  1.0966  0.2751 -0.2877
16063TIP3   OH269603   2.165   3.692   3.065 -0.3560 -0.2422 -0.1851
16063TIP3    H169604   2.231   3.730   3.122  0.0978  0.7398 -1.3265
16063TIP3    H269605   2.082   3.727   3.098 -0.0709  0.5623 -0.2881
16064TIP3   OH269606   2.815   3.463   4.734 -0.1244  0.6295  0.2889
16064TIP3    H169607   2.782   3.509   4.657 -0.5758  0.3330  0.2988
16064TIP3    H269608   2.904   3.437   4.710 -0.2437  0.5860 -0.1182
16065TIP3   OH269609   2.199   5.063  16.418  0.2012  0.0375 -0.0517
16065TIP3    H169610   2.153   5.012  16.484  0.3381  1.5175  1.2565
16065TIP3    H269611   2.287   5.025  16.414  0.5592  0.6513  1.4958
16066TIP3   OH269612   4.949   6.609  13.744 -1.1073 -0.8711 -0.4045
16066TIP3    H169613   4.933   6.621  13.837 -0.3353 -2.0418 -0.0897
16066TIP3    H269614   4.938   6.515  13.729  1.0098 -1.0976 -0.9965
16067TIP3   OH269615   1.629   4.527  11.202 -0.2527  0.4277 -0.3107
16067TIP3    H169616   1.723   4.530  11.216 -0.3737  2.3505  0.4003
16067TIP3    H269617   1.618   4.493  11.114  1.0627 -0.4751 -0.1471
16068TIP3   OH269618   2.989   3.707  15.219 -0.1087  0.0528  0.0951
16068TIP3    H169619   2.985   3.728  15.126  0.5548  2.6584  0.5673
16068TIP3    H269620   3.079   3.730  15.244 -0.5724  0.3754  1.5607
16069TIP3   OH269621   1.723   0.343   0.016 -0.0269  0.3143  0.0813
16069TIP3    H169622   1.662   0.272  -0.006 -0.1786  0.5110 -0.1334
16069TIP3    H269623   1.798   0.327  -0.041 -0.1732  0.4788 -0.1626
16070TIP3   OH269624   6.107   3.384   1.087 -0.2047  0.4758  0.2007
16070TIP3    H169625   6.141   3.309   1.037  1.5256  0.4374  1.3551
16070TIP3    H269626   6.084   3.449   1.020  2.9306  0.7880 -0.7488
16071TIP3   OH269627   3.474   6.745  14.708  0.2507 -0.2642  0.1812
16071TIP3    H169628   3.396   6.801  14.705 -0.4185 -1.0538 -4.5689
16071TIP3    H269629   3.541   6.795  14.661  0.9993 -1.6018 -0.2342
16072TIP3   OH269630   3.583   6.453  15.227  0.1415  0.1648 -0.3454
16072TIP3    H169631   3.628   6.386  15.279 -0.3658  0.1138  0.0401
16072TIP3    H269632   3.632   6.458  15.145 -0.2668 -1.2352 -0.6987
16073TIP3   OH269633   0.218   3.145   0.872  0.0235 -0.2589  0.6486
16073TIP3    H169634   0.239   3.237   0.856  3.1140 -1.0553 -0.5475
16073TIP3    H269635   0.218   3.137   0.968 -0.5970  1.0160  0.7777
16074TIP3   OH269636   2.011   5.861   1.668 -0.1048  0.4303 -0.2777
16074TIP3    H169637   2.014   5.800   1.595  0.6436 -0.6297  0.6141
16074TIP3    H269638   1.981   5.809   1.742 -0.8759  1.4917  0.1844
16075TIP3   OH269639   1.269   3.431  13.457 -0.7036  0.3870  0.6819
16075TIP3    H169640   1.304   3.518  13.472  1.1721 -0.3900  1.1699
16075TIP3    H269641   1.338   3.385  13.408 -1.1027 -1.1632  1.4862
16076TIP3   OH269642   4.424   1.196   2.732 -0.0108 -0.2409  0.0389
16076TIP3    H169643   4.349   1.139   2.746  0.2428 -0.8263 -0.8954
16076TIP3    H269644   4.493   1.138   2.699  0.7426  0.3468  0.5330
16077TIP3   OH269645   1.685   4.739  13.010 -0.1787 -0.2846 -0.0022
16077TIP3    H169646   1.619   4.808  13.000  0.2965  0.2532  0.4641
16077TIP3    H269647   1.649   4.680  13.076 -1.3685 -1.4564 -1.6435
16078TIP3   OH269648   0.443   3.785   2.743  0.4484 -0.2072  0.2302
16078TIP3    H169649   0.418   3.843   2.815 -1.2290 -2.0998  1.2937
16078TIP3    H269650   0.536   3.769   2.755  0.3037 -0.0359  1.6540
16079TIP3   OH269651   1.379   0.268  16.134  0.1812  0.0979  0.5521
16079TIP3    H169652   1.454   0.233  16.183  1.3510  0.2497 -1.0450
16079TIP3    H269653   1.418   0.302  16.053 -1.3835  1.9297  0.5210
16080TIP3   OH269654   4.469   2.243  17.259 -0.1370 -0.1853 -0.6042
16080TIP3    H169655   4.407   2.172  17.274 -1.4476  1.2737  1.4335
16080TIP3    H269656   4.546   2.220  17.310 -0.6131 -0.0847  0.1689
16081TIP3   OH269657   3.011   6.735   3.854 -0.5206  0.1425  0.1679
16081TIP3    H169658   3.071   6.803   3.883 -0.0979  0.7834 -2.0231
16081TIP3    H269659   3.051   6.653   3.883  0.1329  0.6878  0.8384
16082TIP3   OH269660   4.788   4.502   2.871 -0.6697  0.1998  0.7242
16082TIP3    H169661   4.714   4.449   2.904  0.6165 -0.7516  2.2311
16082TIP3    H269662   4.786   4.581   2.924  1.0430 -1.0756  2.8581
16083TIP3   OH269663   3.696   5.109  17.331 -0.3175 -0.2706 -0.1766
16083TIP3    H169664   3.722   5.124  17.422  0.4611  1.5919 -0.6534
16083TIP3    H269665   3.604   5.135  17.328 -0.6222 -1.2797  0.2817
16084TIP3   OH269666   0.558   2.030   1.185 -0.0924  0.3151  0.0190
16084TIP3    H169667   0.560   2.054   1.278 -0.9433 -2.4223  0.8342
16084TIP3    H269668   0.649   2.012   1.162  0.2914  2.1448 -0.0833
16085TIP3   OH269669   2.344   0.989  13.588  0.0195 -0.0503 -0.2369
16085TIP3    H169670   2.425   0.970  13.636 -0.8024 -3.0212  0.1936
16085TIP3    H269671   2.292   1.041  13.648  0.6741 -0.1645  0.4472
16086TIP3   OH269672   4.891   0.647  12.144 -0.4963 -0.5588  0.0887
16086TIP3    H169673   4.829   0.708  12.105  0.6639  1.3698  1.0820
16086TIP3    H269674   4.975   0.666  12.101  0.1847 -0.4174  1.4094
16087TIP3   OH269675   0.042   2.109  12.168 -0.1963 -0.2027 -0.3069
16087TIP3    H169676  -0.019   2.168  12.212  1.7018  0.8632  1.0376
16087TIP3    H269677   0.099   2.077  12.238  0.5852 -1.4098 -1.4546
16088TIP3   OH269678   5.339   4.553  14.312 -0.5555 -0.2328 -0.0390
16088TIP3    H169679   5.279   4.609  14.264 -1.2833 -0.9198  0.0406
16088TIP3    H269680   5.415   4.608  14.330  0.4162 -0.3110 -3.2138
16089TIP3   OH269681   5.885   0.688  14.576  0.4513  0.1724 -0.5241
16089TIP3    H169682   5.805   0.656  14.535 -0.6111 -0.4241  1.8190
16089TIP3    H269683   5.869   0.781  14.590  0.1209  0.0411 -0.0003
16090TIP3   OH269684   1.542   5.654   0.623  0.3762  0.0722 -0.1762
16090TIP3    H169685   1.513   5.626   0.537  2.9511  0.8134 -1.3788
16090TIP3    H269686   1.587   5.578   0.660 -0.2182 -0.0664  0.2669
16091TIP3   OH269687   5.420   2.542  12.396 -0.6403 -0.1127  0.4526
16091TIP3    H169688   5.328   2.553  12.423 -0.8874 -0.6812 -0.1286
16091TIP3    H269689   5.416   2.538  12.301  0.0662  0.4616  0.3943
16092TIP3   OH269690   1.633   0.220   1.297 -0.4269 -0.5541  0.1520
16092TIP3    H169691   1.543   0.244   1.273 -0.2534  0.9407  0.8698
16092TIP3    H269692   1.683   0.300   1.283  0.5941 -1.0714  0.7831
16093TIP3   OH269693   4.774   0.610  16.970 -0.4818  0.2824 -0.2140
16093TIP3    H169694   4.832   0.639  17.041 -1.2231  0.9041  0.1486
16093TIP3    H269695   4.769   0.515  16.981 -0.2598  0.3265  0.3040
16094TIP3   OH269696   3.887   1.268   5.254  1.0550  0.1231  0.0392
16094TIP3    H169697   3.818   1.283   5.319  1.9306 -1.4173  1.3635
16094TIP3    H269698   3.853   1.197   5.199  1.5152 -0.5339  0.5991
16095TIP3   OH269699   2.649   2.301   4.377  0.6291  0.4106  0.6695
16095TIP3    H169700   2.619   2.379   4.332  0.5857 -0.4761 -0.8988
16095TIP3    H269701   2.625   2.229   4.319  0.9698 -0.7506  1.9143
16096TIP3   OH269702   1.917   3.357   4.637  0.5667  0.2082 -0.2270
16096TIP3    H169703   1.962   3.428   4.592  0.4389 -1.1086 -2.6364
16096TIP3    H269704   1.828   3.359   4.602 -0.0940  0.2101  1.3654
16097TIP3   OH269705   0.451   6.703   3.736 -0.1438  0.7388 -0.5315
16097TIP3    H169706   0.438   6.773   3.673  0.2333  0.4254 -0.9654
16097TIP3    H269707   0.363   6.677   3.763 -0.3046  0.8656 -0.9384
16098TIP3   OH269708   2.170   2.550  15.372  0.2751  0.1780 -0.2549
16098TIP3    H169709   2.181   2.584  15.461  1.2488  0.7101 -0.5709
16098TIP3    H269710   2.256   2.515  15.349 -0.4474 -1.6915 -0.2923
16099TIP3   OH269711   1.933   1.560  17.323  0.2319 -0.3953 -0.5689
16099TIP3    H169712   1.879   1.636  17.344 -1.0658 -1.4474  0.0023
16099TIP3    H269713   1.959   1.525  17.408 -0.3985 -1.4324 -0.7883
16100TIP3   OH269714   3.931   4.795   5.268  0.5309 -0.0565  0.5738
16100TIP3    H169715   3.987   4.872   5.279  1.8439 -0.8638 -0.2317
16100TIP3    H269716   3.921   4.786   5.174  0.5483 -0.9834  0.6539
16101TIP3   OH269717   0.746   4.012   3.446  0.1827  0.8271 -0.2109
16101TIP3    H169718   0.686   4.026   3.373  1.4623 -0.4926 -1.5791
16101TIP3    H269719   0.692   3.973   3.515 -0.7533  0.6709 -1.0139
16102TIP3   OH269720   2.558   0.405  11.969  0.0142 -0.2067  0.0404
16102TIP3    H169721   2.588   0.458  12.043 -0.2133 -1.6743  1.2444
16102TIP3    H269722   2.503   0.337  12.010 -0.3821 -0.8650 -1.5223
16103TIP3   OH269723   2.295   5.226   3.679  0.6672  0.2057 -0.1260
16103TIP3    H169724   2.326   5.195   3.594  1.7185  3.1240 -0.9412
16103TIP3    H269725   2.201   5.237   3.667  0.4186 -1.6124 -0.1001
16104TIP3   OH269726   3.913   2.789  14.922 -0.1405 -0.2721 -0.6332
16104TIP3    H169727   3.952   2.826  14.843  1.2158  1.7325  0.8709
16104TIP3    H269728   3.850   2.724  14.890  0.2923  0.5265 -3.3247
16105TIP3   OH269729   3.402   6.528  11.707 -0.4383  0.4298  0.1616
16105TIP3    H169730   3.357   6.595  11.655 -1.4063 -0.0589  0.3399
16105TIP3    H269731   3.349   6.521  11.787  0.2693  0.2157  0.6199
16106TIP3   OH269732   4.045   5.378   3.948 -0.2546 -0.0773  0.0342
16106TIP3    H169733   3.957   5.399   3.981 -0.9384 -2.2260 -0.2829
16106TIP3    H269734   4.046   5.415   3.860 -1.8622 -2.1710 -0.9658
16107TIP3   OH269735   4.874   5.333   4.543  0.5865  0.2667 -0.1439
16107TIP3    H169736   4.818   5.375   4.478 -1.5943 -3.2582 -0.8192
16107TIP3    H269737   4.953   5.309   4.494  1.2874  2.2249 -0.0609
16108TIP3   OH269738   0.285   0.452   5.553 -0.0481  0.0179  0.1723
16108TIP3    H169739   0.193   0.434   5.574 -1.0624  1.9068 -2.1577
16108TIP3    H269740   0.302   0.538   5.590  1.0318 -0.6005  1.1668
16109TIP3   OH269741   2.158   3.920  12.687 -0.4091  0.1348  0.1728
16109TIP3    H169742   2.197   4.007  12.696  1.0317 -0.3886 -0.5821
16109TIP3    H269743   2.229   3.866  12.650 -2.0535 -0.7175 -1.9363
16110TIP3   OH269744   4.801   3.586  12.617 -0.3819 -0.6960  0.7922
16110TIP3    H169745   4.728   3.535  12.584 -1.0663  0.1453  0.9622
16110TIP3    H269746   4.761   3.649  12.677  0.6223 -1.0352  1.8632
16111TIP3   OH269747   2.723   4.485   1.215  0.2981  0.0363  0.3204
16111TIP3    H169748   2.657   4.546   1.246  0.1175 -0.0823  0.1672
16111TIP3    H269749   2.759   4.446   1.295  0.2371  0.1546  0.4062
16112TIP3   OH269750   3.198   3.427   5.998 -0.4108  0.1977  0.1628
16112TIP3    H169751   3.124   3.385   6.042 -0.5357 -0.6905 -0.8586
16112TIP3    H269752   3.241   3.478   6.067 -0.5227 -1.2451  1.3631
16113TIP3   OH269753   5.067   4.501  12.223 -0.0668  0.1964  0.2883
16113TIP3    H169754   5.031   4.430  12.170 -0.2423  0.9839 -0.6908
16113TIP3    H269755   5.161   4.486  12.225 -0.0312  0.3080 -0.4882
16114TIP3   OH269756   5.635   2.673  12.487  0.6292 -0.2166  0.0259
16114TIP3    H169757   5.559   2.622  12.457  0.0567  1.9566 -2.5549
16114TIP3    H269758   5.618   2.688  12.580 -0.8072 -1.8942  0.0865
16115TIP3   OH269759   2.482   5.767   5.953 -0.2739 -0.2955  0.3513
16115TIP3    H169760   2.550   5.712   5.992 -0.8123 -1.8211 -0.7888
16115TIP3    H269761   2.414   5.772   6.020  1.4417  2.4875  2.1411
16116TIP3   OH269762   4.137   2.549  12.806  0.2588 -0.4501 -0.0776
16116TIP3    H169763   4.078   2.474  12.799 -0.0964 -0.2829  0.9457
16116TIP3    H269764   4.172   2.543  12.895 -0.2411  0.9242  0.2311
16117TIP3   OH269765   3.357   3.598  14.365  0.0885 -0.3279  0.5130
16117TIP3    H169766   3.316   3.513  14.346  2.3469 -1.6590  1.2491
16117TIP3    H269767   3.338   3.651  14.287  0.0026 -2.0586 -0.7099
16118TIP3   OH269768   0.760   2.249  13.533  0.1294  0.3194  0.4287
16118TIP3    H169769   0.733   2.323  13.479  1.7704 -0.2989 -1.3527
16118TIP3    H269770   0.754   2.173  13.475 -0.2991 -0.7785  1.8341
16119TIP3   OH269771   3.896   0.001   2.032 -0.3491 -0.0215 -0.0393
16119TIP3    H169772   3.852   0.020   2.114  0.3950  0.8485  0.1711
16119TIP3    H269773   3.836  -0.057   1.985 -0.3225 -1.3850  1.5497
16120TIP3   OH269774   3.447   5.227  17.276  0.7188  0.0052  0.1145
16120TIP3    H169775   3.392   5.285  17.329  1.4389  0.7984  0.0108
16120TIP3    H269776   3.386   5.164  17.239 -0.3030  1.5127 -0.8919
16121TIP3   OH269777   0.649   2.923  17.234 -0.2275 -0.2044 -0.0085
16121TIP3    H169778   0.577   2.894  17.179 -0.2279  0.8642 -0.5836
16121TIP3    H269779   0.639   2.872  17.315 -1.0288 -0.7905 -0.4677
16122TIP3   OH269780   6.093   0.643  14.167 -0.3995 -0.2617 -0.3766
16122TIP3    H169781   6.177   0.642  14.121  0.1987  1.0715  0.6153
16122TIP3    H269782   6.115   0.657  14.259 -1.7106  0.5089 -0.1407
16123TIP3   OH269783   0.466   2.682   2.889 -0.0958  0.2189  0.6404
16123TIP3    H169784   0.426   2.744   2.828  0.3051  0.4997  0.6597
16123TIP3    H269785   0.450   2.719   2.976 -1.2505 -0.5151  0.7668
16124TIP3   OH269786   1.208   5.062   1.721 -0.0077  0.3164  0.5517
16124TIP3    H169787   1.301   5.047   1.703 -0.0033 -1.1446  1.5959
16124TIP3    H269788   1.175   5.105   1.643  1.1091 -1.0138 -0.7094
16125TIP3   OH269789   3.709   4.105   1.366 -0.4099 -0.0534 -0.2359
16125TIP3    H169790   3.777   4.159   1.326  1.6737 -1.9450  0.5231
16125TIP3    H269791   3.733   4.099   1.458 -1.3578 -1.1253 -0.0285
16126TIP3   OH269792   6.642   0.992   6.216 -0.1782 -0.2786 -0.1760
16126TIP3    H169793   6.623   0.910   6.261 -1.1076  0.2628  0.4623
16126TIP3    H269794   6.676   1.049   6.285  0.2514 -0.0618 -0.5691
16127TIP3   OH269795   3.096   2.886  13.135 -0.3665  0.0002  0.0277
16127TIP3    H169796   3.062   2.830  13.205  0.6002  1.5604  1.8356
16127TIP3    H269797   3.018   2.927  13.097 -0.8829 -0.5680  0.4503
16128TIP3   OH269798   4.314   2.126   0.444 -0.8986 -0.3217  0.3893
16128TIP3    H169799   4.268   2.072   0.508 -0.3365 -0.5347  0.6181
16128TIP3    H269800   4.396   2.150   0.488 -0.9641  0.3866  0.1399
16129TIP3   OH269801   3.795   4.099   5.229 -0.1588  0.3755  0.1567
16129TIP3    H169802   3.837   4.013   5.229 -0.2342  0.2954  2.1724
16129TIP3    H269803   3.777   4.117   5.321 -2.1289  1.5977 -0.3970
16130TIP3   OH269804   5.617   4.275   6.458 -0.1805  0.0892  0.1010
16130TIP3    H169805   5.703   4.252   6.494 -0.1835 -0.3316 -0.1571
16130TIP3    H269806   5.633   4.354   6.407  0.1326 -0.2033 -0.2615
16131TIP3   OH269807   0.801   1.497  16.776  0.3574  0.1185 -0.2494
16131TIP3    H169808   0.771   1.524  16.863 -1.9489 -0.1076 -0.9153
16131TIP3    H269809   0.822   1.579  16.731  4.5172  0.1739  1.3671
16132TIP3   OH269810   5.239   1.895   5.535  0.1971  0.7029  0.4184
16132TIP3    H169811   5.295   1.870   5.609 -1.0839 -0.9186  0.8805
16132TIP3    H269812   5.241   1.819   5.477  0.8878  1.8121 -1.0972
16133TIP3   OH269813   0.544   1.557  10.316 -0.0543 -0.1187 -0.2966
16133TIP3    H169814   0.516   1.502  10.389  0.0469 -0.3129 -0.4026
16133TIP3    H269815   0.510   1.644  10.336  0.4396 -0.0513  0.2507
16134TIP3   OH269816   1.644   2.288   2.248 -0.5557  0.0071  0.1994
16134TIP3    H169817   1.733   2.318   2.232 -0.8304  0.6837 -0.0939
16134TIP3    H269818   1.622   2.235   2.172 -0.2315 -0.5661  0.5020
16135TIP3   OH269819   5.863   4.926  17.035 -0.4377 -0.0670  0.1964
16135TIP3    H169820   5.953   4.933  17.003 -0.6109 -0.0591 -0.3075
16135TIP3    H269821   5.810   4.965  16.965 -0.9209 -1.0494 -0.0020
16136TIP3   OH269822   0.913   5.552  15.226  0.4510  0.7029 -0.1281
16136TIP3    H169823   0.862   5.541  15.146  1.3853  2.1070 -0.9445
16136TIP3    H269824   0.905   5.467  15.270 -2.3866  0.7906 -0.2994
16137TIP3   OH269825   6.650   1.002  13.978 -0.2451 -0.0623  0.1563
16137TIP3    H169826   6.726   1.025  14.031  0.9270 -0.9340 -1.0921
16137TIP3    H269827   6.623   1.085  13.938  0.9326  0.0091 -0.5029
16138TIP3   OH269828   2.521   5.021   6.143  0.0842  0.1738  0.0116
16138TIP3    H169829   2.596   5.070   6.110  0.7592 -0.1059  1.0632
16138TIP3    H269830   2.475   5.083   6.200 -1.1260  0.6862 -1.4692
16139TIP3   OH269831   1.849   6.645  13.324 -0.0066  0.1133  0.0566
16139TIP3    H169832   1.838   6.597  13.242  0.1477 -0.7149  0.5071
16139TIP3    H269833   1.940   6.675  13.322 -0.2602  0.8768 -0.4742
16140TIP3   OH269834   5.499   3.621  16.503  0.5039 -0.1927 -0.7024
16140TIP3    H169835   5.557   3.690  16.534 -0.5547  0.7794 -0.8066
16140TIP3    H269836   5.503   3.628  16.407 -1.0546  1.0635 -0.7385
16141TIP3   OH269837   1.458   2.531   0.541 -0.2493 -0.8436  0.2328
16141TIP3    H169838   1.372   2.565   0.514  0.2951  0.4276  0.0267
16141TIP3    H269839   1.499   2.604   0.588  0.7982 -1.3675  0.1551
16142TIP3   OH269840   2.822   6.176   4.478 -0.6744 -0.8724  0.1133
16142TIP3    H169841   2.813   6.214   4.391 -0.0930 -1.1507 -0.0734
16142TIP3    H269842   2.740   6.198   4.522  0.0655  1.6304  0.4138
16143TIP3   OH269843   4.775   4.176  15.161 -0.0019 -0.0407  0.5858
16143TIP3    H169844   4.688   4.161  15.199 -0.3264  0.6530  0.1384
16143TIP3    H269845   4.806   4.256  15.205  0.8030 -0.7868  1.4054
16144TIP3   OH269846   2.144   0.157  14.199  0.4636 -0.5085  0.7115
16144TIP3    H169847   2.084   0.087  14.225 -2.1965  1.3028 -0.1677
16144TIP3    H269848   2.121   0.177  14.109  1.9763  0.7389  0.5598
16145TIP3   OH269849   2.853   1.690   1.593 -0.3768  0.6876  0.3965
16145TIP3    H169850   2.822   1.601   1.579  1.2571  0.1980 -0.3554
16145TIP3    H269851   2.892   1.688   1.681  0.9520  0.2271 -0.1705
16146TIP3   OH269852   1.778   4.363   4.901  0.2380  0.4960 -0.3683
16146TIP3    H169853   1.691   4.403   4.897  0.3791  0.8561  0.1707
16146TIP3    H269854   1.768   4.289   4.961  0.2979  0.5254 -0.3217
16147TIP3   OH269855   6.184   2.754  12.228 -0.3435 -0.4300  0.2013
16147TIP3    H169856   6.159   2.836  12.187 -1.0259 -0.7142  0.0319
16147TIP3    H269857   6.159   2.686  12.165  0.6472 -0.7442  0.1334
16148TIP3   OH269858   3.073   4.689  15.385  0.1085  0.2128  0.5357
16148TIP3    H169859   3.147   4.675  15.326 -0.0919 -0.4216  0.4323
16148TIP3    H269860   2.998   4.652  15.338  0.2267 -1.8830  1.9155
16149TIP3   OH269861   2.090   0.994  13.488  0.2153 -0.4906  0.0529
16149TIP3    H169862   2.174   0.974  13.528  0.9005 -1.4612 -1.7378
16149TIP3    H269863   2.102   0.973  13.395 -1.2650  1.6330 -0.6980
16150TIP3   OH269864   4.616   3.443  13.300 -0.2851 -0.0535  0.4777
16150TIP3    H169865   4.607   3.423  13.394 -1.0373  0.6101  0.5566
16150TIP3    H269866   4.534   3.487  13.277 -0.5280 -1.1113 -0.7419
16151TIP3   OH269867   6.120   6.553  15.196  0.4880 -0.3298 -0.1998
16151TIP3    H169868   6.091   6.469  15.159  0.3919 -0.0320 -0.8117
16151TIP3    H269869   6.107   6.543  15.290  2.4388 -1.7694 -0.0161
16152TIP3   OH269870   5.078   3.644  15.965  0.0574 -0.5584 -0.1826
16152TIP3    H169871   4.990   3.609  15.979 -0.5248  1.0801  0.4820
16152TIP3    H269872   5.123   3.632  16.048 -0.0766  0.0487 -0.0179
16153TIP3   OH269873   3.715   5.777  15.614 -0.6058 -0.5808 -0.5569
16153TIP3    H169874   3.622   5.779  15.636 -0.5599  0.2554 -0.3945
16153TIP3    H269875   3.727   5.848  15.551 -0.2507 -1.3069 -1.3178
16154TIP3   OH269876   0.396   1.027  12.072  0.0469  0.2434 -0.1256
16154TIP3    H169877   0.401   0.947  12.020 -2.3297 -0.3335  0.4147
16154TIP3    H269878   0.324   1.011  12.133  1.2321  1.8007  1.7785
16155TIP3   OH269879   1.994   2.835   5.864 -0.2490 -0.1393  0.4934
16155TIP3    H169880   2.028   2.749   5.838  4.1748  1.7896 -1.0812
16155TIP3    H269881   1.936   2.860   5.793 -0.3325 -1.1461  0.1894
16156TIP3   OH269882   3.483   1.830   1.825 -0.1919 -0.2437  0.5422
16156TIP3    H169883   3.566   1.876   1.836  1.1148 -2.3680  0.0395
16156TIP3    H269884   3.472   1.822   1.731 -0.9041 -0.1302  0.6084
16157TIP3   OH269885   4.546   5.453   3.446  0.0498  0.0584 -0.6347
16157TIP3    H169886   4.475   5.392   3.469 -0.9609  1.1460 -0.7777
16157TIP3    H269887   4.588   5.413   3.371 -0.2119 -0.7649 -0.3548
16158TIP3   OH269888   2.726   5.853   4.478 -0.0029  0.0761 -0.3429
16158TIP3    H169889   2.675   5.853   4.398 -0.9002 -1.3168  0.1938
16158TIP3    H269890   2.722   5.763   4.509  0.3071  0.5855  1.2711
16159TIP3   OH269891   6.318   4.148   0.261 -0.0359 -0.4492 -0.2028
16159TIP3    H169892   6.342   4.057   0.282 -1.0877 -1.1035 -1.6097
16159TIP3    H269893   6.222   4.144   0.249  0.1125  0.4170 -2.0856
16160TIP3   OH269894   3.630   0.557  16.781  0.1300  0.6350 -0.2084
16160TIP3    H169895   3.585   0.639  16.760  0.3849  1.2233  1.4204
16160TIP3    H269896   3.632   0.554  16.876  1.1324 -0.7274 -0.2388
16161TIP3   OH269897   3.739   0.884   4.080 -0.3665  0.2223 -0.0889
16161TIP3    H169898   3.833   0.880   4.097  0.0963 -1.3045 -2.5362
16161TIP3    H269899   3.700   0.828   4.146  0.6461 -0.5175 -0.0938
16162TIP3   OH269900   2.657   1.054   4.820 -0.3473  1.1022  0.6553
16162TIP3    H169901   2.637   0.976   4.870 -0.5623  0.8965  0.2576
16162TIP3    H269902   2.580   1.111   4.831 -1.3411  0.2030 -1.0860
16163TIP3   OH269903   4.220   2.263  15.618 -0.2640 -0.2974 -0.1515
16163TIP3    H169904   4.302   2.311  15.603 -0.4582  0.6794  1.6999
16163TIP3    H269905   4.232   2.221  15.703 -1.0122 -1.6454 -0.6853
16164TIP3   OH269906   1.048   6.100  15.014  0.5375  0.3679  0.1690
16164TIP3    H169907   0.979   6.142  15.066  0.7898  1.2744 -0.2020
16164TIP3    H269908   1.061   6.160  14.940  0.7897 -0.4659 -0.4742
16165TIP3   OH269909   6.323   4.934  15.141  0.0928 -0.0473  0.2530
16165TIP3    H169910   6.410   4.904  15.115  0.0990 -0.0936  0.3257
16165TIP3    H269911   6.292   4.868  15.204  0.0852  0.0710  0.3749
16166TIP3   OH269912   0.023   4.336   5.868  0.0238 -0.4771  0.3354
16166TIP3    H169913   0.103   4.286   5.849 -0.4297 -1.0917 -0.0014
16166TIP3    H269914   0.001   4.313   5.958  0.9082  0.6624  0.8622
16167TIP3   OH269915   4.330   5.289   4.423 -0.5050 -0.4074  0.5851
16167TIP3    H169916   4.389   5.223   4.387 -1.1592 -0.1673 -0.9800
16167TIP3    H269917   4.244   5.246   4.424 -1.2203  0.8489 -1.8143
16168TIP3   OH269918   1.974   1.329   5.130 -0.4106  0.2960  0.1816
16168TIP3    H169919   2.042   1.395   5.114  0.2096 -0.1120  1.0449
16168TIP3    H269920   2.015   1.246   5.106 -0.5991  0.0454  0.7087
16169TIP3   OH269921   2.934   4.098   3.110  0.4330 -0.1882 -0.7464
16169TIP3    H169922   2.928   4.102   3.206 -0.4110  1.3227 -0.8357
16169TIP3    H269923   3.022   4.129   3.090  0.7622 -0.9074 -0.4545
16170TIP3   OH269924   5.949   3.084   5.253  0.1179 -0.3417  0.2435
16170TIP3    H169925   5.932   3.009   5.310  0.9003 -1.5197 -1.0164
16170TIP3    H269926   5.878   3.082   5.189  1.8753 -2.0582 -1.7894
16171TIP3   OH269927   2.498   5.058  14.162 -0.2456 -0.2145 -0.5727
16171TIP3    H169928   2.571   5.087  14.217 -1.9779  0.6579  1.4206
16171TIP3    H269929   2.479   5.133  14.106 -0.5923  0.1416  0.0137
16172TIP3   OH269930   4.905   6.578  11.468 -0.0628  0.1674  0.3014
16172TIP3    H169931   4.974   6.555  11.529  0.0686  0.0764  0.1184
16172TIP3    H269932   4.897   6.502  11.410 -1.2023 -0.3769  1.1214
16173TIP3   OH269933   5.013   2.574   5.927  0.4340 -0.1187 -0.1017
16173TIP3    H169934   4.980   2.486   5.945  1.3302 -1.1838 -3.1295
16173TIP3    H269935   4.945   2.614   5.872  0.3430  0.8685  0.6987
16174TIP3   OH269936   5.211   6.388   3.403  0.0667 -0.3531 -0.1214
16174TIP3    H169937   5.255   6.305   3.387  0.5187 -0.3897  1.2033
16174TIP3    H269938   5.258   6.451   3.349  1.1396 -0.5589  0.5667
16175TIP3   OH269939   2.743   5.350   5.920 -0.4633 -0.8501  0.8083
16175TIP3    H169940   2.680   5.326   5.851  2.7352 -0.0918 -2.6908
16175TIP3    H269941   2.709   5.432   5.956 -1.6953 -0.6751 -0.6479
16176TIP3   OH269942   4.900   5.298   3.895 -0.0299  0.3839 -0.4575
16176TIP3    H169943   4.839   5.245   3.946 -1.9097  2.2059 -0.6568
16176TIP3    H269944   4.846   5.369   3.860  2.1410  1.8878 -0.9671
16177TIP3   OH269945   1.885   0.563   0.595 -0.5956 -0.0189 -0.0380
16177TIP3    H169946   1.980   0.562   0.588 -0.6645 -0.1058 -1.2420
16177TIP3    H269947   1.867   0.567   0.689  0.5896  0.2474  0.1870
16178TIP3   OH269948   2.212   3.682   2.621  0.1623 -0.3198  0.0828
16178TIP3    H169949   2.242   3.655   2.534  0.2225 -0.8051  0.2508
16178TIP3    H269950   2.216   3.777   2.619 -1.6385 -0.2116 -1.1020
16179TIP3   OH269951   0.158   6.404  16.095 -0.6243  0.6571 -0.2596
16179TIP3    H169952   0.143   6.310  16.086  1.6516  0.1027  1.0364
16179TIP3    H269953   0.087   6.434  16.152  0.1042 -0.8326  1.5073
16180TIP3   OH269954   5.600   1.058  12.256 -0.2949 -0.0056 -0.1234
16180TIP3    H169955   5.557   1.002  12.321 -0.1036  0.1055  0.1002
16180TIP3    H269956   5.676   1.007  12.227  1.0065  0.9226  1.5174
16181TIP3   OH269957   1.594   1.406  16.321 -0.0089  0.4873  0.4722
16181TIP3    H169958   1.670   1.442  16.275  0.0139 -0.1964 -0.0358
16181TIP3    H269959   1.518   1.440  16.272  0.0227 -0.5910 -0.3633
16182TIP3   OH269960   4.303   3.683  13.277 -0.3618  0.1118 -0.2171
16182TIP3    H169961   4.248   3.761  13.284  0.6088  0.6964  1.4520
16182TIP3    H269962   4.392   3.717  13.275  0.0107 -0.8674 -2.0018
16183TIP3   OH269963   4.852   3.942  11.846  0.0551 -0.0977 -0.0345
16183TIP3    H169964   4.811   4.024  11.876 -1.7317 -0.8808 -0.2026
16183TIP3    H269965   4.799   3.915  11.771  0.8875 -1.1984 -0.2552
16184TIP3   OH269966   2.617   3.348   4.145 -0.1285  0.3689 -0.0490
16184TIP3    H169967   2.590   3.424   4.196 -1.6017  0.4033 -0.8263
16184TIP3    H269968   2.608   3.274   4.206  2.4255  0.8976  1.0668
16185TIP3   OH269969   1.444   6.440   3.845  0.0630 -1.1063 -0.0050
16185TIP3    H169970   1.491   6.363   3.813 -0.0976 -2.0712  1.9625
16185TIP3    H269971   1.352   6.424   3.822 -0.0660 -1.8373  0.9945
16186TIP3   OH269972   5.980   3.870  16.333  0.1880 -0.1652 -0.0638
16186TIP3    H169973   6.037   3.946  16.340  1.2177 -0.9103 -0.0311
16186TIP3    H269974   6.039   3.797  16.313 -0.7076 -1.0327  0.3296
16187TIP3   OH269975   2.178   6.119  10.779  0.0675  0.2607 -0.0767
16187TIP3    H169976   2.125   6.195  10.802 -0.4135 -0.4973  1.4186
16187TIP3    H269977   2.192   6.074  10.862  2.2753 -0.0729 -0.5827
16188TIP3   OH269978   4.740   2.139  16.970 -0.3891 -0.2834 -0.5422
16188TIP3    H169979   4.766   2.231  16.961 -0.5161  0.0493  1.8998
16188TIP3    H269980   4.661   2.131  16.917 -1.3573  1.4883  0.5562
16189TIP3   OH269981   0.595   5.516   1.696  0.0507  0.1569 -0.2425
16189TIP3    H169982   0.647   5.577   1.748  0.6412  1.1684 -1.9064
16189TIP3    H269983   0.655   5.445   1.674 -0.1683 -0.2176  0.3595
16190TIP3   OH269984   5.907   5.831   1.340  0.3291 -0.1138 -0.1976
16190TIP3    H169985   5.906   5.791   1.427 -0.3381  0.7659  0.2182
16190TIP3    H269986   5.831   5.795   1.296  0.5931 -0.4593 -0.3766
16191TIP3   OH269987   3.647   5.323   5.316  0.3216 -0.6200 -0.4415
16191TIP3    H169988   3.644   5.418   5.327  1.1015 -0.7486  1.4362
16191TIP3    H269989   3.605   5.289   5.396 -2.9557 -1.9107 -2.5187
16192TIP3   OH269990   3.602   2.660   3.326 -0.4743  0.3686  0.2300
16192TIP3    H169991   3.538   2.599   3.288  1.2598 -1.7693  0.5457
16192TIP3    H269992   3.633   2.616   3.405  1.3476  1.3439  0.1072
16193TIP3   OH269993   0.270   1.641  11.392  0.0221  0.1417  0.4326
16193TIP3    H169994   0.358   1.629  11.427  0.7986  0.7115 -1.1804
16193TIP3    H269995   0.239   1.723  11.431  0.1376 -0.1353  1.1176
16194TIP3   OH269996   4.072   3.529   3.998  0.5235  0.4533 -0.1686
16194TIP3    H169997   4.114   3.603   3.954 -1.2895  1.6460  0.0188
16194TIP3    H269998   4.118   3.452   3.964  3.1573  1.6742  0.4052
16195TIP3   OH269999   6.666   4.186  15.752 -0.1978  0.5682 -0.0776
16195TIP3    H170000   6.721   4.232  15.816 -1.9301  0.7460  1.3637
16195TIP3    H270001   6.702   4.098  15.748 -0.6908  0.2176  2.0263
16196TIP3   OH270002   0.967   4.534  15.615 -0.2120  0.2320 -0.1267
16196TIP3    H170003   0.962   4.476  15.539 -0.2709  1.4625 -1.0921
16196TIP3    H270004   1.015   4.611  15.584  0.2380  0.5405  1.2420
16197TIP3   OH270005   6.700   2.036   6.222 -0.3602 -0.4022  0.9805
16197TIP3    H170006   6.775   2.093   6.239  1.3481 -1.9588 -0.7845
16197TIP3    H270007   6.697   1.978   6.297 -0.0330 -0.0768  1.2484
16198TIP3   OH270008   6.419   3.785  11.091  0.0984  0.0779  0.3963
16198TIP3    H170009   6.366   3.717  11.133  1.4752 -0.0752  1.9564
16198TIP3    H270010   6.369   3.866  11.104 -0.3000 -0.2318  0.8409
16199TIP3   OH270011   5.125   0.001  12.999 -0.1366 -0.1584  0.8238
16199TIP3    H170012   5.201   0.022  13.054  1.7764 -1.3877 -1.1694
16199TIP3    H270013   5.138   0.053  12.920 -0.9762 -0.9894  0.1242
16200TIP3   OH270014   3.695   0.748   4.762  0.1919  0.3135 -0.0076
16200TIP3    H170015   3.604   0.727   4.741  0.4690 -2.0712  0.8792
16200TIP3    H270016   3.691   0.837   4.797 -2.1783 -0.4688  2.0114
16201TIP3   OH270017   1.708   6.403  14.973  0.2500 -0.8120  0.6214
16201TIP3    H170018   1.792   6.362  14.997  0.6143 -0.2969  0.2326
16201TIP3    H270019   1.706   6.485  15.023  0.6952 -0.0713 -0.5425
16202TIP3   OH270020   4.606   0.413   5.625  0.9394 -0.4555  0.9244
16202TIP3    H170021   4.682   0.472   5.628  1.0702 -0.6573  1.6902
16202TIP3    H270022   4.572   0.423   5.536  1.8498 -0.3457  0.5732
16203TIP3   OH270023   5.728   2.616  13.657  0.3597  0.0254 -0.1571
16203TIP3    H170024   5.799   2.618  13.722  0.7311  0.8052 -0.5683
16203TIP3    H270025   5.656   2.571  13.702  0.8740 -0.1537  0.5151
16204TIP3   OH270026   4.433   1.438   0.753  0.1782  0.2683  0.0826
16204TIP3    H170027   4.510   1.476   0.711  1.0556 -1.1512  0.3638
16204TIP3    H270028   4.423   1.352   0.713  0.4646 -0.7379  2.0395
16205TIP3   OH270029   4.648   3.881  13.729  0.4819  0.2275  0.2544
16205TIP3    H170030   4.654   3.848  13.819 -1.6761  1.4412  0.9377
16205TIP3    H270031   4.688   3.967  13.733 -0.1420  0.5245  0.2203
16206TIP3   OH270032   4.802   4.881   1.040 -0.6985  0.2331  0.4830
16206TIP3    H170033   4.794   4.787   1.027  0.6694  0.2557 -0.7349
16206TIP3    H270034   4.876   4.907   0.986  0.8178  1.5540  3.0119
16207TIP3   OH270035   5.454   2.566  14.530  0.2727  0.6317 -0.4796
16207TIP3    H170036   5.520   2.601  14.470  2.7250 -2.1336  0.3863
16207TIP3    H270037   5.399   2.641  14.551  2.0175  2.6959 -2.6725
16208TIP3   OH270038   3.820   3.645   0.153  0.1853 -0.6109 -0.0140
16208TIP3    H170039   3.747   3.693   0.192  0.5740 -0.2104  0.2224
16208TIP3    H270040   3.778   3.569   0.110 -0.6114  0.7265 -1.7195
16209TIP3   OH270041   4.644   2.751   6.225 -0.2311  1.0222  0.2928
16209TIP3    H170042   4.608   2.699   6.153 -0.3935  0.4209  0.7967
16209TIP3    H270043   4.594   2.723   6.302 -1.1238  2.7550  0.3866
16210TIP3   OH270044   4.122   5.084  15.617  0.6641 -0.1545 -0.1926
16210TIP3    H170045   4.041   5.039  15.643  0.9878 -1.4208 -1.2859
16210TIP3    H270046   4.168   5.100  15.700  1.1692 -3.0949  0.1895
16211TIP3   OH270047   3.897   5.760  14.895  0.3745 -0.0131 -0.6819
16211TIP3    H170048   3.977   5.729  14.938  0.3339 -0.5730 -0.9917
16211TIP3    H270049   3.895   5.854  14.910  1.6855  0.1929 -1.6330
16212TIP3   OH270050   2.307   5.283   0.091 -0.4120  0.2801  0.4531
16212TIP3    H170051   2.332   5.363   0.137  0.0479  1.2472 -1.3701
16212TIP3    H270052   2.225   5.305   0.047  0.3781  0.2437 -1.1220
16213TIP3   OH270053   2.500   4.520   4.007 -0.0659  0.1586  1.5312
16213TIP3    H170054   2.488   4.435   3.966  0.2932 -0.4323  2.6039
16213TIP3    H270055   2.518   4.580   3.934 -1.7207 -0.3905  0.6237
16214TIP3   OH270056   0.930   4.820  13.820  0.0364 -0.7037  0.0485
16214TIP3    H170057   0.966   4.909  13.827  1.3972 -1.1492 -0.8040
16214TIP3    H270058   0.835   4.832  13.825  0.1921  0.7918 -0.0123
16215TIP3   OH270059   2.744   4.889  12.189  0.1529  0.4159 -0.3503
16215TIP3    H170060   2.803   4.858  12.258  0.9689  1.3689 -0.5963
16215TIP3    H270061   2.692   4.812  12.166  2.1269 -0.8031 -0.9509
16216TIP3   OH270062   1.138   0.249  15.978  0.2603 -0.0811 -0.0753
16216TIP3    H170063   1.203   0.277  16.042 -0.1574  1.1031 -0.1386
16216TIP3    H270064   1.135   0.154  15.986 -0.5516  0.0881  2.4210
16217TIP3   OH270065   2.792   5.195   3.262 -0.1521 -0.1271 -0.0368
16217TIP3    H170066   2.764   5.273   3.214 -1.0822  0.1271  0.8875
16217TIP3    H270067   2.839   5.142   3.197 -0.6669  0.5843 -1.0100
16218TIP3   OH270068   0.001   4.243  14.388 -0.0202  0.0310  0.2222
16218TIP3    H170069   0.084   4.230  14.343 -0.0340 -0.7418  0.4108
16218TIP3    H270070   0.024   4.247  14.481  0.0467  1.9285  0.1548
16219TIP3   OH270071   5.499   0.114  13.971  0.4888 -0.1621 -0.7392
16219TIP3    H170072   5.529   0.024  13.983 -0.1462 -0.3567 -0.5972
16219TIP3    H270073   5.526   0.135  13.881 -0.0490 -0.7689 -1.0553
16220TIP3   OH270074   5.682   1.890  14.738  0.0502 -0.4399 -0.7384
16220TIP3    H170075   5.591   1.860  14.740 -0.2288  0.3364  1.7205
16220TIP3    H270076   5.684   1.963  14.800  2.1851  0.1299 -1.3979
16221TIP3   OH270077   1.928   1.508  16.798  0.2844  0.0319  0.4190
16221TIP3    H170078   2.013   1.506  16.754  0.8518 -0.3840  1.5098
16221TIP3    H270079   1.919   1.421  16.837 -0.9039 -0.1240 -0.1557
16222TIP3   OH270080   2.155   2.999  15.021 -0.1241  0.0612  0.4262
16222TIP3    H170081   2.184   2.921  15.068 -0.7615  0.5555  1.6920
16222TIP3    H270082   2.083   3.034  15.074  0.6543  1.9557  0.3406
16223TIP3   OH270083   1.854   3.845  12.335 -0.2727  0.2506  0.5008
16223TIP3    H170084   1.762   3.828  12.314 -0.2849  0.9093  0.0078
16223TIP3    H270085   1.893   3.758  12.341 -0.5619 -0.0052 -0.9653
16224TIP3   OH270086   5.662   6.316   5.080  0.8012 -0.3998  0.2768
16224TIP3    H170087   5.634   6.228   5.104  1.8023 -0.4841  1.2095
16224TIP3    H270088   5.757   6.315   5.090  0.7826  0.9339  0.8258
16225TIP3   OH270089   1.265   3.386   6.542 -0.1043  0.5913 -0.0480
16225TIP3    H170090   1.257   3.336   6.623 -1.3020 -0.0884 -0.5631
16225TIP3    H270091   1.239   3.325   6.474  0.9220  1.1478 -0.9637
16226TIP3   OH270092   0.118   6.538  12.383 -0.5742 -0.4048 -0.7944
16226TIP3    H170093   0.122   6.449  12.346  0.5548 -0.5044 -0.4433
16226TIP3    H270094   0.073   6.589  12.315 -0.6018 -1.0843 -1.3059
16227TIP3   OH270095   3.434   5.619   3.042  0.0718 -0.1793  0.2514
16227TIP3    H170096   3.396   5.706   3.032 -1.3570 -0.9431 -1.6277
16227TIP3    H270097   3.367   5.567   3.085  1.0503 -0.3170  1.6906
16228TIP3   OH270098   0.207   0.388  12.330 -0.2030 -0.0905  0.1702
16228TIP3    H170099   0.152   0.457  12.366 -1.7648 -0.5647 -1.1741
16228TIP3    H270100   0.295   0.408  12.362 -0.8626  1.6386  1.0357
16229TIP3   OH270101   4.122   5.689   2.615 -0.2244  0.7223 -0.6713
16229TIP3    H170102   4.065   5.637   2.672  1.3338  2.8989  3.2122
16229TIP3    H270103   4.062   5.750   2.572 -1.4052 -0.6624 -1.0691
16230TIP3   OH270104   4.542   6.145  13.128 -0.1010 -0.4056 -0.3974
16230TIP3    H170105   4.491   6.067  13.107 -1.7394  0.4492  0.2093
16230TIP3    H270106   4.497   6.216  13.082  1.0959  0.2679 -0.5751
16231TIP3   OH270107   6.298   0.817   1.413  0.4383  0.4595 -0.0146
16231TIP3    H170108   6.242   0.743   1.393  0.8169  0.2464 -0.3018
16231TIP3    H270109   6.269   0.847   1.500  0.3621 -0.0934  0.1530
16232TIP3   OH270110   5.534   5.807   5.801 -0.5657  0.1289 -0.1267
16232TIP3    H170111   5.567   5.730   5.756  0.0515 -0.2441  0.9330
16232TIP3    H270112   5.446   5.783   5.829 -0.9617  0.3711 -1.1217
16233TIP3   OH270113   6.403   2.104  12.652 -0.1584  0.8623  0.3480
16233TIP3    H170114   6.498   2.094  12.659 -0.2830  0.2486  1.2470
16233TIP3    H270115   6.367   2.042  12.715 -1.1627  1.1343  0.0644
16234TIP3   OH270116   3.430   1.383  15.092  0.3758 -0.7612  0.3120
16234TIP3    H170117   3.353   1.412  15.140 -0.3919 -0.6815 -0.9148
16234TIP3    H270118   3.446   1.452  15.028  0.5401 -1.4839 -0.4441
16235TIP3   OH270119   5.762   4.235   5.124 -0.6475 -0.0071  0.1782
16235TIP3    H170120   5.765   4.285   5.206 -1.7457 -0.1014  0.2874
16235TIP3    H270121   5.811   4.288   5.061  0.5050 -0.0902  0.9597
16236TIP3   OH270122   2.431   4.897  12.463  0.6418 -0.0797  0.1532
16236TIP3    H170123   2.505   4.944  12.502  0.9607  0.1431 -0.7004
16236TIP3    H270124   2.367   4.966  12.443  0.3001 -0.2448  0.6756
16237TIP3   OH270125   6.017   6.420   1.522  0.0316 -1.1449  0.0105
16237TIP3    H170126   6.105   6.439   1.489  0.2230 -1.8239  0.1119
16237TIP3    H270127   5.975   6.369   1.453 -0.0484 -1.3924  0.2377
16238TIP3   OH270128   0.591   3.181   2.356 -0.0147  0.3409  0.1072
16238TIP3    H170129   0.672   3.197   2.404  1.1518  0.5355 -1.8107
16238TIP3    H270130   0.575   3.261   2.307 -1.5664  0.4207  0.6687
16239TIP3   OH270131   3.927   0.682   2.750  0.0638  0.2345  0.3486
16239TIP3    H170132   3.868   0.689   2.675  0.2031  0.3399  0.2472
16239TIP3    H270133   3.912   0.761   2.801  0.5708  0.5724 -0.0136
16240TIP3   OH270134   2.603   2.066  13.502  0.0056  0.0338 -0.6733
16240TIP3    H170135   2.597   2.155  13.539  0.2025  0.1089 -0.8232
16240TIP3    H270136   2.682   2.030  13.542  0.7376  0.4391 -1.7196
16241TIP3   OH270137   4.896   3.053   1.496 -0.3913 -0.0988  0.7107
16241TIP3    H170138   4.830   3.119   1.519 -1.6623  0.3428 -3.2982
16241TIP3    H270139   4.976   3.104   1.484  0.1403 -0.2577  3.1056
16242TIP3   OH270140   3.972   3.241  11.292 -0.4544  0.4713  0.3837
16242TIP3    H170141   3.898   3.214  11.237  0.9840 -0.2735 -1.3013
16242TIP3    H270142   4.036   3.170  11.284  1.0795  1.7634  0.5024
16243TIP3   OH270143   5.207   1.744   0.161  0.1725 -0.0182 -0.4579
16243TIP3    H170144   5.294   1.724   0.196 -0.4287 -0.3099  0.9689
16243TIP3    H270145   5.147   1.695   0.218 -0.8856 -0.6943 -2.0666
16244TIP3   OH270146   0.261   0.726  13.129  0.1386  0.0885  0.2359
16244TIP3    H170147   0.337   0.677  13.098  1.0695  0.9915  0.9862
16244TIP3    H270148   0.252   0.800  13.069  0.8598  0.8604  1.0390
16245TIP3   OH270149   3.208   1.414  14.613 -0.4160 -0.2679  0.1565
16245TIP3    H170150   3.172   1.339  14.566 -1.3663 -0.8380  1.7011
16245TIP3    H270151   3.293   1.430  14.572 -0.5030 -1.7543 -0.6671
16246TIP3   OH270152   4.119   1.208  11.810  0.3264  0.3362 -0.5827
16246TIP3    H170153   4.087   1.166  11.730  0.5940 -0.8967 -0.0747
16246TIP3    H270154   4.127   1.136  11.873  1.7208  1.0063  0.0552
16247TIP3   OH270155   1.067   5.907  12.019 -0.1199 -0.0170 -0.5608
16247TIP3    H170156   1.099   5.955  12.095 -1.2885 -0.2527  0.0992
16247TIP3    H270157   0.992   5.958  11.988  0.7771  0.4909 -2.0441
16248TIP3   OH270158   6.198   1.446  16.834  0.3660  0.0488 -0.3629
16248TIP3    H170159   6.281   1.440  16.882 -0.2838 -0.4768  0.7626
16248TIP3    H270160   6.193   1.364  16.786  0.2239 -0.1915  0.0551
16249TIP3   OH270161   4.017   1.874   5.759 -0.3777 -0.2521 -0.3095
16249TIP3    H170162   4.047   1.898   5.847  1.7586  0.9918 -1.2999
16249TIP3    H270163   3.980   1.786   5.769  2.0056 -1.1609  1.4248
16250TIP3   OH270164   0.046   2.803  12.979 -0.7257 -0.0616  0.2611
16250TIP3    H170165   0.101   2.731  13.011  1.0976  0.0832 -2.2803
16250TIP3    H270166   0.103   2.879  12.981 -0.9496  0.2160 -1.9338
16251TIP3   OH270167   4.627   4.109  16.639 -0.0163 -0.9762  0.0694
16251TIP3    H170168   4.694   4.042  16.626  1.3497  0.7031 -2.3097
16251TIP3    H270169   4.566   4.098  16.566 -0.0996 -0.0156 -0.0234
16252TIP3   OH270170   4.312   3.121   0.177 -0.6727  0.3801  0.5529
16252TIP3    H170171   4.263   3.202   0.166 -1.9119 -0.2440  1.3070
16252TIP3    H270172   4.256   3.065   0.230  0.6248 -0.5768  0.9899
16253TIP3   OH270173   1.167   4.486  15.333  0.0480 -0.5974  0.1332
16253TIP3    H170174   1.109   4.411  15.348 -0.9292 -0.1547 -1.2216
16253TIP3    H270175   1.145   4.515  15.245  1.3432  0.4876  0.1423
16254TIP3   OH270176   1.184   0.677  14.624  0.1136  0.3672 -0.1767
16254TIP3    H170177   1.186   0.770  14.603  1.8034  0.2446 -0.6778
16254TIP3    H270178   1.276   0.652  14.635 -0.2917 -1.2683 -0.1777
16255TIP3   OH270179   0.886   1.513  14.040  0.3909 -0.2319 -0.3560
16255TIP3    H170180   0.815   1.575  14.053  0.7541  0.2567 -0.6768
16255TIP3    H270181   0.843   1.430  14.021 -0.0965 -0.0937  0.1419
16256TIP3   OH270182   5.161   4.662  11.909 -0.0256 -0.0960  0.7782
16256TIP3    H170183   5.067   4.645  11.903  0.3201 -2.0655  0.3442
16256TIP3    H270184   5.170   4.717  11.987 -1.7620  2.4020 -0.6680
16257TIP3   OH270185   4.007   4.676  15.370  0.6647 -0.6484 -0.4472
16257TIP3    H170186   4.060   4.729  15.311 -0.6572  0.8343 -0.3767
16257TIP3    H270187   3.969   4.739  15.431 -0.1903 -1.8084  0.2672
16258TIP3   OH270188   5.425   1.172   3.188  0.2119  0.8250  0.2240
16258TIP3    H170189   5.349   1.222   3.217 -0.0421  0.2869  0.5029
16258TIP3    H270190   5.431   1.188   3.094  0.7797  2.2478  0.4687
16259TIP3   OH270191   6.261   2.718  15.387  0.1919 -0.6621  0.0277
16259TIP3    H170192   6.256   2.712  15.482 -0.7085  0.5989  0.0942
16259TIP3    H270193   6.225   2.805  15.367  0.2353 -0.9626 -1.4686
16260TIP3   OH270194   0.879   0.648   2.260  0.5674 -0.3684 -0.3567
16260TIP3    H170195   0.797   0.695   2.276 -0.4570 -2.5807  1.3856
16260TIP3    H270196   0.942   0.688   2.320 -0.1902 -0.9263  0.8434
16261TIP3   OH270197   1.755   3.189   6.401  0.7563 -0.4469 -0.0324
16261TIP3    H170198   1.699   3.158   6.472  0.9794  1.0184  0.8157
16261TIP3    H270199   1.761   3.283   6.414  2.2148 -0.3722 -0.9847
16262TIP3   OH270200   4.734   6.630  15.610  0.5224  0.0737 -0.4155
16262TIP3    H170201   4.806   6.572  15.585  0.1073 -0.1186 -1.1905
16262TIP3    H270202   4.656   6.574  15.606  0.2301  0.4706 -0.3289
16263TIP3   OH270203   4.490   6.057  15.378 -0.2897 -0.3999 -0.3798
16263TIP3    H170204   4.418   6.010  15.420  0.0851 -0.7331 -0.1014
16263TIP3    H270205   4.486   6.031  15.286  0.0262 -1.1307 -0.1935
16264TIP3   OH270206   1.524   4.696   3.446 -0.0735  0.5430  0.3734
16264TIP3    H170207   1.544   4.676   3.538 -0.2622 -0.7837  0.1438
16264TIP3    H270208   1.441   4.652   3.429  0.6292 -0.3769 -0.8100
16265TIP3   OH270209   1.654   6.249  13.416  0.3417 -0.1785 -0.0779
16265TIP3    H170210   1.663   6.343  13.432 -0.1699 -0.5507  2.8876
16265TIP3    H270211   1.744   6.218  13.403  0.5851  0.5794 -0.2328
16266TIP3   OH270212   0.587   0.812  15.254  0.7003 -0.8239  0.7113
16266TIP3    H170213   0.680   0.815  15.231  0.4710 -0.9851 -0.3225
16266TIP3    H270214   0.560   0.904  15.256  0.6260 -0.8132 -0.1892
16267TIP3   OH270215   1.526   1.958   1.357 -0.5484 -0.0555  0.1627
16267TIP3    H170216   1.546   1.921   1.443  0.9749 -0.9147 -0.5151
16267TIP3    H270217   1.560   2.047   1.361 -1.2963  0.2115  0.7333
16268TIP3   OH270218   2.094   4.575  15.865  0.2602  0.2201 -0.7048
16268TIP3    H170219   2.028   4.569  15.796  0.3239 -1.3908 -0.6596
16268TIP3    H270220   2.140   4.657  15.848 -2.2075  1.8063 -0.3029
16269TIP3   OH270221   5.874   4.226  14.682  0.9449  0.1224 -0.0888
16269TIP3    H170222   5.831   4.191  14.604  0.3158  0.0936  0.2606
16269TIP3    H270223   5.966   4.232  14.659  0.7404  0.2555 -0.8826
16270TIP3   OH270224   2.151   1.396  14.096  0.0512 -0.5207 -0.2263
16270TIP3    H170225   2.190   1.466  14.149 -2.5818  0.0535  1.0731
16270TIP3    H270226   2.222   1.333  14.085  1.7759  1.1369  0.7225
16271TIP3   OH270227   2.062   0.802  16.694 -0.3758  0.0960  0.0422
16271TIP3    H170228   2.109   0.741  16.751 -1.1104 -0.4264  0.1017
16271TIP3    H270229   2.053   0.756  16.611  1.3916  1.1567 -0.7935
16272TIP3   OH270230   2.384   2.496  16.824 -0.1866  0.3247  0.2437
16272TIP3    H170231   2.416   2.406  16.828 -0.4304  0.1197 -1.4637
16272TIP3    H270232   2.460   2.548  16.796 -0.5245  0.3057 -0.7775
16273TIP3   OH270233   1.416   0.700   2.472  0.9156  0.1921  0.6637
16273TIP3    H170234   1.407   0.794   2.493 -0.7649  0.1412  0.3517
16273TIP3    H270235   1.344   0.659   2.521 -2.4464 -0.1096 -3.8560
16274TIP3   OH270236   1.414   5.118   6.267 -0.1001 -0.8327  0.0946
16274TIP3    H170237   1.435   5.208   6.290  0.8174 -0.6016 -1.4699
16274TIP3    H270238   1.325   5.104   6.300 -0.3332  0.7079  0.1791
16275TIP3   OH270239   4.796   1.952   1.611 -0.2425  0.3961  0.4261
16275TIP3    H170240   4.702   1.963   1.596 -0.0452  2.2030  0.2196
16275TIP3    H270241   4.805   1.953   1.706 -0.6324 -2.2791  0.5587
16276TIP3   OH270242   5.678   5.822   2.099 -0.5126  0.3368  0.0091
16276TIP3    H170243   5.714   5.841   2.012 -0.0565  1.2250  0.3805
16276TIP3    H270244   5.706   5.732   2.117 -1.6681 -0.3183 -1.2720
16277TIP3   OH270245   3.367   3.741  13.729  0.6217 -0.3571 -0.1762
16277TIP3    H170246   3.345   3.691  13.649  0.6547  0.1133 -0.4807
16277TIP3    H270247   3.303   3.711  13.794 -0.0970  0.0402 -0.6832
16278TIP3   OH270248   3.049   5.772  15.422  0.8680 -0.9309 -0.0032
16278TIP3    H170249   2.996   5.791  15.499  1.5576 -2.3887  0.8770
16278TIP3    H270250   3.093   5.855  15.403 -0.8440  0.0055 -0.0974
16279TIP3   OH270251   4.317   4.598   4.218 -0.1129  0.1812  0.2009
16279TIP3    H170252   4.397   4.548   4.235 -0.4858 -1.0254 -1.3991
16279TIP3    H270253   4.247   4.546   4.258 -0.5553 -0.8689 -1.8298
16280TIP3   OH270254   4.079   5.127   0.533 -0.9345 -0.0103 -0.2865
16280TIP3    H170255   4.010   5.192   0.527 -0.3869  0.6036  0.0113
16280TIP3    H270256   4.135   5.143   0.457  0.4051  1.2920  0.8991
16281TIP3   OH270257   4.702   5.523   1.370 -0.6042 -0.5417 -0.5870
16281TIP3    H170258   4.775   5.571   1.411 -1.6363  2.6470 -2.1195
16281TIP3    H270259   4.738   5.491   1.288 -0.5118 -0.3782 -0.6106
16282TIP3   OH270260   1.901   6.204  13.326  0.1829  0.2110  0.0779
16282TIP3    H170261   1.978   6.230  13.376 -0.3036 -0.8347  1.4313
16282TIP3    H270262   1.934   6.139  13.264 -0.0528 -2.9843  3.0187
16283TIP3   OH270263   3.847   0.199  14.457 -0.0018 -0.1476  0.0139
16283TIP3    H170264   3.851   0.254  14.379 -2.9312 -1.2542 -1.0446
16283TIP3    H270265   3.884   0.115  14.430 -2.5291 -1.0852 -0.8442
16284TIP3   OH270266   2.606   1.183  15.274 -0.5242  0.2062 -0.2541
16284TIP3    H170267   2.626   1.114  15.210  1.4596 -0.2217  0.7312
16284TIP3    H270268   2.511   1.179  15.284 -0.5129 -2.2455 -0.4346
16285TIP3   OH270269   1.973   5.161   0.375 -0.1244 -0.0524  0.4186
16285TIP3    H170270   1.907   5.092   0.384 -0.3773 -0.4549 -3.0615
16285TIP3    H270271   2.056   5.119   0.398 -0.4592 -1.1586 -0.3011
16286TIP3   OH270272   3.374   4.455  11.992 -0.1430 -1.0260 -0.2080
16286TIP3    H170273   3.459   4.486  11.960 -0.7202 -0.2580 -1.0135
16286TIP3    H270274   3.381   4.360  11.990  0.1810 -0.9869 -1.6994
16287TIP3   OH270275   3.666   2.878   5.953  0.4140 -0.3605 -0.1334
16287TIP3    H170276   3.574   2.904   5.948  0.4546 -0.1820  0.0214
16287TIP3    H270277   3.664   2.782   5.954  0.1866 -0.3566  0.6167
16288TIP3   OH270278   4.708   0.766  12.428  0.5147  0.4139  0.4062
16288TIP3    H170279   4.664   0.686  12.458  0.6669 -0.5821 -1.8125
16288TIP3    H270280   4.736   0.810  12.508 -0.3919 -1.2928  1.7183
16289TIP3   OH270281   6.436   1.512   4.506 -0.4119  0.0637  0.2073
16289TIP3    H170282   6.475   1.447   4.448  0.1235  0.8199 -0.3053
16289TIP3    H270283   6.503   1.529   4.572 -0.7182 -0.2207  0.5958
16290TIP3   OH270284   0.583   4.600   5.872 -0.0627 -0.1907 -1.1344
16290TIP3    H170285   0.666   4.645   5.890 -0.9549  0.9285  0.4008
16290TIP3    H270286   0.586   4.582   5.778  0.1756  3.4936 -1.9747
16291TIP3   OH270287   4.243   1.031   2.916 -0.6471 -0.5236 -0.1862
16291TIP3    H170288   4.271   0.941   2.932 -1.7960 -0.9714 -0.6144
16291TIP3    H270289   4.148   1.026   2.911 -0.6522  0.4953 -1.5009
16292TIP3   OH270290   4.821   4.417  15.293  0.1917  0.3812 -0.6957
16292TIP3    H170291   4.745   4.451  15.246 -1.0606  0.1314  1.0261
16292TIP3    H270292   4.807   4.445  15.384 -0.1386 -3.2964  0.5556
16293TIP3   OH270293   1.729   5.792   6.502 -0.4145 -0.5374  0.6579
16293TIP3    H170294   1.742   5.875   6.548  1.0486 -0.1188 -0.4645
16293TIP3    H270295   1.633   5.784   6.495 -0.6128  2.1915 -1.2039
16294TIP3   OH270296   3.131   5.585  17.273  0.2794  0.0823 -0.1248
16294TIP3    H170297   3.150   5.626  17.189  1.1423  0.8218  0.4106
16294TIP3    H270298   3.139   5.657  17.336 -1.1615 -0.2676  0.5106
16295TIP3   OH270299   6.500   1.273  10.828  0.0667 -0.8820  0.0187
16295TIP3    H170300   6.461   1.214  10.893  1.5520  0.0367  1.8479
16295TIP3    H270301   6.586   1.294  10.864  0.8463 -0.1128 -2.1619
16296TIP3   OH270302   1.675   5.638   0.119  0.0111 -0.2843  0.0953
16296TIP3    H170303   1.770   5.624   0.126  0.0617  0.4675  1.1476
16296TIP3    H270304   1.637   5.551   0.130  0.5238 -0.3652  1.2945
16297TIP3   OH270305   4.520   4.234   6.262  0.0020 -0.1362  0.0895
16297TIP3    H170306   4.587   4.286   6.308  0.1114 -0.3666  0.1936
16297TIP3    H270307   4.553   4.144   6.267 -0.8050 -0.3974  1.0190
16298TIP3   OH270308   2.956   6.270   5.351 -0.4635  0.0188  0.5582
16298TIP3    H170309   2.996   6.184   5.367 -1.1948 -0.5981 -0.7281
16298TIP3    H270310   3.024   6.333   5.375  0.1911 -0.9243  1.2475
16299TIP3   OH270311   0.789   2.663   3.519 -0.3610  0.3020 -0.3792
16299TIP3    H170312   0.773   2.673   3.613  0.8950 -1.5377  0.1004
16299TIP3    H270313   0.711   2.620   3.485 -0.0089 -0.9121  0.2736
16300TIP3   OH270314   2.708   1.674  14.894 -0.0003  0.4888  0.3148
16300TIP3    H170315   2.680   1.647  14.981 -1.8104  0.1414 -0.3107
16300TIP3    H270316   2.646   1.630  14.835  0.9824  0.9530 -1.1286
16301TIP3   OH270317   0.389   3.690  11.380  0.4655 -0.0269  0.3019
16301TIP3    H170318   0.416   3.770  11.335 -1.6562  0.7076  0.1941
16301TIP3    H270319   0.330   3.646  11.319  0.4080 -0.8985  0.9571
16302TIP3   OH270320   6.360   2.447   0.686 -0.5104 -0.2116  0.0886
16302TIP3    H170321   6.452   2.471   0.673 -0.4833 -0.3455  0.0310
16302TIP3    H270322   6.340   2.478   0.775  0.1984 -1.9966  0.9365
16303TIP3   OH270323   5.981   0.272   0.086  0.0596 -0.0973  0.2495
16303TIP3    H170324   5.982   0.317   0.001  0.8808 -0.3894  0.0934
16303TIP3    H270325   6.070   0.281   0.119  0.2834 -1.7147  0.1598
16304TIP3   OH270326   2.801   4.213   0.022  0.5557 -0.4110 -0.0172
16304TIP3    H170327   2.775   4.190   0.111  0.0891  0.6173  0.1359
16304TIP3    H270328   2.849   4.137  -0.010  1.0169 -0.6684  1.2275
16305TIP3   OH270329   5.458   1.976  13.840 -0.5242 -0.2847 -0.0841
16305TIP3    H170330   5.553   1.970  13.836 -0.2676  2.0497  1.1287
16305TIP3    H270331   5.432   1.994  13.750  0.0659 -1.6601 -0.5635
16306TIP3   OH270332   5.705   0.718   1.342  0.1506  0.7292  0.3075
16306TIP3    H170333   5.760   0.785   1.302  0.0676  0.6527  0.0636
16306TIP3    H270334   5.689   0.655   1.272  2.3139 -0.8985  1.1611
16307TIP3   OH270335   3.455   3.127   3.348  0.4779 -0.5840 -0.2003
16307TIP3    H170336   3.433   3.105   3.257 -0.4119 -2.9783  0.5411
16307TIP3    H270337   3.453   3.223   3.350 -1.9392 -0.5023 -2.1425
16308TIP3   OH270338   3.815   0.357   3.797  0.6465  0.4732 -0.4634
16308TIP3    H170339   3.740   0.346   3.738 -0.4481 -0.6493  1.0514
16308TIP3    H270340   3.887   0.315   3.751 -0.5633 -1.8900 -0.3555
16309TIP3   OH270341   3.940   0.511   2.096  0.4712  0.1704 -0.3428
16309TIP3    H170342   3.869   0.533   2.036  1.1799  0.9156 -0.9153
16309TIP3    H270343   3.983   0.435   2.056 -0.3728 -0.6928  0.3284
16310TIP3   OH270344   6.470   0.817  11.575  0.4375 -0.5353  0.0363
16310TIP3    H170345   6.376   0.834  11.579  0.5931  0.4771 -0.4801
16310TIP3    H270346   6.481   0.766  11.494  0.5472  0.8709 -0.8574
16311TIP3   OH270347   1.652   5.726  13.157  0.1081  0.1761  0.0532
16311TIP3    H170348   1.620   5.743  13.068  0.4516 -0.7596 -0.2607
16311TIP3    H270349   1.738   5.686  13.144  0.3334  0.4000  0.8243
16312TIP3   OH270350   5.815   6.677  16.665  0.4685  0.0827 -0.5533
16312TIP3    H170351   5.898   6.633  16.647  1.0830  1.6014 -1.5882
16312TIP3    H270352   5.795   6.724  16.585  0.4939  2.7009  0.8580
16313TIP3   OH270353   3.166   2.944   2.148  0.4206 -0.0951 -0.1273
16313TIP3    H170354   3.072   2.939   2.131  0.9044 -1.3103 -2.9685
16313TIP3    H270355   3.196   3.017   2.093  1.2500 -0.1980  0.1793
16314TIP3   OH270356   1.425   1.294   4.108 -0.0328  0.8195 -0.5766
16314TIP3    H170357   1.500   1.270   4.052 -1.3679  0.7295 -2.4242
16314TIP3    H270358   1.358   1.321   4.046 -1.9352 -0.1948  0.9578
16315TIP3   OH270359   2.275   5.394  16.996  0.0549  0.3630  0.1612
16315TIP3    H170360   2.269   5.481  16.956  0.5849  0.0539 -0.6139
16315TIP3    H270361   2.302   5.337  16.925  2.3134  0.0167  1.2104
16316TIP3   OH270362   6.720   0.114   2.951 -0.3205  0.1391  0.0410
16316TIP3    H170363   6.627   0.092   2.940 -0.2270 -0.3093  0.1294
16316TIP3    H270364   6.753   0.048   3.011  0.5953 -1.1136 -1.7746
16317TIP3   OH270365   2.544   5.449  13.800 -0.0989  0.1190 -0.3951
16317TIP3    H170366   2.494   5.444  13.719  0.3491 -0.7983 -0.6263
16317TIP3    H270367   2.596   5.529  13.791 -0.7697  0.5464 -0.5757
16318TIP3   OH270368   0.978   2.966  15.298 -0.2362  0.1334 -0.2320
16318TIP3    H170369   1.006   2.922  15.378  1.9434  0.3521 -0.8124
16318TIP3    H270370   0.965   3.057  15.324  1.3364  0.3905 -0.2767
16319TIP3   OH270371   2.063   0.272  13.433  0.4856 -0.4307  0.2168
16319TIP3    H170372   2.030   0.252  13.521  1.4232 -0.6154  0.5379
16319TIP3    H270373   2.015   0.350  13.406  1.0586  0.3513  1.3920
16320TIP3   OH270374   4.833   4.405  17.360 -0.4362  0.2805  0.1781
16320TIP3    H170375   4.780   4.345  17.412  0.8173 -0.1955  0.9617
16320TIP3    H270376   4.865   4.353  17.287  1.2185 -0.2611  1.2290
16321TIP3   OH270377   2.863   6.722   6.160  0.1918  0.2504  0.0321
16321TIP3    H170378   2.815   6.696   6.239 -0.1680  0.6914 -0.0389
16321TIP3    H270379   2.866   6.817   6.163  1.7209  0.2177  0.4104
16322TIP3   OH270380   1.851   5.028   1.687 -0.2609  0.2900 -0.6260
16322TIP3    H170381   1.819   4.988   1.767 -0.4852  1.4179 -0.1300
16322TIP3    H270382   1.943   5.001   1.682 -0.5970 -0.8630 -0.6993
16323TIP3   OH270383   2.542   6.746  11.812  0.4403 -0.1633 -0.1999
16323TIP3    H170384   2.554   6.819  11.752 -0.8210 -0.4893 -0.8986
16323TIP3    H270385   2.447   6.733  11.814  0.4630 -0.2858  1.7353
16324TIP3   OH270386   6.578   3.847   4.324 -0.3499  0.1871  0.1519
16324TIP3    H170387   6.621   3.917   4.374 -1.3666  1.6458 -0.9408
16324TIP3    H270388   6.535   3.793   4.390 -1.4764  1.9392  0.9092
16325TIP3   OH270389   5.687   3.762   1.060  0.1330  0.1637 -0.1674
16325TIP3    H170390   5.717   3.680   1.022  0.3937  0.3518 -0.3673
16325TIP3    H270391   5.632   3.801   0.992 -2.0686 -1.0192  0.8334
16326TIP3   OH270392   3.636   3.495   4.015  0.5500  0.2844  0.2750
16326TIP3    H170393   3.606   3.479   4.105  0.3342  0.1518  0.1809
16326TIP3    H270394   3.600   3.422   3.965  1.1798  0.0283  0.1913
16327TIP3   OH270395   2.149   3.922   4.522 -0.0254 -0.1392 -0.3291
16327TIP3    H170396   2.072   3.869   4.502  0.4660 -0.2049 -2.3028
16327TIP3    H270397   2.127   3.967   4.603 -1.1973 -1.9143  0.4030
16328TIP3   OH270398   5.715   5.368  15.291 -0.7272  0.3038  0.0543
16328TIP3    H170399   5.766   5.360  15.372  1.7631  1.1778 -1.3149
16328TIP3    H270400   5.765   5.319  15.227 -1.8477  0.8726 -1.2974
16329TIP3   OH270401   5.105   3.913  15.977 -0.3686  0.2419  0.4310
16329TIP3    H170402   5.093   3.846  16.044  0.6003  0.6519  1.0229
16329TIP3    H270403   5.047   3.886  15.906 -0.2580 -1.0305  0.8053
16330TIP3   OH270404   0.671   4.916  11.393 -0.0073 -0.0171  0.2037
16330TIP3    H170405   0.627   4.863  11.327 -0.1492  1.5819 -1.0424
16330TIP3    H270406   0.731   4.971  11.344 -0.0434  1.1531  1.4142
16331TIP3   OH270407   4.606   5.095  12.577 -0.3541 -0.2216  0.0931
16331TIP3    H170408   4.540   5.104  12.645  0.2329 -0.3070  0.6758
16331TIP3    H270409   4.667   5.029  12.610 -0.6000 -0.9998 -0.9408
16332TIP3   OH270410   6.267   4.761  10.949  0.2001  0.2529  0.2292
16332TIP3    H170411   6.196   4.824  10.930 -0.7692 -0.9224 -0.1664
16332TIP3    H270412   6.271   4.706  10.871  0.0355 -1.0823  1.1379
16333TIP3   OH270413   5.036   4.750  16.389 -0.0828 -0.3514 -0.4424
16333TIP3    H170414   5.125   4.784  16.399  1.0041 -3.1346  0.2045
16333TIP3    H270415   5.016   4.763  16.296 -0.0287  2.4899 -0.1351
16334TIP3   OH270416   0.473   1.151   4.107  0.0317  0.0074  0.1810
16334TIP3    H170417   0.427   1.080   4.151  0.0676 -0.4545 -0.5270
16334TIP3    H270418   0.566   1.127   4.112 -0.1155 -1.4805 -2.5710
16335TIP3   OH270419   0.757   2.341  11.247  0.3774  0.0675 -0.0528
16335TIP3    H170420   0.720   2.253  11.257 -1.0624  0.4933 -1.3258
16335TIP3    H270421   0.751   2.379  11.334 -1.4715 -0.1855 -0.0210
16336TIP3   OH270422   2.702   6.087   3.898  0.0480 -0.2435 -0.2257
16336TIP3    H170423   2.763   6.089   3.972 -1.3103 -0.3052  0.9340
16336TIP3    H270424   2.756   6.061   3.824  1.7454  1.1517  0.4493
16337TIP3   OH270425   0.673   0.852  13.224  0.0786 -0.3427 -1.0274
16337TIP3    H170426   0.610   0.873  13.294  0.6771  0.6630 -0.7610
16337TIP3    H270427   0.639   0.898  13.147 -0.1512 -0.7857 -1.1893
16338TIP3   OH270428   1.758   6.561   3.544 -0.1402  0.0482  0.9458
16338TIP3    H170429   1.717   6.589   3.626 -0.7405  1.3590  0.2210
16338TIP3    H270430   1.714   6.612   3.476  1.9481  0.6944  0.0092
16339TIP3   OH270431   4.935   6.645   4.442  0.3386  0.1517  0.5486
16339TIP3    H170432   4.862   6.678   4.388  1.8423  0.2822 -1.5060
16339TIP3    H270433   4.900   6.566   4.482 -0.7534 -0.1628 -0.9130
16340TIP3   OH270434   2.653   1.140   4.052 -0.0100 -0.2087 -0.1186
16340TIP3    H170435   2.669   1.208   3.987  1.4213 -0.0054  0.4001
16340TIP3    H270436   2.673   1.182   4.136 -0.4567 -0.8675  0.3227
16341TIP3   OH270437   1.337   4.982  16.591 -0.4082  0.9389 -0.7474
16341TIP3    H170438   1.350   4.993  16.686  0.4023 -4.3717  0.0772
16341TIP3    H270439   1.423   4.998  16.553 -0.8189  3.4666 -0.7697
16342TIP3   OH270440   0.774   0.049  12.115  0.3040  0.6425 -0.2992
16342TIP3    H170441   0.867   0.069  12.119  0.2597  1.2111 -1.7232
16342TIP3    H270442   0.745   0.081  12.030 -0.8859 -0.8585 -0.5178
16343TIP3   OH270443   0.912   2.392   3.664 -0.4841 -0.2238  0.6433
16343TIP3    H170444   0.903   2.464   3.726  0.5123 -1.3816  2.2065
16343TIP3    H270445   0.952   2.431   3.586  0.4004  0.8363  1.5977
16344TIP3   OH270446   0.465   1.771  16.450 -0.1257 -0.0069  0.2679
16344TIP3    H170447   0.527   1.819  16.395  0.9556  1.1764  2.3884
16344TIP3    H270448   0.515   1.696  16.482 -0.5046 -0.2512  0.2973
16345TIP3   OH270449   2.686   3.637  12.128  0.3621 -0.5611 -0.5494
16345TIP3    H170450   2.668   3.700  12.058 -3.3851 -1.4110 -0.5160
16345TIP3    H270451   2.622   3.568  12.116  2.0989 -2.6886  1.5090
16346TIP3   OH270452   2.880   6.244   5.998  0.2207 -0.0930  0.1687
16346TIP3    H170453   2.799   6.294   5.989  1.4217  1.7614 -1.3919
16346TIP3    H270454   2.870   6.170   5.938 -0.7498 -0.5897  0.9084
16347TIP3   OH270455   2.735   0.445   3.214  0.2296 -0.5019  0.5096
16347TIP3    H170456   2.756   0.486   3.130 -0.6278 -1.5373 -0.2316
16347TIP3    H270457   2.663   0.497   3.248  0.2592 -0.3702  0.3727
16348TIP3   OH270458   3.037   2.695   5.166 -0.1056  0.4701  0.1391
16348TIP3    H170459   3.128   2.708   5.190 -0.4227  1.5754  0.8265
16348TIP3    H270460   3.027   2.744   5.084  0.2126 -0.7134 -0.6309
16349TIP3   OH270461   5.242   1.320  13.002 -0.0822 -0.8367 -0.3611
16349TIP3    H170462   5.312   1.272  13.046 -0.6710  0.3838  2.0897
16349TIP3    H270463   5.199   1.255  12.947  1.4075 -2.2059  0.0302
16350TIP3   OH270464   6.566   6.730   3.469  0.1061 -0.1270  0.1479
16350TIP3    H170465   6.596   6.741   3.560  0.9419 -0.3147 -0.0921
16350TIP3    H270466   6.639   6.762   3.416 -0.2502 -0.3096 -0.4660
16351TIP3   OH270467   5.883   0.041   3.634 -0.1013  0.5334  0.0813
16351TIP3    H170468   5.948   0.034   3.564  0.0693  0.9603  0.1936
16351TIP3    H270469   5.859  -0.049   3.654 -2.0482  0.4411 -2.2691
16352TIP3   OH270470   4.392   4.816   2.376  0.2495 -0.0036  0.7380
16352TIP3    H170471   4.301   4.823   2.347  0.0461 -0.6384  1.2056
16352TIP3    H270472   4.415   4.725   2.361  0.7385  0.1026  0.8284
16353TIP3   OH270473   5.552   3.722   4.901  0.1038 -0.0263 -0.2929
16353TIP3    H170474   5.574   3.710   4.993 -0.2036  1.5045  0.0091
16353TIP3    H270475   5.575   3.639   4.860 -1.4595 -1.4015  1.4591
16354TIP3   OH270476   5.551   2.855   5.716  0.1546 -0.0676  0.0113
16354TIP3    H170477   5.480   2.919   5.722  1.1160  0.9901  0.7936
16354TIP3    H270478   5.565   2.826   5.806  0.8421 -0.0845 -0.0895
16355TIP3   OH270479   2.073   1.928  15.029  0.5228 -0.5930 -0.0001
16355TIP3    H170480   2.165   1.928  15.055  0.0593 -0.9001  1.7416
16355TIP3    H270481   2.044   2.018  15.044  0.6273 -0.3807 -0.9828
16356TIP3   OH270482   5.794   1.021   1.262  0.7219  0.0564  0.5661
16356TIP3    H170483   5.880   0.981   1.269  1.2224  0.8772 -0.6925
16356TIP3    H270484   5.806   1.095   1.203 -0.5775  0.9551  1.3681
16357TIP3   OH270485   4.907   3.052  14.396 -0.1622 -0.1086  0.0319
16357TIP3    H170486   4.897   2.976  14.453  1.1329 -0.8819 -0.7116
16357TIP3    H270487   4.947   3.017  14.317 -0.7634  1.1491 -0.8590
16358TIP3   OH270488   6.542   1.156  14.779  0.1333 -0.2024 -0.0665
16358TIP3    H170489   6.464   1.177  14.829  0.2023 -0.1646  0.0264
16358TIP3    H270490   6.509   1.121  14.696  0.0186  0.0735 -0.1384
16359TIP3   OH270491   1.334   2.800  11.090  0.0296  0.1095  0.1593
16359TIP3    H170492   1.429   2.801  11.079 -0.0322 -0.5185 -0.5989
16359TIP3    H270493   1.300   2.789  11.001 -0.7776  0.8458  0.3581
16360TIP3   OH270494   2.272   4.074   2.803 -0.3774  0.8213  0.3046
16360TIP3    H170495   2.329   4.107   2.734  0.3041  0.8446  0.8744
16360TIP3    H270496   2.210   4.017   2.757  0.2081  0.6606 -0.3027
16361TIP3   OH270497   3.892   3.544   2.839  0.4718 -0.1534  0.0685
16361TIP3    H170498   3.875   3.637   2.826  0.0539  0.0308  1.7015
16361TIP3    H270499   3.985   3.533   2.821  0.1785  0.2069 -1.8925
16362TIP3   OH270500   0.805   4.389  12.920 -0.3153  0.1393 -0.2842
16362TIP3    H170501   0.726   4.393  12.974 -0.2006  1.3730 -0.1944
16362TIP3    H270502   0.773   4.368  12.833 -1.0473  2.8859 -0.7699
16363TIP3   OH270503   4.119   3.298  14.968  0.6573  0.0572 -0.3152
16363TIP3    H170504   4.090   3.216  15.008  1.7442  0.1541  0.7332
16363TIP3    H270505   4.042   3.331  14.922  0.2977 -1.7185 -1.0522
16364TIP3   OH270506   4.854   5.486   5.688 -0.4607  0.1509 -1.1292
16364TIP3    H170507   4.769   5.522   5.712 -0.0974  1.2935 -1.4761
16364TIP3    H270508   4.892   5.553   5.631  1.1487  0.2160 -0.0495
16365TIP3   OH270509   6.069   3.985   5.705 -0.0085  0.1201 -0.6792
16365TIP3    H170510   5.976   4.003   5.687 -0.2655  0.2801  0.7453
16365TIP3    H270511   6.111   3.992   5.619 -1.0746  1.5337 -1.1202
16366TIP3   OH270512   1.683   3.900  15.794 -0.0736  0.1093  0.5698
16366TIP3    H170513   1.636   3.941  15.721 -0.7901  0.2814  1.1171
16366TIP3    H270514   1.642   3.936  15.873  0.4871 -0.3024  1.0641
16367TIP3   OH270515   1.399   0.564  13.274 -0.0190 -0.0260 -0.6354
16367TIP3    H170516   1.377   0.510  13.198 -0.7314  0.0482 -0.4852
16367TIP3    H270517   1.318   0.569  13.325  0.8535 -1.5193  1.0409
16368TIP3   OH270518   4.688   6.033   5.912 -0.0259 -0.2449  0.1883
16368TIP3    H170519   4.755   6.048   5.979 -0.0880 -1.7758  0.6347
16368TIP3    H270520   4.724   6.073   5.832  0.3581  0.9814  0.9471
16369TIP3   OH270521   6.185   0.213  15.127 -0.1242 -0.0695  0.0278
16369TIP3    H170522   6.218   0.216  15.217  1.0457 -1.6278 -0.2883
16369TIP3    H270523   6.136   0.294  15.116 -1.3376 -0.3961  2.4526
16370TIP3   OH270524   2.171   4.035  16.602 -0.1278 -0.3119  0.2782
16370TIP3    H170525   2.203   4.001  16.519  1.5822  0.8264  0.4032
16370TIP3    H270526   2.217   4.118  16.613  0.7218 -1.0323  2.9869
16371TIP3   OH270527   2.879   6.485  14.203 -0.2643  0.0444  0.2078
16371TIP3    H170528   2.943   6.433  14.252 -0.7761 -0.5386  0.2772
16371TIP3    H270529   2.823   6.419  14.160 -1.7915  0.4924  1.4055
16372TIP3   OH270530   1.225   4.119   3.513  0.6515  0.2959  0.2368
16372TIP3    H170531   1.221   4.194   3.573  1.5546  0.6415 -0.1184
16372TIP3    H270532   1.311   4.081   3.529  0.1675 -0.7440  0.4803
16373TIP3   OH270533   0.464   1.290   0.337  0.4432 -0.3418  0.1865
16373TIP3    H170534   0.395   1.257   0.281 -1.3299  0.0296  2.0257
16373TIP3    H270535   0.488   1.215   0.392  0.1144  0.0299  0.8485
16374TIP3   OH270536   1.745   2.696  16.200 -0.3890  0.3571  0.0886
16374TIP3    H170537   1.650   2.693  16.186 -0.1002 -3.2589 -2.5831
16374TIP3    H270538   1.774   2.776  16.156 -1.9040 -0.3866 -2.4522
16375TIP3   OH270539   5.075   2.199   4.338  0.3732  0.1919  0.4045
16375TIP3    H170540   5.059   2.187   4.245 -2.3785  0.6994  0.7254
16375TIP3    H270541   5.080   2.111   4.374  3.7609 -0.0948 -0.4387
16376TIP3   OH270542   2.921   1.427  13.854  0.9147  0.2230 -0.1777
16376TIP3    H170543   2.928   1.507  13.801  1.5864  0.0203 -0.4144
16376TIP3    H270544   2.838   1.389  13.828  1.2414  0.1133 -1.1354
16377TIP3   OH270545   3.001   4.240  16.463  0.2314  0.7730 -0.1211
16377TIP3    H170546   3.090   4.263  16.490  0.5012 -0.2859 -0.0503
16377TIP3    H270547   3.012   4.193  16.381 -0.2106  0.2149  0.1296
16378TIP3   OH270548   0.685   5.014  13.348  0.2501 -0.3179  0.0835
16378TIP3    H170549   0.677   5.000  13.253 -0.8941 -1.6350  0.3475
16378TIP3    H270550   0.594   5.019  13.379  0.5392 -2.4627  1.4448
16379TIP3   OH270551   3.298   2.191   2.301  0.1184 -0.3344  0.4672
16379TIP3    H170552   3.221   2.149   2.339  0.4575 -0.5171  0.9539
16379TIP3    H270553   3.370   2.130   2.318  0.2235 -0.5717 -0.7485
16380TIP3   OH270554   1.079   5.383  16.160  0.2065  0.3708  0.5718
16380TIP3    H170555   1.039   5.365  16.245  0.9997 -1.0563  0.6602
16380TIP3    H270556   1.108   5.474  16.166 -0.5336  0.5540  1.4985
16381TIP3   OH270557   1.822   6.735  16.443  0.2287 -0.2972 -0.2818
16381TIP3    H170558   1.865   6.738  16.357  2.5116 -1.4199  0.7177
16381TIP3    H270559   1.879   6.787  16.500 -1.0656  0.1426  0.6440
16382TIP3   OH270560   3.125   0.062   6.519 -0.6464  0.5317 -0.6090
16382TIP3    H170561   3.082  -0.003   6.575 -0.4272  1.9768  1.3684
16382TIP3    H270562   3.078   0.144   6.537  1.8306  1.8435  0.4801
16383TIP3   OH270563   4.717   3.791   1.963  0.0832  0.1433 -0.0958
16383TIP3    H170564   4.710   3.699   1.938  1.4633  0.8201 -3.4912
16383TIP3    H270565   4.788   3.794   2.027  0.7560 -1.0613 -0.7594
16384TIP3   OH270566   4.959   1.866  16.226  0.1247 -0.1609 -0.0534
16384TIP3    H170567   5.001   1.932  16.170 -0.8940  0.3955 -0.1815
16384TIP3    H270568   4.870   1.899  16.239  0.7156  0.5321  3.1496
16385TIP3   OH270569   5.324   6.680  15.122 -0.1730 -0.3859  0.8655
16385TIP3    H170570   5.269   6.745  15.077  0.7841  0.4022  0.8042
16385TIP3    H270571   5.263   6.630  15.176 -0.7218  1.7535  2.3515
16386TIP3   OH270572   0.224   2.731  16.270 -0.2095  0.0239 -0.6631
16386TIP3    H170573   0.310   2.726  16.312  0.0977 -1.6337 -1.4210
16386TIP3    H270574   0.189   2.816  16.298  1.2826  0.3383  0.3860
16387TIP3   OH270575   5.938   2.230   2.172  0.1671 -0.2273  0.0445
16387TIP3    H170576   5.868   2.290   2.148  1.4125  0.8592 -1.0543
16387TIP3    H270577   5.902   2.143   2.156 -0.7429  0.3236 -1.0337
16388TIP3   OH270578   6.240   2.691  17.364 -0.0396 -0.5148  0.2100
16388TIP3    H170579   6.164   2.645  17.330  0.0038 -0.6481  0.2920
16388TIP3    H270580   6.224   2.697  17.458 -0.3865  0.2707  0.1111
16389TIP3   OH270581   5.248   1.647   1.260  0.5156  0.0989  0.2437
16389TIP3    H170582   5.255   1.717   1.195 -1.5768  0.2811  0.1668
16389TIP3    H270583   5.339   1.627   1.282  1.3347 -0.1146 -2.8554
16390TIP3   OH270584   6.161   3.215   0.882  0.4758  0.3011  0.0434
16390TIP3    H170585   6.222   3.163   0.830  1.2853  1.5987 -0.3551
16390TIP3    H270586   6.075   3.197   0.844  0.7429 -0.6543 -0.1406
16391TIP3   OH270587   5.173   2.989   0.521 -0.3563 -0.2113  0.2931
16391TIP3    H170588   5.205   2.899   0.523 -1.7157 -0.7281 -0.0547
16391TIP3    H270589   5.152   3.009   0.613  2.3000  0.6885  0.7914
16392TIP3   OH270590   0.396   2.526  15.530  0.3597  0.1003 -0.5082
16392TIP3    H170591   0.317   2.571  15.499 -0.0941  0.4936  1.1195
16392TIP3    H270592   0.468   2.583  15.503 -0.1476  1.3843  0.7120
16393TIP3   OH270593   0.998   4.630   5.203 -0.3163 -0.0863  0.0903
16393TIP3    H170594   0.941   4.560   5.173  0.9556 -0.8892 -0.5559
16393TIP3    H270595   1.082   4.613   5.159  0.4240  1.0372  1.0060
16394TIP3   OH270596   4.625   5.825  11.758  0.0536 -0.0172 -0.5062
16394TIP3    H170597   4.555   5.834  11.693 -0.9024 -0.8975  0.3589
16394TIP3    H270598   4.672   5.746  11.731  1.3306  1.0864 -1.6204
16395TIP3   OH270599   4.785   2.079   3.075  0.3846 -0.7256  0.5692
16395TIP3    H170600   4.878   2.058   3.069  0.4170 -0.3292 -0.7815
16395TIP3    H270601   4.754   2.074   2.985  0.2185  4.0172  0.0932
16396TIP3   OH270602   5.770   1.026   2.423  0.3501  0.5545  0.0132
16396TIP3    H170603   5.750   1.119   2.419 -0.5112  0.3524 -3.0412
16396TIP3    H270604   5.782   1.007   2.516  0.7645  3.7219  0.6960
16397TIP3   OH270605   2.988   4.405   4.102 -0.1367 -0.4638 -0.0979
16397TIP3    H170606   2.999   4.373   4.013 -2.6923 -1.5232 -0.1193
16397TIP3    H270607   2.920   4.349   4.140  0.3861  0.3869  2.3090
16398TIP3   OH270608   6.068   0.027   3.425 -0.1425 -0.0281  0.4295
16398TIP3    H170609   6.129  -0.039   3.458 -2.1628 -1.4564  1.4527
16398TIP3    H270610   6.067   0.013   3.330  0.3039 -0.7251  0.5182
16399TIP3   OH270611   0.915   6.224  16.604 -0.5221 -0.4519  0.7763
16399TIP3    H170612   0.968   6.302  16.590 -1.3168 -0.2490 -1.6475
16399TIP3    H270613   0.951   6.159  16.544  0.1780 -2.0468  2.8016
16400TIP3   OH270614   3.375   5.782  15.994 -0.0736 -0.2384 -0.1679
16400TIP3    H170615   3.380   5.848  16.063  0.5312  0.1909 -0.6168
16400TIP3    H270616   3.312   5.718  16.027  0.8631 -0.4973  1.1654
16401TIP3   OH270617   4.328   1.339  14.432 -0.3268 -0.5143  0.0802
16401TIP3    H170618   4.380   1.404  14.385  0.7270 -1.4593 -0.0968
16401TIP3    H270619   4.237   1.357  14.406  0.0303  0.3515 -0.6024
16402TIP3   OH270620   3.095   2.124  13.123  0.1797 -0.6143 -0.5466
16402TIP3    H170621   3.042   2.045  13.113 -0.7394 -0.3985  1.9257
16402TIP3    H270622   3.176   2.105  13.075 -0.5426 -2.5058 -1.1079
16403TIP3   OH270623   5.645   2.584   1.330  0.5148  0.5664 -0.6603
16403TIP3    H170624   5.733   2.619   1.313  1.3039 -1.5532 -1.2969
16403TIP3    H270625   5.642   2.573   1.425  1.9726 -1.6631 -0.7951
16404TIP3   OH270626   0.943   5.022   2.887 -0.1371 -0.3426 -0.3584
16404TIP3    H170627   1.018   4.962   2.884 -0.0849 -0.2982  0.0080
16404TIP3    H270628   0.869   4.967   2.915 -0.1702 -0.3187 -0.3992
16405TIP3   OH270629   5.386   5.980  12.256 -1.1671 -0.5426  0.0990
16405TIP3    H170630   5.344   6.028  12.328 -0.9863  0.2633 -0.3194
16405TIP3    H270631   5.326   5.992  12.182 -1.1559 -1.0301  0.0097
16406TIP3   OH270632   6.483   2.694   0.720 -0.2537 -0.1019 -0.3845
16406TIP3    H170633   6.516   2.669   0.634  1.6322  1.7182 -0.2525
16406TIP3    H270634   6.423   2.766   0.702 -1.6276 -1.1849 -0.3182
16407TIP3   OH270635   6.324   4.615   3.601  0.1053 -0.0382 -0.1088
16407TIP3    H170636   6.329   4.695   3.653 -1.9345  0.9262 -1.2880
16407TIP3    H270637   6.353   4.641   3.514  1.1177 -1.0461 -0.0993
16408TIP3   OH270638   1.697   3.221  11.040 -0.4845 -0.1208 -0.0120
16408TIP3    H170639   1.695   3.145  11.097  0.0416 -0.6094 -0.6328
16408TIP3    H270640   1.783   3.261  11.056 -0.8052  0.4290  0.4066
16409TIP3   OH270641   6.174   0.227   4.185  0.3128 -0.4411 -0.0712
16409TIP3    H170642   6.146   0.253   4.273  0.5704  0.4186 -0.2346
16409TIP3    H270643   6.170   0.131   4.185  1.0175 -0.4832  1.1082
16410TIP3   OH270644   3.209   0.383   1.999  0.2597 -0.1472 -0.0134
16410TIP3    H170645   3.280   0.447   1.994  0.7497 -0.7044 -0.2345
16410TIP3    H270646   3.198   0.368   2.093 -1.2228  1.7495  0.1764
16411TIP3   OH270647   3.633   3.610   5.292 -0.2352  0.3310  0.2296
16411TIP3    H170648   3.635   3.581   5.201  3.0688  1.4091 -0.1547
16411TIP3    H270649   3.675   3.539   5.341 -0.6561  0.4161  0.7291
16412TIP3   OH270650   4.180   4.914  17.298  0.0818 -0.0208 -0.1984
16412TIP3    H170651   4.085   4.908  17.310  0.1036  1.7429  1.2693
16412TIP3    H270652   4.196   5.003  17.269  1.4063  0.3453  1.4614
16413TIP3   OH270653   2.290   2.671  15.772 -0.4740 -0.2268  0.4388
16413TIP3    H170654   2.361   2.635  15.825 -0.0684 -0.5209 -0.2917
16413TIP3    H270655   2.333   2.698  15.691 -0.8090  1.6113  0.8241
16414TIP3   OH270656   0.950   3.354   3.554 -0.6169 -0.1705  0.1738
16414TIP3    H170657   0.859   3.331   3.574 -1.1043  1.5036  0.0096
16414TIP3    H270658   0.965   3.436   3.602  0.6005 -0.0738 -0.3421
16415TIP3   OH270659   2.188   2.945   3.156  0.1652  0.1765 -0.9228
16415TIP3    H170660   2.122   2.961   3.088 -0.0658 -0.4361 -0.8436
16415TIP3    H270661   2.271   2.972   3.116 -0.0709  0.5223 -1.1822
16416TIP3   OH270662   5.953   6.205   5.556 -0.1139 -0.4082 -0.3335
16416TIP3    H170663   5.858   6.207   5.553 -0.1739 -1.8606 -3.7570
16416TIP3    H270664   5.975   6.112   5.565  1.0272 -0.0713  0.6458
16417TIP3   OH270665   3.283   0.014  15.160 -0.4663  0.0281 -0.9687
16417TIP3    H170666   3.269   0.077  15.230  1.5328 -1.0695  0.5199
16417TIP3    H270667   3.325   0.065  15.090  0.7320  0.4996  0.0485
16418TIP3   OH270668   3.519   4.149   2.462  0.8149  0.0024 -1.1356
16418TIP3    H170669   3.474   4.155   2.546  0.2946 -0.1477 -1.4030
16418TIP3    H270670   3.519   4.239   2.428 -0.2243 -0.1698 -1.6209
16419TIP3   OH270671   2.292   4.063   2.128 -0.5305 -0.7043 -0.1535
16419TIP3    H170672   2.296   4.095   2.218 -0.2245  0.1459 -0.4622
16419TIP3    H270673   2.226   4.119   2.086  0.3038 -0.1848 -0.8041
16420TIP3   OH270674   6.503   2.383  15.046  0.1162  0.6121 -0.3146
16420TIP3    H170675   6.538   2.322  15.111  0.0139  0.7513 -0.1274
16420TIP3    H270676   6.451   2.445  15.097 -1.8407 -0.5905 -0.7795
16421TIP3   OH270677   3.544   3.947  13.780  0.3945 -0.4153  0.6544
16421TIP3    H170678   3.581   3.976  13.696 -2.2198  2.0244  0.1885
16421TIP3    H270679   3.478   3.882  13.755 -0.9532  0.8968  0.6509
16422TIP3   OH270680   1.902   3.738   3.172  0.0624 -0.0072  0.0558
16422TIP3    H170681   1.839   3.705   3.107 -0.0502 -1.8582  1.0353
16422TIP3    H270682   1.851   3.797   3.226 -1.2695 -2.4078  1.5926
16423TIP3   OH270683   6.601   4.332   2.573  0.0581 -0.0052  0.9312
16423TIP3    H170684   6.547   4.292   2.642 -1.3661 -1.1086 -0.7285
16423TIP3    H270685   6.542   4.338   2.497  1.5501  1.1961 -0.1932
16424TIP3   OH270686   4.936   4.771  11.316 -0.0095 -0.3768  0.5605
16424TIP3    H170687   4.889   4.815  11.245  1.1847 -0.2832 -0.2041
16424TIP3    H270688   5.026   4.805  11.311  1.0506 -3.0068 -0.2302
16425TIP3   OH270689   5.303   0.493   5.518  0.0871  0.4517 -0.1272
16425TIP3    H170690   5.305   0.504   5.613  0.6009 -2.1623  0.2213
16425TIP3    H270691   5.391   0.464   5.495 -0.2822  0.2091 -1.2986
16426TIP3   OH270692   5.658   1.538   1.049  0.2726 -0.0708  0.0294
16426TIP3    H170693   5.691   1.628   1.046 -0.0166  0.1036  1.2561
16426TIP3    H270694   5.608   1.528   0.968  1.4131  0.4210 -0.7544
16427TIP3   OH270695   0.257   5.858   4.716  0.6480 -0.2055  0.0988
16427TIP3    H170696   0.317   5.828   4.647  0.9716  0.7792 -0.0582
16427TIP3    H270697   0.306   5.846   4.797 -0.3510 -3.0433  0.4246
16428TIP3   OH270698   4.592   4.708  14.499 -0.0170 -0.1170 -0.3211
16428TIP3    H170699   4.672   4.760  14.505 -0.5884  0.8395 -0.8576
16428TIP3    H270700   4.538   4.739  14.571 -0.2569 -0.1598 -0.4840
16429TIP3   OH270701   3.537   6.106  13.394  0.5455  0.1106 -0.1392
16429TIP3    H170702   3.479   6.051  13.340  0.4280 -1.2430  1.3101
16429TIP3    H270703   3.491   6.114  13.477  0.6674  2.2840 -0.2329
16430TIP3   OH270704   2.275   6.331  13.035  0.8443  0.2694  0.9466
16430TIP3    H170705   2.278   6.262  13.101  1.5785 -1.3657 -0.7114
16430TIP3    H270706   2.319   6.293  12.958 -0.3796  1.9172 -0.6541
16431TIP3   OH270707   3.017   4.806  17.363 -0.4266 -0.2078  0.0112
16431TIP3    H170708   2.982   4.758  17.289 -0.4284 -0.7270  0.3421
16431TIP3    H270709   3.090   4.856  17.328 -0.8853  0.1193 -0.4864
16432TIP3   OH270710   0.864   2.536  15.877  0.2750 -0.5809  0.0010
16432TIP3    H170711   0.877   2.480  15.954  1.8445  0.7859  0.8109
16432TIP3    H270712   0.806   2.606  15.908 -0.8685 -1.1826 -0.7171
16433TIP3   OH270713   3.975   6.664   0.289  0.3597  0.4147 -0.4094
16433TIP3    H170714   3.941   6.750   0.265 -0.3218 -0.2869 -2.1361
16433TIP3    H270715   3.983   6.667   0.384  0.7732  2.5261 -0.4480
16434TIP3   OH270716   1.069   2.834  16.354  0.1898 -0.2898 -0.0115
16434TIP3    H170717   1.135   2.816  16.421  1.0111  1.0343 -0.4329
16434TIP3    H270718   1.015   2.903  16.391  0.5966  0.3915 -0.6614
16435TIP3   OH270719   0.415   5.174  12.158  0.2662  0.3393  0.5407
16435TIP3    H170720   0.378   5.256  12.188  1.6251  0.0444  3.2905
16435TIP3    H270721   0.352   5.107  12.186  0.2586  0.2652  0.3499
16436TIP3   OH270722   4.341   5.552  13.303  0.0730 -0.3855  0.1272
16436TIP3    H170723   4.376   5.562  13.392  2.0812 -1.0747 -0.5292
16436TIP3    H270724   4.312   5.640  13.279  1.9116  0.3885  0.5399
16437TIP3   OH270725   1.027   3.853  15.502  0.3353  0.2413  0.0525
16437TIP3    H170726   1.083   3.931  15.500 -0.0934  0.5580  0.2799
16437TIP3    H270727   0.988   3.851  15.415  1.1378 -0.3128 -0.3109
16438TIP3   OH270728   4.653   6.391  13.515 -0.0626  0.1289 -0.3299
16438TIP3    H170729   4.598   6.469  13.515  0.4039  0.4619 -0.3870
16438TIP3    H270730   4.656   6.364  13.423  1.7868  1.4945 -0.7209
16439TIP3   OH270731   1.872   5.915  15.957 -0.2781 -0.8337  0.4079
16439TIP3    H170732   1.879   5.860  15.879  1.2313  1.2039 -0.9960
16439TIP3    H270733   1.913   5.864  16.027  0.0735 -1.9260 -0.5744
16440TIP3   OH270734   0.668   5.529  15.839 -0.2278  0.2017 -0.0677
16440TIP3    H170735   0.762   5.540  15.856 -0.5007 -0.0400  1.8724
16440TIP3    H270736   0.626   5.591  15.899 -1.3444 -0.9780  0.4108
16441TIP3   OH270737   2.712   1.726  16.297 -0.2491 -0.2169 -0.6663
16441TIP3    H170738   2.758   1.645  16.316  1.0849  0.2816 -1.6467
16441TIP3    H270739   2.781   1.791  16.281 -1.2819  1.0685 -0.1322
16442TIP3   OH270740   4.088   4.632  14.852 -0.4242 -0.1498 -0.0633
16442TIP3    H170741   4.127   4.551  14.885 -0.2833  0.4511  1.3334
16442TIP3    H270742   4.143   4.657  14.778  0.8110 -0.2419  0.7900
16443TIP3   OH270743   1.443   5.419  15.173  0.4845 -0.1860 -0.1911
16443TIP3    H170744   1.467   5.332  15.207  0.8427  0.0244  0.0969
16443TIP3    H270745   1.523   5.451  15.132  0.5636  0.3291  0.3670
16444TIP3   OH270746   4.084   5.504  16.183  0.0433  1.0652 -0.1342
16444TIP3    H170747   4.006   5.472  16.229  0.6976  0.2513  0.4419
16444TIP3    H270748   4.050   5.554  16.109 -1.0308  1.5411  0.6548
16445TIP3   OH270749   1.008   5.490  12.830 -0.1427  0.0944  0.2177
16445TIP3    H170750   1.088   5.457  12.788  0.2759  1.1452  0.1617
16445TIP3    H270751   0.939   5.433  12.796  0.1825  0.8480 -1.8872
16446TIP3   OH270752   6.000   1.094   0.234 -0.2895  0.6121  0.7746
16446TIP3    H170753   6.082   1.049   0.254 -0.8035 -0.8690 -0.2713
16446TIP3    H270754   5.970   1.129   0.318 -0.9069 -2.8069  2.1438
16447TIP3   OH270755   4.616   2.854   0.248  0.2129  0.8379 -0.5299
16447TIP3    H170756   4.616   2.942   0.286 -0.8606 -0.3326  2.5132
16447TIP3    H270757   4.623   2.795   0.323 -0.4813 -1.7234 -2.3243
16448TIP3   OH270758   2.924   2.898   3.175  0.2934 -0.2214  0.2124
16448TIP3    H170759   2.903   2.982   3.135 -1.6631 -0.0695  1.4192
16448TIP3    H270760   2.921   2.835   3.103 -2.0609  0.2021 -0.1372
16449TIP3   OH270761   4.349   0.587   3.164  0.3979 -0.0676 -0.0488
16449TIP3    H170762   4.355   0.610   3.256  2.1521  0.9974 -0.3751
16449TIP3    H270763   4.329   0.493   3.163  0.5195 -0.1227  1.4103
16450TIP3   OH270764   0.430   6.501   2.596  0.3306  0.2807  0.0239
16450TIP3    H170765   0.372   6.562   2.641  0.4892  0.4227  0.0395
16450TIP3    H270766   0.505   6.492   2.655  1.4932  2.0422 -1.0943
16451TIP3   OH270767   0.835   2.198   1.721 -0.0475 -0.0275  0.4672
16451TIP3    H170768   0.807   2.178   1.810 -1.1995  1.3690  0.4578
16451TIP3    H270769   0.844   2.294   1.720  1.1290 -0.1159 -0.6004
16452TIP3   OH270770   4.439   0.985   3.229 -0.1423 -0.3575 -0.0305
16452TIP3    H170771   4.389   0.908   3.202 -1.0145 -0.1498  0.9313
16452TIP3    H270772   4.381   1.059   3.213 -0.2157 -0.1255  1.2150
16453TIP3   OH270773   4.258   6.216   2.474 -0.1951  0.2650  0.3376
16453TIP3    H170774   4.322   6.270   2.521  0.8100 -1.0624  0.5678
16453TIP3    H270775   4.252   6.136   2.526  0.3841 -0.9481 -1.3736
16454TIP3   OH270776   4.198   3.048  11.823 -0.1700 -1.0467 -1.1471
16454TIP3    H170777   4.154   3.110  11.765 -1.3584  1.0810  1.7567
16454TIP3    H270778   4.142   2.970  11.822 -1.7064  0.0007 -0.8202
16455TIP3   OH270779   4.369   0.223   3.928 -0.0096 -0.1975 -0.2024
16455TIP3    H170780   4.321   0.249   3.850  1.0334  1.0921 -0.4420
16455TIP3    H270781   4.435   0.161   3.896 -0.7002 -1.0299 -0.0550
16456TIP3   OH270782   6.215   0.930   5.313 -0.3359 -0.6938  0.3429
16456TIP3    H170783   6.248   0.996   5.375 -1.2595  0.1494 -0.0586
16456TIP3    H270784   6.121   0.946   5.308 -0.5913 -2.1067  0.3061
16457TIP3   OH270785   2.988   4.160  16.741  0.3366 -0.3251  0.3690
16457TIP3    H170786   2.986   4.159  16.645 -1.2123  0.1255  0.3699
16457TIP3    H270787   2.970   4.252  16.764 -1.4186 -0.8009  1.0762
16458TIP3   OH270788   5.576   2.828   0.285 -0.5135 -0.3978 -0.3616
16458TIP3    H170789   5.581   2.769   0.210 -1.1569  0.4493 -1.0912
16458TIP3    H270790   5.603   2.913   0.251  0.8849 -0.3350  0.7895
16459TIP3   OH270791   2.886   5.080  13.129 -0.0825 -0.3090 -0.2533
16459TIP3    H170792   2.874   5.170  13.160  0.5222 -0.1479 -0.4702
16459TIP3    H270793   2.810   5.033  13.162 -1.2528  0.6364 -1.4701
16460TIP3   OH270794   1.695   5.473   1.023 -0.2956 -0.2343 -0.3812
16460TIP3    H170795   1.781   5.445   1.054  0.4263  1.4579 -0.7231
16460TIP3    H270796   1.707   5.488   0.929 -1.1785 -0.7373 -0.5775
16461TIP3   OH270797   2.391   3.727  13.744  0.0634 -0.0047  0.8420
16461TIP3    H170798   2.376   3.798  13.806 -0.9961  0.5597 -0.0468
16461TIP3    H270799   2.373   3.764  13.658  1.5519 -0.7616  0.1447
16462TIP3   OH270800   2.690   3.840   2.545  0.1936 -0.0057 -0.1125
16462TIP3    H170801   2.774   3.885   2.552  0.1008  0.1173  0.2274
16462TIP3    H270802   2.637   3.878   2.615 -0.1781 -0.0091 -0.3947
16463TIP3   OH270803   3.184   6.367   6.051 -0.2747  0.1734  0.0540
16463TIP3    H170804   3.109   6.423   6.065 -1.4440 -1.1182 -0.7632
16463TIP3    H270805   3.220   6.395   5.967 -0.3864  0.2074  0.0178
16464TIP3   OH270806   4.610   1.510   4.662  0.0318 -0.4752 -0.0836
16464TIP3    H170807   4.548   1.453   4.616 -0.6607 -0.7461  1.1487
16464TIP3    H270808   4.563   1.592   4.676  0.3281 -0.3043 -0.0800
16465TIP3   OH270809   6.221   4.021   4.355 -0.3063 -0.1235  0.2436
16465TIP3    H170810   6.131   4.019   4.388 -0.9289  0.4405 -1.2976
16465TIP3    H270811   6.270   4.069   4.422 -1.6210  1.4368  0.1577
16466TIP3   OH270812   2.298   1.699   0.494 -0.2049 -0.0078  0.8677
16466TIP3    H170813   2.356   1.768   0.460  0.1444 -0.6646  0.0893
16466TIP3    H270814   2.315   1.697   0.588  1.2192 -0.3372  0.6314
16467TIP3   OH270815   3.531   2.631  15.360 -0.6467 -0.2957  0.4900
16467TIP3    H170816   3.496   2.564  15.418  0.5370 -2.3028 -0.9814
16467TIP3    H270817   3.484   2.618  15.277  1.8016 -1.5682 -0.8199
16468TIP3   OH270818   4.741   5.363  15.204  0.4850 -0.0739 -0.5230
16468TIP3    H170819   4.723   5.271  15.224 -1.1509  0.4052  0.4243
16468TIP3    H270820   4.801   5.391  15.273 -1.7465  0.4203  1.3550
16469TIP3   OH270821   3.260   6.050   1.122  0.4435  0.1590 -0.0948
16469TIP3    H170822   3.204   6.024   1.049 -0.9582  0.9965  0.6531
16469TIP3    H270823   3.250   5.979   1.186  2.7830 -1.3030 -1.2180
16470TIP3   OH270824   4.139   1.374   6.059 -0.0032 -0.4237  0.1533
16470TIP3    H170825   4.158   1.303   6.120 -1.1162 -1.5046 -0.7381
16470TIP3    H270826   4.221   1.424   6.056  0.5204 -1.1455  1.4529
16471TIP3   OH270827   2.076   5.509  12.715 -0.2886 -0.2673  0.2760
16471TIP3    H170828   2.034   5.583  12.760  0.4382 -0.6920  1.7192
16471TIP3    H270829   2.140   5.549  12.656  0.9809  0.2660  1.9521
16472TIP3   OH270830   1.198   3.132  16.278 -0.5333 -0.6619  0.0805
16472TIP3    H170831   1.121   3.179  16.246 -0.7741 -0.9156  0.2687
16472TIP3    H270832   1.267   3.152  16.215 -0.1034  1.4284  1.1461
16473TIP3   OH270833   6.551   0.916   1.431  0.7469  0.1927 -0.3234
16473TIP3    H170834   6.464   0.898   1.467  1.4476  0.0891  1.4062
16473TIP3    H270835   6.592   0.830   1.421  0.8320  0.2726 -0.7046
16474TIP3   OH270836   2.161   2.790   2.560  0.8210  0.0472 -0.0714
16474TIP3    H170837   2.249   2.778   2.524  1.2361 -1.7063  1.3746
16474TIP3    H270838   2.176   2.832   2.645  0.2575 -0.1655  0.1362
16475TIP3   OH270839   3.289   3.381  10.930  0.2011 -0.3704  0.2704
16475TIP3    H170840   3.209   3.329  10.924  0.5954 -0.9867  0.2616
16475TIP3    H270841   3.337   3.360  10.851  0.8652 -0.8340  0.7899
16476TIP3   OH270842   3.924   2.390  12.733  0.5461  0.4057 -0.3730
16476TIP3    H170843   3.974   2.314  12.701 -0.7852 -1.4414  1.6868
16476TIP3    H270844   3.855   2.402  12.667 -0.8578 -1.9612  0.5354
16477TIP3   OH270845   4.878   0.497  13.722  0.3761  0.1923 -0.5268
16477TIP3    H170846   4.961   0.479  13.677  0.8806  1.3613 -0.1130
16477TIP3    H270847   4.873   0.593  13.724  0.4177  0.2115  1.9494
16478TIP3   OH270848   1.748   4.946  11.744 -0.1858 -0.0979  0.6621
16478TIP3    H170849   1.842   4.959  11.726 -0.3945 -1.1526 -1.5348
16478TIP3    H270850   1.746   4.906  11.830  1.3793  0.1634  0.8577
16479TIP3   OH270851   2.870   0.884   0.637  0.3114 -0.1627 -0.1723
16479TIP3    H170852   2.794   0.831   0.659 -0.4581  1.0212  0.1169
16479TIP3    H270853   2.910   0.905   0.721  1.4376 -1.4189 -0.3612
16480TIP3   OH270854   4.789   0.914   4.153 -0.0914  0.0991  0.0546
16480TIP3    H170855   4.757   0.830   4.186 -0.9391  0.4055  0.0586
16480TIP3    H270856   4.803   0.899   4.059 -0.3419 -0.0192  0.0347
16481TIP3   OH270857   2.964   3.939   4.060 -0.1294  0.2016  0.2426
16481TIP3    H170858   2.899   3.906   4.122  0.3296 -0.9659  0.1358
16481TIP3    H270859   3.022   3.994   4.113 -0.5756  0.3806  0.5531
16482TIP3   OH270860   5.176   4.021  14.494  0.1844  0.0828 -0.4403
16482TIP3    H170861   5.111   3.960  14.530  0.6966 -1.2456 -1.6400
16482TIP3    H270862   5.132   4.061  14.419 -0.0354  0.9781  0.1501
16483TIP3   OH270863   4.619   2.689  16.155 -0.4018  0.0660  0.0544
16483TIP3    H170864   4.652   2.695  16.245  2.0764 -2.5968 -0.5158
16483TIP3    H270865   4.566   2.609  16.155  0.6242 -0.6516 -1.0578
16484TIP3   OH270866   2.689   6.113  10.525 -0.5939 -0.0847  0.0207
16484TIP3    H170867   2.742   6.190  10.544  0.7770 -1.1230  0.5262
16484TIP3    H270868   2.682   6.111  10.429 -0.8679  0.7944  0.0169
16485TIP3   OH270869   4.568   3.786  10.989 -0.3198 -0.0152 -0.0388
16485TIP3    H170870   4.662   3.796  11.002 -0.4709  2.1090 -0.1208
16485TIP3    H270871   4.547   3.847  10.918 -1.6109 -1.2528 -0.7728
16486TIP3   OH270872   2.706   2.414  16.354 -0.1749  0.5701  0.4302
16486TIP3    H170873   2.772   2.419  16.423 -1.1179 -0.2722  1.4369
16486TIP3    H270874   2.630   2.375  16.397 -0.3061 -1.4329 -1.4561
16487TIP3   OH270875   6.475   0.406   3.348  0.2738 -0.2622  0.5129
16487TIP3    H170876   6.424   0.476   3.388  1.8382  1.1812  0.1214
16487TIP3    H270877   6.421   0.327   3.358 -1.1743  0.8292  1.7125
16488TIP3   OH270878   4.094   5.107   2.611 -0.0036 -0.3032 -0.5880
16488TIP3    H170879   4.007   5.071   2.592 -0.9754  1.9644 -0.6942
16488TIP3    H270880   4.091   5.196   2.577  2.6779 -0.4134 -1.3176
16489TIP3   OH270881   4.084   1.143  13.181  0.3053  0.2784 -0.1916
16489TIP3    H170882   4.029   1.221  13.176  0.9371  0.8424  1.2458
16489TIP3    H270883   4.114   1.130  13.091 -1.2903  0.5794 -0.8053
16490TIP3   OH270884   5.730   2.611  17.186 -0.6157 -0.5319  0.1942
16490TIP3    H170885   5.668   2.658  17.241  0.9452 -0.5031  2.0445
16490TIP3    H270886   5.748   2.670  17.113 -2.3058 -0.3306 -0.0936
16491TIP3   OH270887   4.249   6.712  15.553  0.0508 -0.1141  0.5517
16491TIP3    H170888   4.182   6.711  15.621 -1.8983 -1.6066 -1.2474
16491TIP3    H270889   4.204   6.750  15.477  1.2935 -1.0125 -0.6726
16492TIP3   OH270890   4.166   4.243  14.759  0.3811  0.2043 -0.0524
16492TIP3    H170891   4.079   4.211  14.782  0.5888  0.3519  1.0054
16492TIP3    H270892   4.200   4.177  14.698 -0.7709  0.5774 -1.1160
16493TIP3   OH270893   5.992   1.956   0.462  0.0979  0.1313 -0.3160
16493TIP3    H170894   6.017   1.882   0.518 -0.4810  0.2095  0.0567
16493TIP3    H270895   6.053   2.025   0.485 -0.4440  0.3253  0.5949
16494TIP3   OH270896   6.156   3.195   6.245 -0.1762  0.6146 -0.0877
16494TIP3    H170897   6.179   3.288   6.239  1.4601  0.3112  0.9917
16494TIP3    H270898   6.064   3.195   6.271 -0.3033  1.9193 -0.4402
16495TIP3   OH270899   5.929   1.876  15.622 -0.1957  0.6303  0.3420
16495TIP3    H170900   5.928   1.904  15.530  0.6692  1.7557  0.6520
16495TIP3    H270901   5.874   1.939  15.668  0.1962  0.6876  0.7466
16496TIP3   OH270902   1.722   0.743  12.999  0.0086 -0.4565 -0.2405
16496TIP3    H170903   1.658   0.764  13.067  0.3097  2.6864 -0.7818
16496TIP3    H270904   1.796   0.800  13.017  1.1148 -1.3056 -1.8321
16497TIP3   OH270905   4.632   0.272  11.539 -0.4912  0.5851  0.3233
16497TIP3    H170906   4.659   0.208  11.605 -1.8478 -0.2241  0.1463
16497TIP3    H270907   4.595   0.344  11.589 -1.9050 -0.2120  0.4742
16498TIP3   OH270908   1.966   0.291   4.124 -0.0503 -0.7680 -0.3383
16498TIP3    H170909   2.004   0.349   4.189 -2.6559  1.0986 -0.3706
16498TIP3    H270910   1.887   0.257   4.165 -0.5338 -1.3521 -1.7052
16499TIP3   OH270911   1.592   1.544  13.183 -0.0861 -0.1335  0.2295
16499TIP3    H170912   1.607   1.465  13.235  0.1895  0.3178  0.8512
16499TIP3    H270913   1.672   1.554  13.131 -0.1788 -0.3413  0.0476
16500TIP3   OH270914   5.541   6.327  12.240  0.7077  0.4422  0.1217
16500TIP3    H170915   5.450   6.337  12.267  1.3233  0.0019  2.5853
16500TIP3    H270916   5.536   6.289  12.152 -1.4570  0.9914 -0.0383
16501TIP3   OH270917   5.316   4.031   5.351  0.2137  0.1524  0.1524
16501TIP3    H170918   5.408   4.049   5.332  1.0362 -2.1908  1.6344
16501TIP3    H270919   5.282   3.995   5.269  0.7615  0.4132 -0.2013
16502TIP3   OH270920   0.682   1.879  12.159 -0.5140 -0.0301  0.0482
16502TIP3    H170921   0.767   1.854  12.195 -0.7124 -2.5878 -1.0594
16502TIP3    H270922   0.618   1.830  12.211 -1.0078 -1.0873 -1.4835
16503TIP3   OH270923   6.259   3.788  16.039 -0.1389  0.2418  0.2500
16503TIP3    H170924   6.275   3.744  16.122  1.9304 -0.7002 -0.5788
16503TIP3    H270925   6.259   3.717  15.974  1.6939  1.2199 -0.9267
16504TIP3   OH270926   3.240   4.960  13.461  0.2269 -0.2581 -0.4932
16504TIP3    H170927   3.289   5.041  13.474  1.5101 -1.2504  1.2609
16504TIP3    H270928   3.304   4.898  13.427  0.0423 -1.3542  1.0498
16505TIP3   OH270929   1.525   4.902   5.417 -0.2333  0.0851 -0.3981
16505TIP3    H170930   1.516   4.878   5.509  0.2309 -0.1202 -0.4027
16505TIP3    H270931   1.443   4.947   5.395 -0.9325 -1.0809 -0.2712
16506TIP3   OH270932   3.562   3.511   2.534 -0.1844  0.3285  0.0424
16506TIP3    H170933   3.476   3.515   2.576  0.7300  1.6104  1.9126
16506TIP3    H270934   3.601   3.596   2.552  1.3304 -0.0794 -1.1516
16507TIP3   OH270935   4.123   3.994   1.412  0.2382  1.1218 -0.1632
16507TIP3    H170936   4.103   3.917   1.466 -1.5630  0.6043 -1.4823
16507TIP3    H270937   4.054   3.995   1.345  3.0194  0.9602 -3.3098
16508TIP3   OH270938   2.318   1.897  15.157 -0.2381  0.4837  1.2601
16508TIP3    H170939   2.344   1.809  15.132  4.0637  2.0231 -0.4365
16508TIP3    H270940   2.331   1.899  15.252 -0.0117 -0.5796  1.2657
16509TIP3   OH270941   1.535   0.923  14.809 -0.1603 -0.3358 -0.0515
16509TIP3    H170942   1.560   0.996  14.752 -0.2770 -0.0875  0.2059
16509TIP3    H270943   1.606   0.860  14.800  2.0170  1.4567  2.6366
16510TIP3   OH270944   2.714   4.217  16.787  0.4413 -0.0069 -0.3147
16510TIP3    H170945   2.672   4.286  16.735  1.0346  1.6815  1.3344
16510TIP3    H270946   2.791   4.192  16.737  0.1927  0.4960 -0.9609
16511TIP3   OH270947   3.036   0.329   2.281 -0.3882  0.1391 -0.4759
16511TIP3    H170948   3.003   0.240   2.272 -1.7250  0.4437  0.9845
16511TIP3    H270949   2.960   0.381   2.305  0.1921  1.8599 -2.1085
16512TIP3   OH270950   4.073   2.797  16.912 -0.0944  0.1640 -0.0271
16512TIP3    H170951   4.093   2.737  16.984 -0.4694 -0.9935 -0.8664
16512TIP3    H270952   4.120   2.761  16.837  0.3793  1.4125 -0.3662
16513TIP3   OH270953   6.189   5.413  12.852  0.1109 -0.1308 -0.0766
16513TIP3    H170954   6.224   5.472  12.785 -2.7084  0.6484 -1.0262
16513TIP3    H270955   6.264   5.394  12.909  2.0870  1.0178 -2.1165
16514TIP3   OH270956   2.433   1.883   1.793  0.2799 -0.0817 -0.1332
16514TIP3    H170957   2.468   1.796   1.809  1.0892  0.0271 -1.1768
16514TIP3    H270958   2.459   1.903   1.702  0.8913  1.5788  0.3573
16515TIP3   OH270959   0.612   2.455  13.691  0.2324 -0.7023  0.2635
16515TIP3    H170960   0.608   2.376  13.637 -1.9259  1.3156 -2.9293
16515TIP3    H270961   0.700   2.489  13.678  0.5368 -1.5498  0.0561
16516TIP3   OH270962   4.711   2.928  11.880 -0.0842 -0.3137 -0.5464
16516TIP3    H170963   4.704   3.022  11.865  0.0093  0.0625  1.4460
16516TIP3    H270964   4.752   2.921  11.966 -2.4067 -2.1349  0.5153
16517TIP3   OH270965   1.067   5.988   3.970  0.2110 -0.5753  0.4810
16517TIP3    H170966   1.070   5.956   3.880  1.8282 -0.3639  0.4390
16517TIP3    H270967   1.143   5.948   4.013 -0.2806 -0.3205  1.6350
16518TIP3   OH270968   6.263   2.348  16.881  0.0622 -0.6634  1.1471
16518TIP3    H170969   6.304   2.266  16.908  1.6904  0.0242  0.9009
16518TIP3    H270970   6.329   2.391  16.826 -0.7056  0.8639  1.3588
16519TIP3   OH270971   5.862   4.281  11.743 -0.2685 -0.8211  0.0334
16519TIP3    H170972   5.769   4.303  11.752 -0.3075 -0.7709 -0.4656
16519TIP3    H270973   5.864   4.186  11.733 -0.4638 -0.6394 -2.2209
16520TIP3   OH270974   1.343   6.587   2.576 -0.3784 -0.4026 -0.1172
16520TIP3    H170975   1.279   6.548   2.636  0.0088 -0.8138  0.0358
16520TIP3    H270976   1.308   6.674   2.557 -1.1955 -0.7761 -0.3718
16521TIP3   OH270977   2.460   0.840  14.902 -0.1425  0.2253 -0.0084
16521TIP3    H170978   2.483   0.917  14.849 -1.2792 -0.7479 -2.0000
16521TIP3    H270979   2.366   0.831  14.892 -0.0125 -1.5244  0.0647
16522TIP3   OH270980   6.395   0.020  14.931  0.0981 -0.3654  0.4423
16522TIP3    H170981   6.476   0.071  14.932 -0.0669 -0.0991  0.3389
16522TIP3    H270982   6.419  -0.064  14.968  0.4599 -0.3416  0.2601
16523TIP3   OH270983   6.591   6.242   4.523  0.1558 -0.2471 -0.1512
16523TIP3    H170984   6.679   6.279   4.527  0.3428 -0.7450  2.8870
16523TIP3    H270985   6.604   6.149   4.539 -0.7842 -0.7681 -2.1114
16524TIP3   OH270986   3.554   1.564  13.594 -0.7337  0.0228 -0.2246
16524TIP3    H170987   3.621   1.608  13.541 -0.1587  0.3601  0.7427
16524TIP3    H270988   3.472   1.606  13.569 -0.4789  0.1517 -0.8659
16525TIP3   OH270989   6.572   6.082  13.867  0.0815  0.0237  0.3302
16525TIP3    H170990   6.627   6.008  13.842 -1.1344 -1.4994  1.8832
16525TIP3    H270991   6.631   6.157  13.867  0.9520 -0.4877 -3.1875
16526TIP3   OH270992   6.678   1.278  13.854  0.1725 -0.3538 -0.4020
16526TIP3    H170993   6.760   1.325  13.871 -0.3135  0.3700 -0.0150
16526TIP3    H270994   6.687   1.245  13.765  1.5190 -1.6011  0.1508
16527TIP3   OH270995   5.591   3.897  16.556  0.1249  0.0186  0.1440
16527TIP3    H170996   5.559   3.907  16.645  0.9700 -0.6264  0.5287
16527TIP3    H270997   5.677   3.940  16.556  0.1904 -0.1077 -0.3192
16528TIP3   OH270998   3.411   2.518  16.704 -0.4184  0.1858  1.1415
16528TIP3    H170999   3.468   2.469  16.762  1.4102 -0.3704 -0.9889
16528TIP3    H271000   3.450   2.605  16.700 -0.4008  0.1544  0.5810
16529TIP3   OH271001   5.911   0.363   4.171  0.5271 -0.3627 -0.4659
16529TIP3    H171002   5.933   0.449   4.136  1.7576  0.5597  2.2987
16529TIP3    H271003   5.994   0.316   4.176  0.3300 -0.6445  0.5991
16530TIP3   OH271004   2.764   1.618   5.788 -0.2439  0.7255 -0.4066
16530TIP3    H171005   2.711   1.545   5.821 -0.7162  1.2050 -0.0842
16530TIP3    H271006   2.809   1.582   5.712  2.1936 -0.9289  1.6537
16531TIP3   OH271007   1.851   0.691   5.264  0.2884  0.6021 -0.1926
16531TIP3    H171008   1.794   0.704   5.340  0.9039  1.7731  0.0951
16531TIP3    H271009   1.882   0.779   5.243  1.8315  0.0132 -0.4692
16532TIP3   OH271010   5.568   5.841  12.116  0.5038 -0.1257 -0.0163
16532TIP3    H171011   5.603   5.898  12.047  0.1229 -0.1658 -0.2445
16532TIP3    H271012   5.540   5.902  12.184 -0.5942  0.0206 -0.5761
16533TIP3   OH271013   4.488   5.640  16.051  0.4199 -0.5949 -0.0666
16533TIP3    H171014   4.451   5.613  16.135  0.3136 -1.4370 -0.3665
16533TIP3    H271015   4.547   5.712  16.072 -1.2114  0.6532  0.4541
16534TIP3   OH271016   1.598   4.261   6.767 -0.1538  0.1664  0.1772
16534TIP3    H171017   1.649   4.339   6.788  1.3033 -0.3816 -1.0541
16534TIP3    H271018   1.575   4.223   6.852  0.8852  0.8542  0.7905
16535TIP3   OH271019   1.771   3.469   0.709  0.1616 -0.2137  0.2080
16535TIP3    H171020   1.686   3.490   0.747  0.6107  2.1784  0.0658
16535TIP3    H271021   1.768   3.506   0.621  1.8735  1.4241  0.7717
16536TIP3   OH271022   4.132   3.668  12.634  0.5227 -0.3249 -0.1670
16536TIP3    H171023   4.172   3.732  12.574  0.9070 -0.2300  0.1848
16536TIP3    H271024   4.102   3.598  12.576  1.1707 -0.3838 -0.4514
16537TIP3   OH271025   4.311   4.189   3.698 -0.1881  0.3985  0.1745
16537TIP3    H171026   4.375   4.138   3.748 -0.6837 -1.5373 -1.0453
16537TIP3    H271027   4.229   4.175   3.744 -0.2145  0.6666  0.2114
16538TIP3   OH271028   2.613   5.533  12.664  0.3624 -0.8327  0.1895
16538TIP3    H171029   2.667   5.522  12.586  0.0713 -1.2183  0.0395
16538TIP3    H271030   2.613   5.446  12.705 -1.4717 -1.2925 -0.6821
16539TIP3   OH271031   2.633   4.951  17.161  0.5009 -0.8876 -0.7151
16539TIP3    H171032   2.592   5.038  17.165  1.7083 -0.3431  0.6147
16539TIP3    H271033   2.697   4.957  17.090 -1.5574 -1.7304 -2.7794
16540TIP3   OH271034   4.772   6.382  16.269 -0.2559 -0.5040 -0.8044
16540TIP3    H171035   4.805   6.428  16.192  0.1599 -0.2647 -0.4911
16540TIP3    H271036   4.846   6.330  16.300  0.5883  1.6331  1.1232
16541TIP3   OH271037   5.130   0.435  13.562 -0.4314  0.1926  0.7597
16541TIP3    H171038   5.128   0.377  13.638  0.1956  0.7773  1.2281
16541TIP3    H271039   5.221   0.436  13.534 -0.6664 -0.0545 -0.0341
16542TIP3   OH271040   2.218   4.218  11.767  0.4528 -0.1122 -0.5040
16542TIP3    H171041   2.199   4.304  11.732  0.1815  0.4452  0.9411
16542TIP3    H271042   2.161   4.210  11.844  1.1940 -1.1683 -0.0370
16543TIP3   OH271043   6.588   6.296  11.820  0.0249 -0.1581  0.0971
16543TIP3    H171044   6.596   6.371  11.879 -0.3311 -0.0354 -0.0082
16543TIP3    H271045   6.557   6.225  11.875 -0.6890  0.0593 -0.0124
16544TIP3   OH271046   6.358   6.463  15.344 -0.0459  0.5481 -0.1370
16544TIP3    H171047   6.315   6.457  15.259  0.2344  1.9390 -0.4010
16544TIP3    H271048   6.409   6.382  15.350  1.6673  1.3433 -2.3044
16545TIP3   OH271049   2.730   2.670  14.634  0.5095  0.0494 -0.2756
16545TIP3    H171050   2.715   2.738  14.699  1.9419  0.7250 -0.6082
16545TIP3    H271051   2.816   2.633  14.657  0.1997 -0.9654 -0.6881
16546TIP3   OH271052   2.815   5.157  15.801 -0.0409 -0.0625 -0.1567
16546TIP3    H171053   2.823   5.170  15.706  1.1882 -1.7049 -0.3206
16546TIP3    H271054   2.858   5.233  15.840  1.3352 -0.4176 -0.9505
16547TIP3   OH271055   1.268   3.524   0.600 -0.1040  0.4702 -0.1057
16547TIP3    H171056   1.255   3.618   0.613 -0.1022  0.2777  1.4956
16547TIP3    H271057   1.190   3.484   0.638  0.0556 -0.1985 -0.4665
16548TIP3   OH271058   3.506   3.393  14.858 -0.2160  0.6572  0.6055
16548TIP3    H171059   3.514   3.488  14.859  0.7228  0.6040 -0.0143
16548TIP3    H271060   3.596   3.362  14.871 -0.1771 -0.1161 -1.2217
16549TIP3   OH271061   1.311   3.084   1.407 -0.2703  0.3550  0.4792
16549TIP3    H171062   1.394   3.062   1.365 -1.7005 -1.5586 -1.5372
16549TIP3    H271063   1.290   3.171   1.374 -0.2647 -0.1994 -1.0609
16550TIP3   OH271064   1.420   6.248  14.712  0.1653  0.6057  0.1501
16550TIP3    H171065   1.431   6.337  14.747  1.4212  0.6399 -0.2643
16550TIP3    H271066   1.422   6.192  14.789  1.3496  0.8025  0.2942
16551TIP3   OH271067   0.328   1.849   5.473  0.0574  0.2861  0.3796
16551TIP3    H171068   0.236   1.854   5.449  0.0221  1.2543  0.6349
16551TIP3    H271069   0.333   1.776   5.535 -0.4437 -0.0875 -0.0152
16552TIP3   OH271070   4.132   4.867  15.150  0.0651 -0.2838 -0.0762
16552TIP3    H171071   4.226   4.866  15.132  0.2348  0.0894  0.7699
16552TIP3    H271072   4.109   4.960  15.155 -0.1604 -0.3757  0.6777
16553TIP3   OH271073   2.906   5.290   4.007  0.0368 -0.1470 -0.0762
16553TIP3    H171074   2.825   5.247   3.981 -0.4108  0.6665 -0.0802
16553TIP3    H271075   2.899   5.378   3.970  2.0676 -0.8107 -2.3307
16554TIP3   OH271076   2.042   2.715  14.467  0.3871 -0.1292  0.1607
16554TIP3    H171077   1.970   2.748  14.520 -0.4374 -1.1627 -0.2838
16554TIP3    H271078   2.095   2.663  14.529  1.9664  2.2546  0.9843
16555TIP3   OH271079   6.513   2.026   6.044  0.1903  0.4793 -0.4765
16555TIP3    H171080   6.459   2.090   6.089 -2.1613 -0.4543 -1.7659
16555TIP3    H271081   6.585   2.008   6.105  0.4156  3.5408  0.3163
16556TIP3   OH271082   0.633   3.145   0.788 -0.2748  0.3536  0.2263
16556TIP3    H171083   0.669   3.087   0.721 -1.8372  0.9709 -1.2122
16556TIP3    H271084   0.581   3.088   0.844 -1.9161  0.2930 -1.2621
16557TIP3   OH271085   3.004   1.776  13.051 -0.6354  0.2776  0.3565
16557TIP3    H171086   2.931   1.715  13.048  0.0071 -0.4647 -1.8598
16557TIP3    H271087   3.063   1.739  13.117 -0.3834 -1.3943 -0.7455
16558TIP3   OH271088   3.592   1.640   6.045 -0.2222 -0.0188  0.2395
16558TIP3    H171089   3.564   1.548   6.038 -0.8474  0.2220 -0.5632
16558TIP3    H271090   3.559   1.681   5.965  1.0919  0.6413  0.0095
16559TIP3   OH271091   1.874   0.284   0.229 -0.8812  0.7928  0.0706
16559TIP3    H171092   1.840   0.304   0.316 -1.8223  0.7350 -0.2774
16559TIP3    H271093   1.798   0.286   0.172 -0.2287  1.1287 -0.8122
16560TIP3   OH271094   6.534   1.170  13.302 -0.0637 -0.2805 -0.9410
16560TIP3    H171095   6.616   1.125  13.279  0.6775  0.4926  0.0472
16560TIP3    H271096   6.523   1.153  13.396 -1.4677 -1.0217 -1.2216
16561TIP3   OH271097   5.786   3.743  14.203  0.0071 -0.3872 -0.5960
16561TIP3    H171098   5.740   3.663  14.179 -0.7145  0.2933 -1.5545
16561TIP3    H271099   5.764   3.805  14.133  0.1429  0.8002  0.3894
16562TIP3   OH271100   2.898   1.086  12.809  0.7410 -0.4971 -0.0236
16562TIP3    H171101   2.825   1.108  12.751 -0.2173 -0.6260  1.0988
16562TIP3    H271102   2.857   1.067  12.893  1.6928 -4.0079 -0.2040
16563TIP3   OH271103   5.370   6.340  17.135 -0.1726  0.5952  0.0925
16563TIP3    H171104   5.432   6.334  17.207 -1.6723 -0.2152  1.3678
16563TIP3    H271105   5.289   6.300  17.168 -0.6041 -0.8192 -2.3815
16564TIP3   OH271106   3.721   3.655   2.054  0.3137  0.5845  0.1692
16564TIP3    H171107   3.750   3.744   2.075  1.0725  0.7472 -1.4477
16564TIP3    H271108   3.798   3.601   2.073 -0.1103  0.2562  1.0401
16565TIP3   OH271109   2.788   4.920   2.751 -0.1097  0.7108  0.1630
16565TIP3    H171110   2.873   4.936   2.711  0.2415  0.5803  0.8521
16565TIP3    H271111   2.790   4.828   2.778 -0.5760  0.6269 -0.0651
16566TIP3   OH271112   4.551   5.129   1.410  0.0048  0.1506  0.6994
16566TIP3    H171113   4.625   5.082   1.371  0.2401 -0.2760  1.6236
16566TIP3    H271114   4.489   5.059   1.435 -0.0675  0.3944  1.2212
16567TIP3   OH271115   6.685   6.105  12.172 -0.6273 -0.1944  0.3087
16567TIP3    H171116   6.618   6.170  12.196 -0.3665  0.0606  0.3528
16567TIP3    H271117   6.646   6.057  12.099 -0.4281  0.6838 -0.4009
16568TIP3   OH271118   5.793   0.650   5.274  0.1018  0.1274  0.4587
16568TIP3    H171119   5.862   0.607   5.224  0.4365 -0.6429  1.5599
16568TIP3    H271120   5.713   0.632   5.223  0.7566  1.6409 -1.2104
16569TIP3   OH271121   6.564   3.630   0.868  0.3374 -0.3486 -0.1613
16569TIP3    H171122   6.543   3.550   0.917 -0.8647 -0.1819 -0.3866
16569TIP3    H271123   6.603   3.598   0.786  0.1389 -0.6956 -0.1244
16570TIP3   OH271124   6.677   0.970   3.168 -0.1721 -0.2061 -0.6865
16570TIP3    H171125   6.684   0.895   3.227  0.6382  1.0960  0.9563
16570TIP3    H271126   6.592   1.009   3.190 -0.5527 -0.5395 -1.4817
16571TIP3   OH271127   3.631   0.508   5.693  0.1218 -0.9594  0.0274
16571TIP3    H171128   3.706   0.521   5.750  0.7116 -0.6768 -0.7925
16571TIP3    H271129   3.590   0.428   5.725  0.7990 -1.1392  0.4621
16572TIP3   OH271130   5.506   4.836   3.717  0.3431  0.0124  0.0616
16572TIP3    H171131   5.602   4.840   3.726  0.3024 -0.5667  0.8578
16572TIP3    H271132   5.473   4.862   3.803 -0.1723 -1.3146  0.2950
16573TIP3   OH271133   4.647   0.959   4.839 -0.5683 -0.1837 -0.1399
16573TIP3    H171134   4.659   0.904   4.917 -0.8598 -0.9147 -0.6032
16573TIP3    H271135   4.587   0.909   4.783  1.8577 -1.0598 -2.1364
16574TIP3   OH271136   2.732   2.161  15.142  0.3031 -0.7030 -0.1384
16574TIP3    H171137   2.825   2.148  15.159  0.6592 -0.9614 -2.0901
16574TIP3    H271138   2.696   2.072  15.133 -0.5871 -0.7065  2.5060
16575TIP3   OH271139   5.445   2.862   3.744  0.4179  0.4888 -0.4993
16575TIP3    H171140   5.401   2.845   3.661 -1.4728  1.6371  0.1892
16575TIP3    H271141   5.374   2.882   3.805  1.8607  1.5428  0.9264
16576TIP3   OH271142   0.517   2.159   1.505  0.4900  0.1117 -0.0547
16576TIP3    H171143   0.511   2.253   1.487 -1.5145  0.2992  1.3249
16576TIP3    H271144   0.459   2.145   1.580  2.1991 -1.9350  0.9917
16577TIP3   OH271145   1.629   0.941   4.140 -0.6372  0.1626 -0.4084
16577TIP3    H171146   1.613   1.029   4.106 -1.5760  0.0723 -0.2270
16577TIP3    H271147   1.716   0.918   4.109 -0.0210  1.4961  0.2569
16578TIP3   OH271148   3.067   0.816  15.353 -0.4202  0.4635  0.3774
16578TIP3    H171149   3.007   0.789  15.422 -0.1921 -1.6139 -0.1519
16578TIP3    H271150   3.013   0.863  15.290 -0.9057  1.1025  1.2544
16579TIP3   OH271151   5.552   1.649   3.701  0.2500  0.4925 -0.9469
16579TIP3    H171152   5.536   1.718   3.637 -0.3745  0.8804 -0.3972
16579TIP3    H271153   5.475   1.651   3.758  0.3102 -0.5348 -0.8037
16580TIP3   OH271154   5.804   0.069  17.376  0.5655 -0.2867  0.1132
16580TIP3    H171155   5.843   0.014  17.309 -0.4832  1.2516 -1.8900
16580TIP3    H271156   5.870   0.136  17.393  0.4473 -0.0927 -0.1726
16581TIP3   OH271157   4.362   6.470   1.178  0.0933 -0.2017  0.3080
16581TIP3    H171158   4.306   6.411   1.127  1.6628 -1.3639 -0.1425
16581TIP3    H271159   4.383   6.542   1.118 -1.8463  0.9119  0.8678
16582TIP3   OH271160   3.327   4.763   0.541  0.6510 -0.5207  0.0633
16582TIP3    H171161   3.239   4.800   0.548  0.7415 -0.1243 -0.7647
16582TIP3    H271162   3.313   4.678   0.499  0.8827  0.7846 -2.9421
16583TIP3   OH271163   3.085   0.578   6.069  0.0538 -0.1469  0.2337
16583TIP3    H171164   3.096   0.527   6.149  2.5742  1.2684  0.8971
16583TIP3    H271165   3.093   0.515   5.998  1.7725 -0.9098  1.0575
16584TIP3   OH271166   1.960   3.543   4.949 -0.5593  0.5388 -0.0572
16584TIP3    H171167   1.977   3.449   4.957 -1.1105  0.5558  1.7522
16584TIP3    H271168   2.047   3.583   4.961 -0.6540  0.3224  1.6784
16585TIP3   OH271169   2.020   1.489  12.237  0.4089 -0.0652  0.1936
16585TIP3    H171170   1.993   1.507  12.327  1.3502  0.1891  0.4343
16585TIP3    H271171   2.109   1.524  12.231  0.6091 -0.6820 -0.6402
16586TIP3   OH271172   6.124   2.979  12.684 -0.1144 -0.1063 -0.0699
16586TIP3    H171173   6.121   3.046  12.616  0.0697 -0.0814 -0.0544
16586TIP3    H271174   6.152   2.900  12.639  1.0555  0.1527  0.1617
16587TIP3   OH271175   5.685   2.582   2.961 -0.0202 -0.3196 -0.1772
16587TIP3    H171176   5.772   2.616   2.942 -0.3372  0.1959 -0.7461
16587TIP3    H271177   5.638   2.590   2.878 -0.3014 -1.5708 -0.1682
16588TIP3   OH271178   0.014   0.568   3.441 -0.2409 -0.2179  0.7369
16588TIP3    H171179   0.047   0.492   3.392 -1.3767  0.3721 -1.0330
16588TIP3    H271180  -0.028   0.623   3.375 -2.2949  0.3959  2.4503
16589TIP3   OH271181   2.725   4.261  15.092 -0.7772  0.4881 -0.1289
16589TIP3    H171182   2.730   4.182  15.145 -2.3523  0.1242 -0.4814
16589TIP3    H271183   2.702   4.330  15.154 -0.8102  0.4063 -0.0505
16590TIP3   OH271184   1.117   1.111  12.895  0.3616  0.0801  0.1149
16590TIP3    H171185   1.116   1.018  12.916  0.3477  0.1725  0.5254
16590TIP3    H271186   1.138   1.114  12.802  0.0547 -0.3444  0.0306
16591TIP3   OH271187   1.446   6.022   4.708 -0.0012 -0.1949  0.1973
16591TIP3    H171188   1.399   6.015   4.625 -0.1261  0.6017  0.1937
16591TIP3    H271189   1.419   5.946   4.758 -0.9133 -0.0064  0.0004
16592TIP3   OH271190   1.421   2.613  15.417 -0.0762 -0.1091  0.6413
16592TIP3    H171191   1.479   2.683  15.447  1.4195 -0.6678 -0.7780
16592TIP3    H271192   1.390   2.642  15.331 -1.8860  0.1252  1.3172
16593TIP3   OH271193   4.560   1.631   1.872 -0.4264  0.3471 -0.4500
16593TIP3    H171194   4.517   1.702   1.825 -0.8204  1.4960  1.4905
16593TIP3    H271195   4.588   1.672   1.955 -2.3136 -2.1261  1.5861
16594TIP3   OH271196   4.993   0.327  12.576  0.4660  0.1722  0.8354
16594TIP3    H171197   5.024   0.280  12.499 -1.0321  0.0747  0.2742
16594TIP3    H271198   5.061   0.392  12.593  1.2541 -0.4151  0.0026
16595TIP3   OH271199   3.271   4.994   2.464 -0.7034  0.3750 -0.0235
16595TIP3    H171200   3.287   5.088   2.469 -0.8677  0.3773  0.4614
16595TIP3    H271201   3.229   4.982   2.379 -1.5746  0.8714  0.3228
16596TIP3   OH271202   2.444   1.568  16.524 -0.0617  0.0288  0.0966
16596TIP3    H171203   2.504   1.523  16.584 -0.1885 -2.7563 -1.6946
16596TIP3    H271204   2.494   1.644  16.493  1.6514 -0.9018  0.4456
16597TIP3   OH271205   3.407   4.440  10.845  0.2248 -0.2698  0.1028
16597TIP3    H171206   3.485   4.408  10.799 -0.8485 -0.6259 -1.5513
16597TIP3    H271207   3.368   4.503  10.785 -1.5464 -1.1887  0.2227
16598TIP3   OH271208   3.417   2.143  13.378 -0.5007  0.3417  0.2008
16598TIP3    H171209   3.352   2.213  13.375 -2.7403 -1.5205  1.6610
16598TIP3    H271210   3.491   2.180  13.426 -1.1429  2.0033 -0.0392
16599TIP3   OH271211   3.518   6.617  11.386  0.3864  0.0962 -0.1077
16599TIP3    H171212   3.432   6.604  11.424 -0.1415  0.4289 -1.1629
16599TIP3    H271213   3.536   6.710  11.398  0.4761  0.0845 -0.1501
16600TIP3   OH271214   4.791   4.226  14.257  0.1427 -0.2387 -0.0670
16600TIP3    H171215   4.729   4.190  14.193 -0.7691  0.8964  0.1397
16600TIP3    H271216   4.736   4.261  14.327  1.0497  0.3013  0.4000
16601TIP3   OH271217   5.309   5.360   5.788 -0.7089 -0.1854 -0.4732
16601TIP3    H171218   5.381   5.301   5.767 -0.1495  0.8013 -1.3811
16601TIP3    H271219   5.328   5.389   5.878 -0.8247 -1.1186 -0.1308
16602TIP3   OH271220   5.402   1.181  13.176  0.5215 -0.3376 -0.3416
16602TIP3    H171221   5.346   1.138  13.240  1.0559 -1.2869 -0.4845
16602TIP3    H271222   5.422   1.266  13.215 -0.9568  0.0035 -0.2763
16603TIP3   OH271223   5.290   0.286   3.246 -0.9513 -0.9829  0.0377
16603TIP3    H171224   5.375   0.269   3.204 -0.5268  2.3289 -0.7235
16603TIP3    H271225   5.311   0.343   3.320 -2.4621 -0.3906  0.0472
16604TIP3   OH271226   1.065   1.447  13.124  0.1773  0.2166 -0.0161
16604TIP3    H171227   1.090   1.406  13.207  1.8626 -0.9764 -1.0601
16604TIP3    H271228   1.138   1.504  13.103  1.4670 -2.0977 -2.3391
16605TIP3   OH271229   1.360   3.136   4.261 -0.2662  0.2481 -0.4802
16605TIP3    H171230   1.276   3.105   4.295  0.7032 -1.2199  0.7277
16605TIP3    H271231   1.348   3.139   4.166 -2.1086  1.4831 -0.2616
16606TIP3   OH271232   4.874   5.819   1.414  0.0326 -0.0349 -0.0563
16606TIP3    H171233   4.791   5.848   1.376  0.4179  1.6993  0.3152
16606TIP3    H271234   4.854   5.802   1.506  0.4564  2.4990  0.5820
16607TIP3   OH271235   0.339   0.932   0.069  0.1663 -0.9248  0.0648
16607TIP3    H171236   0.410   0.991   0.046 -1.2542  0.4371 -1.1107
16607TIP3    H271237   0.319   0.885  -0.012 -0.9386 -0.4959  0.0602
16608TIP3   OH271238   5.835   6.092   4.396  0.1406 -0.1385 -0.0513
16608TIP3    H171239   5.903   6.107   4.462 -1.2649 -1.6872  1.8463
16608TIP3    H271240   5.785   6.018   4.429 -1.9635  0.3928 -1.8218
16609TIP3   OH271241   6.086   2.378   5.292 -0.0862 -0.1993 -0.2554
16609TIP3    H171242   6.141   2.450   5.321 -1.0610  0.0581  1.0360
16609TIP3    H271243   6.139   2.300   5.308 -0.5848 -0.0796  2.4269
16610TIP3   OH271244   2.837   6.728   4.994  0.0316 -0.5891  0.0150
16610TIP3    H171245   2.768   6.718   5.060 -0.3029  0.1233 -0.2129
16610TIP3    H271246   2.817   6.661   4.928  0.6707 -1.6572  0.8820
16611TIP3   OH271247   5.484   4.287   2.075  0.4012 -0.3276 -0.2425
16611TIP3    H171248   5.410   4.324   2.122  1.1897 -0.2287  0.9766
16611TIP3    H271249   5.455   4.280   1.984 -0.0662  2.5070 -0.3868
16612TIP3   OH271250   0.963   5.378   3.931  0.0574 -0.0909  0.5060
16612TIP3    H171251   0.951   5.305   3.992 -1.0073 -0.1628  0.2386
16612TIP3    H271252   0.889   5.371   3.871  1.2270 -0.1650 -0.9709
16613TIP3   OH271253   5.928   2.615   0.040  0.0543 -0.0795  0.3906
16613TIP3    H171254   5.927   2.623  -0.056 -0.4130 -1.2443  0.2881
16613TIP3    H271255   5.860   2.550   0.059 -0.6935  1.0069  1.6071
16614TIP3   OH271256   4.850   2.701  16.959  0.3853 -0.3733  0.1110
16614TIP3    H171257   4.834   2.707  17.054 -1.3870  0.7107 -0.2115
16614TIP3    H271258   4.939   2.667  16.952  1.2572  1.2694  2.1960
16615TIP3   OH271259   2.566   0.848  15.944  0.6647 -0.4123  0.7521
16615TIP3    H171260   2.498   0.911  15.921  0.5276 -1.1028 -0.8144
16615TIP3    H271261   2.519   0.775  15.984  0.3971 -1.1098 -0.7858
16616TIP3   OH271262   3.027   4.709  16.544  0.6673 -0.1280  0.1719
16616TIP3    H171263   3.110   4.673  16.574  0.5549  0.1025  0.7621
16616TIP3    H271264   3.051   4.777  16.481  0.9644  0.7993  1.2735
16617TIP3   OH271265   1.495   5.712  16.603  0.0679  0.2611  0.1147
16617TIP3    H171266   1.476   5.643  16.539 -0.9080  0.9149 -0.3405
16617TIP3    H271267   1.475   5.673  16.688 -1.9455  0.4063 -0.2392
16618TIP3   OH271268   6.566   3.203   5.612 -0.5246  0.8277  0.0120
16618TIP3    H171269   6.526   3.121   5.641 -1.5640  0.8237 -1.3238
16618TIP3    H271270   6.514   3.230   5.536 -1.4536  3.7225  1.5133
16619TIP3   OH271271   1.217   5.509   5.755 -0.4047 -0.1571 -0.0061
16619TIP3    H171272   1.238   5.416   5.757 -0.7776 -0.2222  1.1990
16619TIP3    H271273   1.270   5.547   5.825  0.2804  0.6702 -0.9330
16620TIP3   OH271274   1.817   1.122  11.658 -0.1128  0.1692  0.3436
16620TIP3    H171275   1.899   1.090  11.694 -0.7941 -0.5314  1.3201
16620TIP3    H271276   1.780   1.048  11.610 -0.0954  0.5363 -0.2523
16621TIP3   OH271277   5.898   5.890   1.814  0.5780  0.0024 -0.1031
16621TIP3    H171278   5.989   5.898   1.842 -0.2470 -2.5832  4.2155
16621TIP3    H271279   5.859   5.976   1.833  1.3219 -0.0309  1.7124
16622TIP3   OH271280   1.425   0.741  15.741  0.1954  0.1169  0.4606
16622TIP3    H171281   1.368   0.695  15.804  0.9529 -0.7293  0.5450
16622TIP3    H271282   1.473   0.671  15.697 -0.1970  0.7120 -0.9538
16623TIP3   OH271283   5.036   3.614  16.330  0.0197 -0.1651 -0.4105
16623TIP3    H171284   5.014   3.522  16.316 -1.1735  0.0965 -0.3142
16623TIP3    H271285   5.131   3.618  16.315  0.1218 -1.4378 -0.2311
16624TIP3   OH271286   3.480   1.615   2.249 -0.3705  0.2491  0.0908
16624TIP3    H171287   3.521   1.539   2.207 -2.5341 -0.7188 -0.4397
16624TIP3    H271288   3.525   1.623   2.333  0.8773 -0.7239 -0.4541
16625TIP3   OH271289   5.149   6.362   1.888  0.0594  0.3895 -0.3517
16625TIP3    H171290   5.081   6.354   1.955 -1.0598  2.7204 -1.1041
16625TIP3    H271291   5.137   6.287   1.831 -1.2125  0.2072  0.1322
16626TIP3   OH271292   6.025   4.312  13.400 -0.1955  0.3731  0.2076
16626TIP3    H171293   6.104   4.349  13.360  0.3796 -2.4201 -1.5166
16626TIP3    H271294   6.045   4.309  13.494  1.1325  1.0780 -0.0242
16627TIP3   OH271295   5.482   1.371   4.370 -0.4765 -0.0433  0.7517
16627TIP3    H171296   5.513   1.307   4.434 -0.2222  0.0447  0.7210
16627TIP3    H271297   5.387   1.373   4.380 -0.3484  0.8278  1.9477
16628TIP3   OH271298   4.359   4.506   5.212 -0.1644 -0.7496 -0.0144
16628TIP3    H171299   4.434   4.559   5.183  0.4352 -0.8251  1.3095
16628TIP3    H271300   4.283   4.550   5.175  0.4957 -0.3361 -0.9087
16629TIP3   OH271301   4.092   3.431   5.586 -0.0664  0.5619  0.5175
16629TIP3    H171302   4.161   3.393   5.640  2.2304  2.8601 -0.6066
16629TIP3    H271303   4.080   3.368   5.515  0.7128  0.0326  0.8444
16630TIP3   OH271304   3.739   6.126   5.951  0.3681 -0.7201  0.0095
16630TIP3    H171305   3.755   6.053   5.891 -0.1379 -1.6363  0.9601
16630TIP3    H271306   3.658   6.166   5.918 -1.6370 -3.0676  1.7383
16631TIP3   OH271307   4.698   4.611  15.463 -0.2290 -0.1797  0.5691
16631TIP3    H171308   4.692   4.557  15.542 -1.5651 -0.7089  0.1401
16631TIP3    H271309   4.611   4.604  15.422 -0.1804  1.6315  0.0548
16632TIP3   OH271310   3.133   4.599   5.019 -0.1483 -0.6094  0.5657
16632TIP3    H171311   3.133   4.695   5.019 -3.8118 -0.4639  0.3998
16632TIP3    H271312   3.163   4.576   5.107 -1.1788  0.8175  1.3479
16633TIP3   OH271313   3.879   4.364  16.525  0.1583  0.2087 -0.1427
16633TIP3    H171314   3.824   4.404  16.457 -0.9800  0.1852  0.7248
16633TIP3    H271315   3.901   4.437  16.583  1.5199  0.3160 -0.7764
16634TIP3   OH271316   5.253   1.934   4.607 -0.0361  0.0599  0.6222
16634TIP3    H171317   5.299   1.894   4.533 -1.8261 -2.1406  0.5982
16634TIP3    H271318   5.314   1.925   4.680  0.8570  0.2071 -0.0838
16635TIP3   OH271319   2.924   3.239   0.308  0.1842  0.0877  0.1751
16635TIP3    H171320   2.955   3.153   0.337  2.6344  0.7459 -0.3090
16635TIP3    H271321   2.856   3.219   0.244  0.1389 -1.4721  0.6621
16636TIP3   OH271322   4.974   5.108  14.447 -0.1594 -0.3782 -0.1130
16636TIP3    H171323   5.043   5.046  14.424 -0.4355 -0.0598 -1.9757
16636TIP3    H271324   4.917   5.059  14.505 -0.3836 -1.9297 -1.5530
16637TIP3   OH271325   4.448   0.024   2.295  0.4265  0.6748 -0.7345
16637TIP3    H171326   4.539   0.032   2.266  1.3043 -0.2423  1.5761
16637TIP3    H271327   4.435  -0.070   2.309 -0.9523  0.7698 -1.1827
16638TIP3   OH271328   3.078   0.461   3.083  0.0451 -0.0993 -0.2694
16638TIP3    H171329   3.165   0.429   3.109  0.1433  0.3449 -0.0399
16638TIP3    H271330   3.042   0.498   3.164  0.5475  1.7528 -0.8314
16639TIP3   OH271331   0.492   3.112   4.544  0.3675 -0.5219 -0.0922
16639TIP3    H171332   0.470   3.047   4.477 -0.4951 -1.9606  1.4868
16639TIP3    H271333   0.428   3.182   4.531 -0.3603 -1.1933 -0.2601
16640TIP3   OH271334   4.282   3.809   3.666  0.3956 -0.2916 -0.8390
16640TIP3    H171335   4.230   3.810   3.585  2.2766 -3.5173 -2.2448
16640TIP3    H271336   4.373   3.810   3.637  1.1519 -0.6458  1.3052
16641TIP3   OH271337   4.994   3.524   2.365  0.9070  0.5340  0.2803
16641TIP3    H171338   5.050   3.584   2.414  2.4380 -0.9017  0.3759
16641TIP3    H271339   5.034   3.519   2.278  0.3518  0.2499  0.0386
16642TIP3   OH271340   1.181   6.132  17.141 -0.0268 -0.0126 -0.2738
16642TIP3    H171341   1.119   6.197  17.174  1.2727  1.2237 -0.1855
16642TIP3    H271342   1.202   6.078  17.217 -0.3099  0.1167 -0.1046
16643TIP3   OH271343   3.314   1.654  13.497 -0.2577 -0.2641  0.2975
16643TIP3    H171344   3.315   1.749  13.509 -1.0742 -0.1400 -0.5633
16643TIP3    H271345   3.244   1.623  13.554  0.5058 -0.4569  1.1689
16644TIP3   OH271346   0.616   5.196   6.459 -0.7171 -0.2328 -0.1667
16644TIP3    H171347   0.702   5.155   6.461 -0.0006  1.2202  1.9477
16644TIP3    H271348   0.628   5.275   6.407 -0.0661  1.2054  2.0043
16645TIP3   OH271349   6.249   1.322  17.179 -0.0252 -0.0745 -0.2786
16645TIP3    H171350   6.272   1.250  17.120  0.2124  0.8624 -1.3681
16645TIP3    H271351   6.308   1.393  17.154  1.9256 -0.4349  2.8768
16646TIP3   OH271352   5.191   3.614  15.372 -1.2686 -0.3795 -0.1432
16646TIP3    H171353   5.200   3.674  15.299 -1.8850  0.6751  0.6209
16646TIP3    H271354   5.271   3.562  15.371  0.2263  1.7891  0.3474
16647TIP3   OH271355   4.220   4.396  12.809  0.2236 -0.1014  0.0453
16647TIP3    H171356   4.213   4.423  12.718  0.7345  0.7083  0.2315
16647TIP3    H271357   4.216   4.478  12.859 -0.2958 -0.5535  0.7669
16648TIP3   OH271358   2.551   5.880   4.249  0.0375  0.2017 -0.3772
16648TIP3    H171359   2.475   5.860   4.303  1.0469  1.4355  1.6078
16648TIP3    H271360   2.537   5.970   4.220  0.8550  0.5350  0.2385
16649TIP3   OH271361   5.510   2.448   0.676 -0.7768  0.4185  0.4385
16649TIP3    H171362   5.522   2.520   0.613 -0.1364  1.1133  1.3265
16649TIP3    H271363   5.574   2.382   0.649 -1.0446  0.3823 -0.1095
16650TIP3   OH271364   2.219   5.990  14.640 -0.1410  0.0038  1.0820
16650TIP3    H171365   2.245   5.898  14.645  0.6056  0.1250 -0.1216
16650TIP3    H271366   2.126   5.987  14.617  0.5162 -0.5282 -1.9472
16651TIP3   OH271367   0.122   2.543  13.685  0.5948  0.3714  0.2951
16651TIP3    H171368   0.091   2.610  13.623  0.6714  0.8269  0.7489
16651TIP3    H271369   0.042   2.515  13.730  0.5001 -0.1430 -0.1772
16652TIP3   OH271370   1.948   4.602  11.739 -0.2758 -0.8963  0.3541
16652TIP3    H171371   1.866   4.612  11.788 -0.1059  0.3362  0.4325
16652TIP3    H271372   1.921   4.564  11.656 -1.0335  0.0455  0.1435
16653TIP3   OH271373   3.999   2.127  12.280  0.9446 -0.1309 -0.0743
16653TIP3    H171374   4.002   2.039  12.243 -1.1354  0.4465 -1.7528
16653TIP3    H271375   4.052   2.180  12.220 -1.5498  0.5948 -1.7547
16654TIP3   OH271376   2.265   2.728  13.884 -0.2214 -0.0751  0.1090
16654TIP3    H171377   2.304   2.659  13.938  0.0018  0.7188  0.9984
16654TIP3    H271378   2.172   2.727  13.906 -0.1639  0.1164  0.3647
16655TIP3   OH271379   2.973   1.866   1.026 -0.1715  0.7559 -0.5927
16655TIP3    H171380   2.900   1.819   0.986 -2.6597  2.6936  1.3299
16655TIP3    H271381   3.005   1.924   0.957  1.3975 -1.8961 -2.2492
16656TIP3   OH271382   5.108   5.596   0.064  0.0538  0.1521 -0.3292
16656TIP3    H171383   5.102   5.690   0.078  2.8149  0.1799  1.3215
16656TIP3    H271384   5.023   5.562   0.092  0.1219  1.8610  2.2925
16657TIP3   OH271385   5.706   5.624  12.435 -0.1637  0.0029  0.0863
16657TIP3    H171386   5.733   5.621  12.343 -0.4039  1.0212 -0.0296
16657TIP3    H271387   5.619   5.662  12.434 -0.4271 -0.5678  0.6941
16658TIP3   OH271388   5.244   1.095   1.195 -0.2683 -0.3939 -0.3554
16658TIP3    H171389   5.218   1.178   1.235 -0.1626  0.2833 -1.6458
16658TIP3    H271390   5.284   1.119   1.111  0.5836 -1.6921 -0.3640
16659TIP3   OH271391   5.312   2.491   3.132 -0.1848 -0.1606 -0.4225
16659TIP3    H171392   5.232   2.455   3.170  0.4147 -1.8966 -0.7035
16659TIP3    H271393   5.313   2.457   3.043  0.9023 -0.2665 -0.3826
16660TIP3   OH271394   2.629   0.696   3.930 -0.4732 -0.5664  0.0403
16660TIP3    H171395   2.553   0.751   3.910 -0.6241 -0.1573  1.6595
16660TIP3    H271396   2.691   0.755   3.972 -0.1950 -1.3942  0.8237
16661TIP3   OH271397   6.552   4.244  12.283  0.3013  0.1240  0.3163
16661TIP3    H171398   6.553   4.334  12.317 -0.6357  0.2933 -0.0572
16661TIP3    H271399   6.508   4.252  12.198  1.7912 -0.4249 -0.5453
16662TIP3   OH271400   1.302   2.894   3.364 -0.1326 -0.0187 -0.1909
16662TIP3    H171401   1.283   2.810   3.407 -1.2147  0.5045  0.3807
16662TIP3    H271402   1.305   2.957   3.436  2.5157  0.1922 -0.3734
16663TIP3   OH271403   6.324   6.121   4.597  0.7696 -0.3441  0.2475
16663TIP3    H171404   6.320   6.041   4.544  3.6433 -0.4090 -0.0435
16663TIP3    H271405   6.374   6.096   4.675 -1.1061  0.4147  1.7683
16664TIP3   OH271406   6.556   0.037   5.471 -0.1228 -0.4305 -0.5350
16664TIP3    H171407   6.652   0.032   5.465 -0.1029 -0.9421  0.0068
16664TIP3    H271408   6.539   0.035   5.566 -0.6528  0.0360 -0.6185
16665TIP3   OH271409   2.543   1.194  11.976  0.1556 -0.3198  0.1889
16665TIP3    H171410   2.497   1.218  11.896  0.7184 -0.3747 -0.1574
16665TIP3    H271411   2.537   1.271  12.032  1.9251  0.6495 -0.8929
16666TIP3   OH271412   2.760   3.259   5.028  0.0521 -0.1362 -0.2921
16666TIP3    H171413   2.827   3.323   5.054  0.3523 -1.6048  3.0117
16666TIP3    H271414   2.679   3.310   5.023  0.8424  1.0955 -1.2512
16667TIP3   OH271415   3.749   2.231   4.996 -0.3527  0.1965 -0.2599
16667TIP3    H171416   3.675   2.230   4.936  1.2593 -1.6633 -2.4107
16667TIP3    H271417   3.802   2.306   4.969 -0.6561  0.6010  0.2496
16668TIP3   OH271418   5.094   5.172  11.543 -0.0848  0.1324 -0.4056
16668TIP3    H171419   5.057   5.163  11.631  0.7330  0.2462 -0.0376
16668TIP3    H271420   5.029   5.133  11.485 -0.5083 -0.2009  0.2847
16669TIP3   OH271421   1.034   3.242   4.208 -0.6210 -0.2153 -0.2370
16669TIP3    H171422   0.941   3.236   4.229 -0.2608 -1.2653  1.2161
16669TIP3    H271423   1.071   3.159   4.239  1.0613  0.8561  0.7599
16670TIP3   OH271424   1.316   1.247   2.630  0.2116  0.0506 -0.1336
16670TIP3    H171425   1.377   1.197   2.684  0.3774 -1.5837 -1.7408
16670TIP3    H271426   1.373   1.298   2.572  0.0428 -0.2323 -0.5466
16671TIP3   OH271427   4.361   5.928   4.450  0.5214  0.4586  0.4952
16671TIP3    H171428   4.443   5.962   4.485 -0.2395  0.6937  2.1625
16671TIP3    H271429   4.338   5.989   4.379  1.8337  0.2949 -0.1006
16672TIP3   OH271430   0.596   5.269  14.614  0.2402  0.3743  0.4845
16672TIP3    H171431   0.670   5.327  14.595 -0.2960  0.5495 -1.2940
16672TIP3    H271432   0.521   5.313  14.573 -0.3723 -1.0399  0.0449
16673TIP3   OH271433   3.858   2.552  16.976  0.1399 -0.1660 -0.3017
16673TIP3    H171434   3.952   2.538  16.978  0.0260 -1.3634 -1.9076
16673TIP3    H271435   3.838   2.588  17.063  1.9298 -0.7120  0.3893
16674TIP3   OH271436   4.097   2.133  11.735  0.4000  0.0084  0.4600
16674TIP3    H171437   4.182   2.108  11.770  0.6739  0.2779  0.0037
16674TIP3    H271438   4.060   2.053  11.700  0.6427 -0.0301  0.2954
16675TIP3   OH271439   2.569   6.305   0.325 -0.6718  0.0741 -0.3148
16675TIP3    H171440   2.651   6.353   0.323 -0.4269 -0.3465 -1.0574
16675TIP3    H271441   2.595   6.214   0.341 -0.9972 -0.0356 -0.3939
16676TIP3   OH271442   0.005   5.048   1.779  0.2854 -0.2831 -0.0592
16676TIP3    H171443  -0.052   4.997   1.722 -0.9487 -0.6633  1.4543
16676TIP3    H271444  -0.050   5.118   1.813  0.7567 -0.4934  1.2253
16677TIP3   OH271445   2.352   6.059  14.900 -0.2412  0.5151 -0.1478
16677TIP3    H171446   2.359   6.047  14.806 -1.4730 -1.9348 -0.0314
16677TIP3    H271447   2.260   6.038  14.919  0.5703 -1.6777  1.8441
16678TIP3   OH271448   2.537   5.457   1.944 -0.4166 -0.3108 -0.0612
16678TIP3    H171449   2.551   5.429   1.853 -0.4830  0.3290 -0.2781
16678TIP3    H271450   2.594   5.534   1.954 -1.7744  0.7535 -0.1549
16679TIP3   OH271451   2.624   2.774  13.608 -0.2222 -0.3529 -0.2456
16679TIP3    H171452   2.561   2.708  13.637  0.4995 -0.9493  0.0193
16679TIP3    H271453   2.688   2.724  13.557  0.5428  0.0766  0.2778
16680TIP3   OH271454   3.484   2.902  11.851  0.0475 -0.2567 -0.2783
16680TIP3    H171455   3.553   2.890  11.916  0.8298  0.5721 -0.9356
16680TIP3    H271456   3.423   2.963  11.892 -0.6134 -1.4203  0.5262
16681TIP3   OH271457   4.810   3.217  12.971 -0.8394  0.1080  0.1152
16681TIP3    H171458   4.831   3.132  12.932  0.7490  0.2247  0.6469
16681TIP3    H271459   4.886   3.272  12.952 -0.6146  0.5902  2.1629
16682TIP3   OH271460   3.906   1.976   0.034 -0.1047 -0.6155 -0.2420
16682TIP3    H171461   3.935   1.932  -0.046  1.1850  0.2860 -0.2992
16682TIP3    H271462   3.905   2.069   0.011  1.8513 -0.1731  1.2100
16683TIP3   OH271463   6.124   1.240   3.128 -0.5254 -0.4327  0.0265
16683TIP3    H171464   6.199   1.263   3.073 -0.2560  1.7071  1.1679
16683TIP3    H271465   6.048   1.261   3.074 -0.2744  0.5265  0.0307
16684TIP3   OH271466   5.289   5.464   0.225 -0.1807  0.0588 -0.5286
16684TIP3    H171467   5.226   5.512   0.171 -0.4227  2.0941  1.3982
16684TIP3    H271468   5.310   5.524   0.297  1.1531 -1.9667  0.9014
16685TIP3   OH271469   4.863   4.348  12.060  0.9219  0.5200  0.3533
16685TIP3    H171470   4.809   4.325  12.136  0.7982  0.4165  0.2338
16685TIP3    H271471   4.914   4.269  12.041  0.9753  0.5556  0.3463
16686TIP3   OH271472   5.204   1.921   1.135 -0.2653  0.2991  0.2244
16686TIP3    H171473   5.123   1.876   1.159  0.5837 -0.6529  1.4095
16686TIP3    H271474   5.178   2.012   1.124 -1.5752 -0.0544  0.1486
16687TIP3   OH271475   3.674   3.036  12.999  0.7530 -0.0640  0.4010
16687TIP3    H171476   3.754   3.031  12.947  0.6710 -0.8755  0.3371
16687TIP3    H271477   3.639   2.947  12.997 -0.5773  0.4523 -0.2222
16688TIP3   OH271478   2.183   2.581  16.176  0.2664 -0.0216  0.9819
16688TIP3    H171479   2.163   2.494  16.212 -0.7235  0.9930  3.0764
16688TIP3    H271480   2.139   2.583  16.091  0.2657 -1.5347  0.9113
16689TIP3   OH271481   2.795   4.685   1.458 -0.2963 -0.4643  0.3550
16689TIP3    H171482   2.728   4.674   1.525 -0.3997 -1.0434  0.1658
16689TIP3    H271483   2.834   4.598   1.449  1.7349  0.2312  1.7522
16690TIP3   OH271484   0.184   6.585  14.672  0.2708  0.6014  0.2231
16690TIP3    H171485   0.242   6.560  14.601 -2.2274 -2.9142 -0.8266
16690TIP3    H271486   0.096   6.586  14.634 -1.0878 -0.5734  2.9773
16691TIP3   OH271487   2.616   2.161   3.221 -0.4355 -0.6059 -0.1270
16691TIP3    H171488   2.586   2.070   3.230 -1.3154 -0.4426 -1.1948
16691TIP3    H271489   2.536   2.211   3.202  0.0130  0.4230  0.6176
16692TIP3   OH271490   2.344   2.053  14.236  0.4985 -0.2554 -0.8262
16692TIP3    H171491   2.291   2.006  14.171 -0.0019 -0.9609  0.0816
16692TIP3    H271492   2.321   2.014  14.320  1.3364  0.4707 -0.2357
16693TIP3   OH271493   3.813   5.862  14.497 -0.6982  0.0224  0.3064
16693TIP3    H171494   3.906   5.887  14.502 -0.0090 -2.4369  1.2098
16693TIP3    H271495   3.766   5.938  14.531  0.9992  1.1544  0.2745
16694TIP3   OH271496   6.358   3.835  15.260  0.1395 -0.2957  0.0031
16694TIP3    H171497   6.317   3.768  15.205 -1.0240  1.6337 -1.5856
16694TIP3    H271498   6.285   3.877  15.305  0.8117  0.3063  0.5541
16695TIP3   OH271499   5.682   6.386   1.172  0.0153 -0.3513 -0.1694
16695TIP3    H171500   5.618   6.355   1.237 -1.9071 -1.6228 -2.5367
16695TIP3    H271501   5.692   6.479   1.193 -1.6752 -0.3880  1.0457
16696TIP3   OH271502   6.748   4.395   5.575  0.1133  0.2606  0.2135
16696TIP3    H171503   6.729   4.388   5.668 -0.5011 -1.0893  0.0102
16696TIP3    H271504   6.834   4.355   5.565  1.2639  2.5062  0.5033
16697TIP3   OH271505   2.843   5.707  11.007 -0.1005  0.2252  0.0234
16697TIP3    H171506   2.841   5.786  10.954 -2.3357  0.7807  0.8684
16697TIP3    H271507   2.852   5.636  10.943 -0.9981  0.9760 -0.9678
16698TIP3   OH271508   0.732   5.401  11.567 -0.9524  0.3231 -0.1713
16698TIP3    H171509   0.707   5.490  11.593 -1.1387  0.2293 -0.0237
16698TIP3    H271510   0.764   5.411  11.477 -1.8195  0.4067 -0.4851
16699TIP3   OH271511   3.669   6.271   1.124 -0.2542  0.4089  0.1810
16699TIP3    H171512   3.706   6.224   1.199  1.3262  2.6165  0.8608
16699TIP3    H271513   3.611   6.337   1.163 -0.9183  0.3492 -0.6601
16700TIP3   OH271514   3.680   5.647  14.437  0.5608 -0.1979 -0.5051
16700TIP3    H171515   3.739   5.718  14.460 -0.2359  0.9100 -1.7529
16700TIP3    H271516   3.602   5.661  14.490  1.0100 -1.0853  0.4142
16701TIP3   OH271517   4.377   1.377   2.500  0.1819  0.3481  0.1213
16701TIP3    H171518   4.421   1.298   2.530  0.9924  1.8640  3.4385
16701TIP3    H271519   4.287   1.350   2.484  0.8687 -1.5841 -0.7997
16702TIP3   OH271520   4.129   2.767   1.923  0.6232 -0.5220  0.2921
16702TIP3    H171521   4.178   2.721   1.855 -1.7521 -0.8603 -1.3266
16702TIP3    H271522   4.045   2.786   1.882 -0.2784  0.8405  2.6081
16703TIP3   OH271523   4.703   1.763   4.957  0.2994 -0.3897  1.2279
16703TIP3    H171524   4.683   1.688   5.013 -0.2230 -1.5837 -0.4963
16703TIP3    H271525   4.788   1.743   4.919 -0.7635 -1.2062 -0.8895
16704TIP3   OH271526   0.110   5.151  11.460 -0.0646 -0.1803  0.2441
16704TIP3    H171527   0.019   5.135  11.484 -0.7219 -0.5896 -2.2052
16704TIP3    H271528   0.144   5.064  11.436  0.4600  0.2047 -0.4436
16705TIP3   OH271529   2.196   0.669   5.035 -0.5742 -0.2765  0.4437
16705TIP3    H171530   2.139   0.598   5.065 -0.6762  0.0088  0.9438
16705TIP3    H271531   2.182   0.672   4.940 -0.2729 -1.1778  0.3586
16706TIP3   OH271532   3.531   6.732  12.366  0.3684 -0.0266 -0.0200
16706TIP3    H171533   3.622   6.724  12.393  0.8714  0.1001 -1.5684
16706TIP3    H271534   3.494   6.645  12.382  0.6871 -0.0195  0.8182
16707TIP3   OH271535   0.564   6.390  14.118  0.0333  1.0760  0.1442
16707TIP3    H171536   0.565   6.486  14.123  1.6356  1.2050 -1.4021
16707TIP3    H271537   0.577   6.361  14.209  1.2332  2.3811  0.4288
16708TIP3   OH271538   5.919   2.607  14.939  0.2123  0.6879 -0.3619
16708TIP3    H171539   5.945   2.620  14.848  2.1012  0.3611  0.0838
16708TIP3    H271540   5.871   2.524  14.939  2.2637 -0.5743 -0.7499
16709TIP3   OH271541   3.201   1.624  14.211 -0.5903  0.1945  0.4221
16709TIP3    H171542   3.219   1.674  14.291  1.6710 -1.4604  1.0421
16709TIP3    H271543   3.133   1.562  14.236 -0.6461  0.3892  0.7567
16710TIP3   OH271544   5.745   4.210   1.246 -0.3157 -0.2436  0.4279
16710TIP3    H171545   5.753   4.305   1.253  0.0013 -0.0629 -1.7143
16710TIP3    H271546   5.720   4.181   1.334  1.2897  1.6205  1.5670
16711TIP3   OH271547   5.761   3.488  16.091 -0.0836 -0.3354 -0.1504
16711TIP3    H171548   5.725   3.404  16.060  0.5988 -0.6416 -0.1413
16711TIP3    H271549   5.684   3.542  16.109 -0.5400 -1.0140 -0.0149
16712TIP3   OH271550   1.168   0.500   5.093 -0.2252  0.7709 -0.5029
16712TIP3    H171551   1.082   0.540   5.109  0.1044  0.7837  1.5652
16712TIP3    H271552   1.231   0.562   5.129  0.6136  0.4177 -1.3215
16713TIP3   OH271553   6.210   5.552   1.304  0.3825  0.0370  0.0593
16713TIP3    H171554   6.125   5.518   1.275 -0.0152  1.3721 -0.4006
16713TIP3    H271555   6.235   5.494   1.376  0.6387 -2.4087 -1.8187
16714TIP3   OH271556   2.747   5.277  10.558  0.1172  0.2532  0.2872
16714TIP3    H171557   2.740   5.372  10.557  1.1089  0.3365 -0.0994
16714TIP3    H271558   2.830   5.260  10.603  1.1383 -0.3204 -1.6821
16715TIP3   OH271559   1.101   1.515   1.195  0.1673  0.5657  0.0530
16715TIP3    H171560   1.115   1.606   1.220 -2.6025  1.0764  0.0442
16715TIP3    H271561   1.023   1.516   1.140  0.3494 -1.7618 -0.3690
16716TIP3   OH271562   0.217   6.198  16.912  0.0110  0.2648 -0.1527
16716TIP3    H171563   0.143   6.257  16.927 -0.8235 -0.5634 -0.8614
16716TIP3    H271564   0.179   6.111  16.918  1.4011 -0.2577  1.7354
16717TIP3   OH271565   2.385   6.280  16.598  0.2298 -0.2362  0.4346
16717TIP3    H171566   2.301   6.248  16.564 -0.5201  0.2014  1.7618
16717TIP3    H271567   2.370   6.374  16.613  0.2985 -0.5147  2.4786
16718TIP3   OH271568   5.031   4.140  12.071  0.0264  0.4910 -0.6590
16718TIP3    H171569   5.110   4.174  12.029  0.2111 -0.1345 -0.8347
16718TIP3    H271570   5.056   4.052  12.100 -0.5161  0.4060 -0.4499
16719TIP3   OH271571   2.764   5.091   6.009 -0.2308  0.3663 -0.0995
16719TIP3    H171572   2.737   5.056   5.924  1.4821  0.3888 -0.6930
16719TIP3    H271573   2.781   5.184   5.993  0.2381  0.3402  0.2197
16720TIP3   OH271574   2.825   5.819  15.048  0.2150 -0.3523  0.5336
16720TIP3    H171575   2.883   5.861  14.984 -0.2976 -0.5682 -0.0872
16720TIP3    H271576   2.739   5.820  15.006  0.0488 -1.3418  0.8188
16721TIP3   OH271577   4.419   4.267   0.978  0.0446  0.0246  0.2752
16721TIP3    H171578   4.386   4.322   1.049 -0.0572  0.3844 -0.0515
16721TIP3    H271579   4.481   4.322   0.931  0.4508 -0.3585  0.3481
16722TIP3   OH271580   3.611   6.178  10.623 -0.3003  0.4480  0.1489
16722TIP3    H171581   3.523   6.145  10.605 -0.5549  1.0279  0.3100
16722TIP3    H271582   3.668   6.103  10.610 -0.8196  0.0732  0.0224
16723TIP3   OH271583   3.279   0.709  12.560  0.2275 -0.3499  1.1988
16723TIP3    H171584   3.248   0.780  12.504  2.0308  0.3192  0.9936
16723TIP3    H271585   3.240   0.727  12.646  0.6317  0.8648  1.1385
16724TIP3   OH271586   4.341   0.292  13.616 -0.5357 -0.0801 -0.0945
16724TIP3    H171587   4.403   0.319  13.548 -1.6129  1.0334 -0.6739
16724TIP3    H271588   4.383   0.317  13.698  0.5084 -0.8777 -0.3570
16725TIP3   OH271589   2.350   5.654   2.302  0.7944 -0.3715 -0.3608
16725TIP3    H171590   2.414   5.724   2.313 -0.4262  1.0750 -1.9417
16725TIP3    H271591   2.390   5.595   2.238  0.7812  0.2695 -0.9739
16726TIP3   OH271592   0.457   3.543  10.452 -0.4055 -0.4706 -0.4026
16726TIP3    H171593   0.413   3.596  10.518 -1.5770 -1.6308 -0.2178
16726TIP3    H271594   0.389   3.487  10.416  0.8622 -2.1747 -0.2718
16727TIP3   OH271595   2.367   3.394   6.015  0.2050  0.1280  0.5484
16727TIP3    H171596   2.411   3.313   5.987 -2.0702 -1.4815  1.3400
16727TIP3    H271597   2.335   3.433   5.934 -0.6531 -1.0214  0.2990
16728TIP3   OH271598   2.397   1.344  17.368  0.0808  0.3171 -0.8834
16728TIP3    H171599   2.319   1.347  17.423  0.9948 -0.5965  0.5420
16728TIP3    H271600   2.384   1.268  17.311  0.5582 -0.7501  0.3930
16729TIP3   OH271601   6.339   4.521   0.653  0.0793  0.3258 -0.7709
16729TIP3    H171602   6.416   4.511   0.709 -0.5911  0.5968  0.2334
16729TIP3    H271603   6.356   4.464   0.578  0.3384 -1.3111  0.4533
16730TIP3   OH271604   5.162   2.253  14.992  0.0242 -0.1893 -0.2430
16730TIP3    H171605   5.074   2.257  15.029  0.1416  0.4659 -0.0114
16730TIP3    H271606   5.149   2.233  14.899 -0.3336 -0.6818 -0.0890
16731TIP3   OH271607   2.970   3.377  17.368 -0.5193  0.5663  0.7375
16731TIP3    H171608   2.918   3.306  17.407 -1.3375  1.0104  0.4748
16731TIP3    H271609   3.032   3.402  17.436  0.5323 -1.1360  0.4680
16732TIP3   OH271610   1.950   1.888   3.157  0.0726 -0.2698  0.4384
16732TIP3    H171611   1.917   1.906   3.069 -0.9326 -0.1655  0.8144
16732TIP3    H271612   1.926   1.965   3.208 -0.1780 -0.7174  1.0102
16733TIP3   OH271613   1.110   2.639   1.783 -0.2586  1.0950  0.1321
16733TIP3    H171614   1.126   2.731   1.804  0.4135  1.8940 -3.2683
16733TIP3    H271615   1.191   2.594   1.805  0.6154  1.9739 -1.1776
16734TIP3   OH271616   3.994   0.315  16.334  0.0964 -0.0035 -0.1965
16734TIP3    H171617   3.927   0.377  16.306 -0.1595 -0.6508 -1.0716
16734TIP3    H271618   3.949   0.231  16.339  0.2442 -0.0159  1.7492
16735TIP3   OH271619   3.412   1.533  14.864 -0.1490 -0.2147  0.0727
16735TIP3    H171620   3.376   1.478  14.795  0.4777 -0.5686  0.0188
16735TIP3    H271621   3.417   1.621  14.826  2.9913 -0.9106 -1.4504
16736TIP3   OH271622   6.323   6.302  14.172 -0.5112 -0.3449  0.0208
16736TIP3    H171623   6.384   6.367  14.137 -0.2361 -0.8097 -0.3823
16736TIP3    H271624   6.311   6.327  14.263  0.0018 -0.0338  0.0081
16737TIP3   OH271625   0.199   3.579  14.614 -0.4491 -0.0640  0.7530
16737TIP3    H171626   0.276   3.551  14.663 -0.5231 -0.6023  0.5692
16737TIP3    H271627   0.155   3.498  14.590  0.2159  0.0933 -1.2465
16738TIP3   OH271628   1.749   0.663   2.122  0.2049 -0.4974 -0.5064
16738TIP3    H171629   1.703   0.712   2.190  0.4586 -1.5698  0.4720
16738TIP3    H271630   1.679   0.617   2.075 -0.0341  0.7341 -1.4267
16739TIP3   OH271631   5.561   6.496  14.876 -0.2374  0.3946  0.3884
16739TIP3    H171632   5.629   6.437  14.910 -1.8999 -0.7764  1.8763
16739TIP3    H271633   5.599   6.532  14.796  1.4022 -1.6846  0.1223
16740TIP3   OH271634   5.823   0.464   2.951 -0.6017 -0.0213  0.3218
16740TIP3    H171635   5.876   0.533   2.912 -1.0095  0.2732  0.2718
16740TIP3    H271636   5.832   0.477   3.045 -0.6085  0.0458  0.3133
16741TIP3   OH271637   2.860   5.533  15.827 -0.0861 -0.6637 -0.4051
16741TIP3    H171638   2.925   5.511  15.761 -0.2994 -1.0790 -0.4799
16741TIP3    H271639   2.886   5.485  15.905 -0.3004 -0.8388 -0.4375
16742TIP3   OH271640   0.212   6.551  14.275 -0.4608 -0.6060 -0.8891
16742TIP3    H171641   0.234   6.465  14.240  0.7638  0.1079 -1.9507
16742TIP3    H271642   0.275   6.566  14.345 -0.7510 -0.6163 -0.6216
16743TIP3   OH271643   4.975   5.938   5.769 -0.1693  0.3413  0.7237
16743TIP3    H171644   4.948   5.846   5.770  1.3604 -0.1491  0.3754
16743TIP3    H271645   5.027   5.948   5.849  3.7376 -0.4880 -1.4640
16744TIP3   OH271646   5.664   0.676  14.358  0.5942 -0.2461 -0.1937
16744TIP3    H171647   5.573   0.700  14.339  0.7980  0.7042 -0.0512
16744TIP3    H271648   5.672   0.587  14.326 -0.3541 -0.3003 -0.3298
16745TIP3   OH271649   4.897   6.721  14.682 -0.8938  0.1360  0.1602
16745TIP3    H171650   4.983   6.700  14.716 -1.2328  1.5257  2.0412
16745TIP3    H271651   4.913   6.790  14.617 -0.4763 -0.7526 -0.7062
16746TIP3   OH271652   1.518   3.922   2.870  0.0386 -0.5298 -0.0434
16746TIP3    H171653   1.552   3.926   2.960  0.8757 -0.6378 -0.3407
16746TIP3    H271654   1.509   4.014   2.844 -0.7756 -0.4929  0.3521
16747TIP3   OH271655   0.006   4.393   4.962 -0.1539 -0.0752 -0.1206
16747TIP3    H171656   0.056   4.389   5.044 -1.2751  0.8121  0.6445
16747TIP3    H271657   0.068   4.366   4.894  1.1961  0.4914  0.8495
16748TIP3   OH271658   0.296   4.382  15.215 -0.3849  0.3561  0.1126
16748TIP3    H171659   0.309   4.360  15.308 -1.8618  2.0344  0.7718
16748TIP3    H271660   0.314   4.300  15.169  0.1227 -0.6025  1.8955
16749TIP3   OH271661   5.342   4.661  15.356 -0.5393  0.5258 -0.1991
16749TIP3    H171662   5.377   4.609  15.429 -0.1439 -0.4709 -1.0754
16749TIP3    H271663   5.385   4.625  15.278  1.5487  3.6632 -0.6601
16750TIP3   OH271664   0.669   6.083   1.769  0.6166 -0.2595  0.6622
16750TIP3    H171665   0.597   6.027   1.800 -0.7857  0.3092 -1.3579
16750TIP3    H271666   0.723   6.025   1.717  0.1554 -0.1422  0.0417
16751TIP3   OH271667   3.055   5.778   2.973  0.2113 -0.6515 -0.2544
16751TIP3    H171668   2.989   5.847   2.963  0.1358 -0.5086  1.0378
16751TIP3    H271669   3.138   5.822   2.958  0.0662 -0.6738 -1.1769
16752TIP3   OH271670   3.237   0.793   6.002  0.1100  0.0909 -0.3659
16752TIP3    H171671   3.185   0.719   6.034 -0.7589  0.4516 -0.8933
16752TIP3    H271672   3.186   0.870   6.028  0.5901  0.4696 -0.5408
16753TIP3   OH271673   0.341   6.511   4.288 -0.3978  0.5799  0.5029
16753TIP3    H171674   0.310   6.590   4.243 -0.7724  1.3709  2.0909
16753TIP3    H271675   0.292   6.510   4.371  1.7965  0.3480  1.8597
16754TIP3   OH271676   2.257   5.504   1.221 -0.2554  0.0816 -0.7566
16754TIP3    H171677   2.204   5.487   1.144  0.8128 -1.0254 -1.2752
16754TIP3    H271678   2.340   5.461   1.203  0.3302  0.5710  0.6364
16755TIP3   OH271679   0.167   3.310  11.389 -0.0454 -1.2855 -0.3363
16755TIP3    H171680   0.210   3.395  11.381  1.7369 -1.7683  2.7073
16755TIP3    H271681   0.236   3.247  11.365 -0.6107 -1.9337 -0.2795
16756TIP3   OH271682   2.434   5.864   0.491 -0.4772 -0.1967  0.0258
16756TIP3    H171683   2.348   5.896   0.464 -0.7894 -1.0464  0.0024
16756TIP3    H271684   2.488   5.871   0.412 -0.3948  0.7388  0.1498
16757TIP3   OH271685   5.001   0.841   4.454  0.2824  0.3984  0.5715
16757TIP3    H171686   5.007   0.768   4.392 -0.4194  1.4777 -0.8401
16757TIP3    H271687   4.979   0.800   4.537  2.0386 -1.1852  0.3075
16758TIP3   OH271688   2.911   5.349   5.637 -1.1231  0.7968 -0.2976
16758TIP3    H171689   2.881   5.431   5.598 -2.9553  0.3942  0.1666
16758TIP3    H271690   2.835   5.316   5.685 -0.9761 -2.0066 -1.8061
16759TIP3   OH271691   3.641   5.311   0.438 -0.3822  0.7871 -0.2818
16759TIP3    H171692   3.659   5.217   0.436 -1.9773  0.4253  0.3534
16759TIP3    H271693   3.715   5.351   0.393  1.4876 -0.5806  1.3929
16760TIP3   OH271694   6.013   4.200   2.787  0.1105 -0.3564  0.0920
16760TIP3    H171695   6.021   4.132   2.720  1.5776  1.1391 -1.3698
16760TIP3    H271696   5.955   4.265   2.749  0.3408  0.1556  0.5956
16761TIP3   OH271697   4.375   6.284  10.997  0.0089  0.0400  0.2853
16761TIP3    H171698   4.305   6.237  10.952  1.1069 -0.4641 -0.9883
16761TIP3    H271699   4.398   6.355  10.938  1.4746 -0.6200 -0.0049
16762TIP3   OH271700   1.112   2.273  11.405 -0.5769  0.8872  0.5737
16762TIP3    H171701   1.172   2.252  11.334  1.1125  2.9183  1.3237
16762TIP3    H271702   1.145   2.222  11.479 -0.3471  1.2932  0.7490
16763TIP3   OH271703   5.803   6.697   3.997  0.0281 -0.0973  0.4904
16763TIP3    H171704   5.860   6.625   3.971  2.1305  1.7999 -0.5390
16763TIP3    H271705   5.848   6.737   4.071 -0.1600  1.2036 -0.0749
16764TIP3   OH271706   1.759   5.891  10.916  0.3716 -0.3325 -0.2547
16764TIP3    H171707   1.820   5.872  10.987 -0.3934 -0.4811  0.3861
16764TIP3    H271708   1.689   5.826  10.927  0.1364 -0.2250 -1.0231
16765TIP3   OH271709   5.735   6.432  16.054  0.1526 -0.2476 -0.2834
16765TIP3    H171710   5.749   6.467  15.966 -1.1116  0.7229 -0.1349
16765TIP3    H271711   5.642   6.410  16.056  0.1566 -0.2225  0.8219
16766TIP3   OH271712   5.407   5.487   6.016  0.6434  0.2331 -0.5638
16766TIP3    H171713   5.500   5.506   6.017  0.5599  0.6522  0.1754
16766TIP3    H271714   5.371   5.537   6.090 -0.2234  0.3960 -1.0733
16767TIP3   OH271715   3.232   1.586   0.888 -0.2723 -0.4990 -0.5263
16767TIP3    H171716   3.200   1.542   0.809 -0.7375 -1.1643  0.0164
16767TIP3    H271717   3.314   1.627   0.861  0.5527 -2.2754 -0.9187
16768TIP3   OH271718   1.476   1.908   5.052  0.3924  0.1411 -0.5159
16768TIP3    H171719   1.397   1.961   5.036  0.3963 -0.2237 -1.9290
16768TIP3    H271720   1.517   1.901   4.966  1.9064  0.2007  0.1841
16769TIP3   OH271721   0.440   4.470   1.584 -0.4569  0.2605 -0.4478
16769TIP3    H171722   0.522   4.461   1.537 -0.3462  0.4387 -0.2877
16769TIP3    H271723   0.452   4.417   1.663  0.0579  1.4819  0.3157
16770TIP3   OH271724   1.411   6.569  13.254 -0.2450  0.1985 -0.3157
16770TIP3    H171725   1.342   6.634  13.240  0.0668  0.2327 -1.8977
16770TIP3    H271726   1.461   6.570  13.173 -0.6272 -2.4711 -0.6655
16771TIP3   OH271727   0.676   3.408   5.997  0.3232  0.1950  0.3541
16771TIP3    H171728   0.756   3.403   6.049 -0.1309  0.4591  1.0936
16771TIP3    H271729   0.606   3.418   6.062 -0.6145 -2.6118 -0.0773
16772TIP3   OH271730   1.307   6.265  12.695 -0.3521  0.0035 -0.5277
16772TIP3    H171731   1.293   6.309  12.779 -0.4469  1.4734 -1.2656
16772TIP3    H271732   1.399   6.238  12.698 -0.2371  0.4232 -0.1135
16773TIP3   OH271733   2.207   3.820   0.896  0.2421 -0.1902  1.0197
16773TIP3    H171734   2.188   3.798   0.805  1.6496  1.6607  0.2183
16773TIP3    H271735   2.302   3.813   0.904  0.3029  1.1973  1.8856
16774TIP3   OH271736   1.933   0.344   1.645 -0.3009  0.5757 -0.6939
16774TIP3    H171737   1.930   0.264   1.697 -0.9621  0.5548 -0.7526
16774TIP3    H271738   1.847   0.348   1.603  0.0268  0.8899 -1.3383
16775TIP3   OH271739   2.670   0.865  13.428  0.2535  0.0463  0.2545
16775TIP3    H171740   2.700   0.920  13.501 -0.3681 -0.6626  1.0753
16775TIP3    H271741   2.653   0.780  13.468 -0.4957 -0.2493 -0.6434
16776TIP3   OH271742   2.902   5.953   0.384 -0.2414  0.2376  0.5085
16776TIP3    H171743   2.911   5.869   0.340 -3.9265 -0.4096  0.6899
16776TIP3    H271744   2.921   5.934   0.476  0.0567 -0.1190  0.3764
16777TIP3   OH271745   4.974   6.331   2.676 -0.1362 -0.8460 -0.2464
16777TIP3    H171746   5.043   6.353   2.613 -1.0795  1.2201 -0.6620
16777TIP3    H271747   5.015   6.270   2.737  2.0674  0.2803 -0.4796
16778TIP3   OH271748   4.901   4.868  14.913 -0.7326 -0.2962  0.2208
16778TIP3    H171749   4.977   4.824  14.876  0.4845  1.1405  0.8951
16778TIP3    H271750   4.937   4.927  14.979 -2.5506 -0.4122  1.3925
16779TIP3   OH271751   3.557   0.306  12.354  0.1921 -0.3878 -0.5114
16779TIP3    H171752   3.575   0.219  12.389  3.2439  0.4085  0.1667
16779TIP3    H271753   3.492   0.343  12.414  0.2747 -1.5178  0.2958
16780TIP3   OH271754   4.358   1.709  14.636  0.0013  0.2171  0.1710
16780TIP3    H171755   4.297   1.656  14.583 -0.8421  0.3882  0.9442
16780TIP3    H271756   4.332   1.800  14.618  1.1295  0.3696 -0.7773
16781TIP3   OH271757   1.518   0.265   0.356 -0.4777 -0.0702 -0.1374
16781TIP3    H171758   1.589   0.328   0.366 -0.7650 -0.0298  2.1090
16781TIP3    H271759   1.438   0.317   0.363 -0.7210 -0.4066 -0.3511
16782TIP3   OH271760   0.888   0.247   4.480  0.1443 -0.6073  0.3030
16782TIP3    H171761   0.864   0.162   4.516 -2.4790 -0.1385 -0.1086
16782TIP3    H271762   0.871   0.239   4.386  0.1734  0.2605  0.2133
16783TIP3   OH271763   1.123   1.973   1.788 -0.0715  0.0617 -0.0755
16783TIP3    H171764   1.190   2.021   1.836  1.3462 -2.4161  0.6533
16783TIP3    H271765   1.127   2.009   1.699  0.0597  2.0120  0.6705
16784TIP3   OH271766   1.466   2.447  16.331  0.1777  0.3829 -0.3494
16784TIP3    H171767   1.389   2.450  16.388 -0.0370 -1.6695 -0.4409
16784TIP3    H271768   1.464   2.530  16.283 -1.0643  1.0536  0.7811
16785TIP3   OH271769   0.981   5.908   2.252 -0.0494  0.0273 -0.0316
16785TIP3    H171770   0.980   5.885   2.159  0.5201 -1.1104  0.2315
16785TIP3    H271771   1.036   5.986   2.256  1.2172 -0.8154 -0.4721
16786TIP3   OH271772   4.284   3.349  13.353  0.3019  0.0013 -0.3746
16786TIP3    H171773   4.234   3.375  13.431  0.9084  1.5206 -0.4645
16786TIP3    H271774   4.351   3.289  13.387 -0.5911 -0.8510 -0.0351
16787TIP3   OH271775   5.036   1.008  14.134 -0.0967 -0.0540 -0.9586
16787TIP3    H171776   5.094   0.931  14.134  0.4736  0.3180  0.6906
16787TIP3    H271777   5.083   1.072  14.188 -2.7190 -0.3158  1.9310
16788TIP3   OH271778   4.239   3.632   1.252  0.1167 -0.3058  0.7827
16788TIP3    H171779   4.285   3.676   1.324 -0.8810 -0.9716  1.8650
16788TIP3    H271780   4.201   3.554   1.292 -0.2502 -0.8374 -0.5392
16789TIP3   OH271781   0.692   5.153  11.692 -0.5092  0.1495  0.3283
16789TIP3    H171782   0.646   5.191  11.767  0.6511  0.8649  0.7006
16789TIP3    H271783   0.724   5.228  11.643 -0.3063 -0.3270 -0.2868
16790TIP3   OH271784   0.596   2.563  16.497  0.0486 -0.0100 -0.4033
16790TIP3    H171785   0.671   2.525  16.451 -0.5524 -0.0982 -1.3292
16790TIP3    H271786   0.592   2.514  16.579  1.1768  0.1983 -0.2121
16791TIP3   OH271787   4.122   3.530   0.219 -0.2438 -0.0109  0.1741
16791TIP3    H171788   4.119   3.485   0.304  1.6001  1.5274  1.1145
16791TIP3    H271789   4.181   3.477   0.166 -1.5987 -1.1179 -0.2898
16792TIP3   OH271790   4.664   2.978   5.124  0.4229  0.2511 -0.1264
16792TIP3    H171791   4.611   2.968   5.202 -0.0777 -0.0240 -0.4959
16792TIP3    H271792   4.684   3.072   5.120 -0.3248  0.4156 -0.1632
16793TIP3   OH271793   5.410   1.891   4.369 -0.3046 -0.3058 -0.0003
16793TIP3    H171794   5.493   1.849   4.348 -1.0456 -2.9171  1.8805
16793TIP3    H271795   5.346   1.847   4.312 -0.9269 -0.9704  1.1848
16794TIP3   OH271796   0.701   0.028  13.714  0.1954  0.6078 -0.4414
16794TIP3    H171797   0.629  -0.033  13.695  0.9208 -0.3484 -0.1977
16794TIP3    H271798   0.775  -0.007  13.665  1.2380 -0.0414  1.5042
16795TIP3   OH271799   3.526   0.064  12.881 -0.1108  0.3637  0.2615
16795TIP3    H171800   3.605   0.010  12.892 -0.6074 -0.4669 -0.1761
16795TIP3    H271801   3.473   0.044  12.958 -0.2324  0.3450  0.1728
16796TIP3   OH271802   0.833   5.643   1.057 -0.0303 -0.1394  0.0374
16796TIP3    H171803   0.825   5.702   0.982  0.3457 -0.5790 -0.3523
16796TIP3    H271804   0.924   5.614   1.054 -0.5264 -1.6975 -0.4942
16797TIP3   OH271805   6.405   1.345   4.267 -0.0727  0.1870  0.6395
16797TIP3    H171806   6.371   1.294   4.193  0.5793 -0.0182  0.4751
16797TIP3    H271807   6.410   1.435   4.234 -0.5216  0.2341  0.6913
16798TIP3   OH271808   3.886   6.617   4.900 -0.1640 -0.0933 -0.2691
16798TIP3    H171809   3.818   6.577   4.954  0.5503 -0.9100  0.0366
16798TIP3    H271810   3.924   6.545   4.849  1.1776  0.1468  0.3360
16799TIP3   OH271811   0.057   4.893  17.201  0.0529  0.3359 -0.5107
16799TIP3    H171812   0.047   4.939  17.285 -1.6728  1.4684 -1.2921
16799TIP3    H271813   0.052   4.962  17.135  1.7101 -0.5028 -1.5666
16800TIP3   OH271814   0.025   0.832  15.576  0.2014  0.2014 -0.0669
16800TIP3    H171815   0.043   0.926  15.577 -0.7819  0.4276  2.0898
16800TIP3    H271816   0.065   0.801  15.495 -0.5693  2.6880 -1.5146
16801TIP3   OH271817   4.336   3.413   0.090 -0.2074 -0.1781 -0.0092
16801TIP3    H171818   4.393   3.391   0.017 -0.9043  0.6818 -0.8440
16801TIP3    H271819   4.362   3.502   0.115 -0.8964  0.0716 -0.1410
16802TIP3   OH271820   6.726   2.848  11.286  0.2964  0.1420 -0.2765
16802TIP3    H171821   6.671   2.837  11.208  1.0128  0.4749 -0.8480
16802TIP3    H271822   6.801   2.790  11.271 -0.8174 -1.8933  1.4312
16803TIP3   OH271823   6.104   1.258   1.817 -0.6299  0.1324 -0.2997
16803TIP3    H171824   6.125   1.265   1.724 -0.5310 -0.2234 -0.3073
16803TIP3    H271825   6.116   1.346   1.851 -1.3239  0.4087 -0.7577
16804TIP3   OH271826   2.084   0.003  13.316  0.2067  0.6405 -0.1766
16804TIP3    H171827   2.111   0.090  13.345  0.8098  0.6290 -0.6816
16804TIP3    H271828   2.155  -0.055  13.344  0.9164  0.6564 -1.7996
16805TIP3   OH271829   4.735   6.299  13.261 -0.5263 -0.2500 -0.0325
16805TIP3    H171830   4.810   6.242  13.244  0.3273  1.3875 -2.1112
16805TIP3    H271831   4.660   6.250  13.227 -0.2088 -1.2368  0.6438
16806TIP3   OH271832   5.614   2.978  12.508  0.1542  0.1502 -0.3177
16806TIP3    H171833   5.598   2.887  12.485 -0.1866  0.6947 -2.3883
16806TIP3    H271834   5.560   3.029  12.448  0.5606  1.7362  0.5910
16807TIP3   OH271835   1.316   6.420  14.011 -0.0646  0.2255 -0.0423
16807TIP3    H171836   1.299   6.344  13.955 -2.2231  0.5127  0.1348
16807TIP3    H271837   1.354   6.485  13.953  1.0536 -0.6964 -0.3732
16808TIP3   OH271838   2.378   3.554   4.112 -0.2562  0.2916 -0.3472
16808TIP3    H171839   2.450   3.569   4.051 -2.4181  1.2906 -2.8156
16808TIP3    H271840   2.363   3.638   4.155  1.4790 -0.4824  2.0135
16809TIP3   OH271841   3.905   5.141  12.713  0.5861  0.1319  0.0501
16809TIP3    H171842   3.886   5.086  12.637 -0.3867  0.7346 -0.1623
16809TIP3    H271843   3.825   5.191  12.726 -0.0349 -1.3415  2.6637
16810TIP3   OH271844   0.330   4.046   2.240 -0.2872  0.0542  0.2506
16810TIP3    H171845   0.265   4.081   2.301  0.8284  0.1533  1.4270
16810TIP3    H271846   0.414   4.078   2.273  0.4220 -0.5112 -0.9221
16811TIP3   OH271847   0.721   0.499   3.313 -0.1032 -0.1180 -0.2661
16811TIP3    H171848   0.632   0.478   3.283 -0.3892 -0.5398  0.8418
16811TIP3    H271849   0.727   0.594   3.304 -0.2437 -0.1992 -1.4360
16812TIP3   OH271850   4.848   3.670   1.024 -0.3047  0.1528  0.7368
16812TIP3    H171851   4.782   3.738   1.018  1.1927  1.6696  0.8071
16812TIP3    H271852   4.928   3.710   0.991  0.7270 -1.4456  1.1570
16813TIP3   OH271853   0.370   0.680  12.799  0.0002 -0.3735 -0.3722
16813TIP3    H171854   0.400   0.749  12.740  0.0954 -0.6138 -0.6087
16813TIP3    H271855   0.294   0.642  12.756 -0.4499  0.0143  0.0715
16814TIP3   OH271856   2.554   4.064   0.581 -0.4508 -0.2369 -0.1650
16814TIP3    H171857   2.563   4.130   0.512  1.1002  0.3457  0.5248
16814TIP3    H271858   2.475   4.088   0.628 -0.1877  0.8433 -0.2500
16815TIP3   OH271859   6.455   4.037  12.429 -0.2981  0.2170  0.3986
16815TIP3    H171860   6.520   3.996  12.486 -0.3633  0.4328  0.6277
16815TIP3    H271861   6.503   4.107  12.385 -0.7691  1.5034  1.8383
16816TIP3   OH271862   4.993   4.307   0.314 -0.1624  0.0786  0.5000
16816TIP3    H171863   5.021   4.388   0.358  0.4436 -1.2612  2.7135
16816TIP3    H271864   4.898   4.318   0.303 -0.0743  1.1205  0.6354
16817TIP3   OH271865   3.716   1.616   6.924 -0.1589  0.0712  0.1741
16817TIP3    H171866   3.680   1.549   6.865  0.1157 -1.4090  1.6059
16817TIP3    H271867   3.751   1.566   6.997  4.4180  1.3581 -0.8101
16818TIP3   OH271868   6.521   5.638   5.851 -0.6357 -0.4814 -0.6074
16818TIP3    H171869   6.521   5.545   5.873  1.4887 -0.6522 -1.1349
16818TIP3    H271870   6.613   5.659   5.832 -0.9997  1.7987 -0.2101
16819TIP3   OH271871   5.307   6.349  15.783 -0.2332 -0.7277 -0.1328
16819TIP3    H171872   5.260   6.311  15.710  0.0320 -0.4508 -0.4559
16819TIP3    H271873   5.398   6.353  15.753 -0.2367  0.0550 -0.0787
16820TIP3   OH271874   4.339   0.466  15.727  0.0385  0.1276  0.2069
16820TIP3    H171875   4.364   0.434  15.814  1.4773  0.8106  0.0720
16820TIP3    H271876   4.366   0.397  15.667 -1.6313 -0.6789  0.3273
16821TIP3   OH271877   0.078   4.848   2.687 -0.3796  0.0495  0.2297
16821TIP3    H171878   0.028   4.924   2.655 -1.8222 -0.6539  0.7459
16821TIP3    H271879   0.140   4.829   2.616  0.2236  1.8689  0.2062
16822TIP3   OH271880   4.008   1.068   0.512  0.1325  0.0044  0.4587
16822TIP3    H171881   4.035   0.986   0.551  1.7145  0.0570 -0.4294
16822TIP3    H271882   4.038   1.062   0.421 -0.9591  1.0002  0.0083
16823TIP3   OH271883   5.145   3.508   4.749 -0.4700 -0.4709  0.6354
16823TIP3    H171884   5.145   3.479   4.840  0.9130 -0.6837  0.5921
16823TIP3    H271885   5.159   3.428   4.698  0.3859 -0.1427  0.3405
16824TIP3   OH271886   2.672   6.697   2.422 -0.0621  0.2595  0.1531
16824TIP3    H171887   2.709   6.727   2.339  1.9532  1.2427  1.3156
16824TIP3    H271888   2.613   6.626   2.398 -1.0040  1.7362 -2.2557
16825TIP3   OH271889   4.272   3.059   1.136 -0.1814  0.0037  0.3703
16825TIP3    H171890   4.361   3.078   1.108 -0.6877  1.4064 -0.4239
16825TIP3    H271891   4.276   3.060   1.232  0.5498  0.5939  0.3437
16826TIP3   OH271892   6.691   2.903  17.259 -0.1808  0.5994 -0.5152
16826TIP3    H171893   6.642   2.881  17.180  0.3459 -2.0589 -0.1847
16826TIP3    H271894   6.625   2.906  17.328 -0.4813  1.8488 -0.8153
16827TIP3   OH271895   5.045   5.667  11.266 -0.0741  0.1048 -0.0031
16827TIP3    H171896   5.119   5.695  11.212  1.0992  0.2748  1.6378
16827TIP3    H271897   5.056   5.714  11.349 -1.1211 -1.0661  0.8358
16828TIP3   OH271898   5.454   0.061   5.739  0.6963  0.6778 -0.0412
16828TIP3    H171899   5.365   0.077   5.708  0.2831 -0.8993  0.2529
16828TIP3    H271900   5.468   0.128   5.806  0.3533  1.9679 -1.2105
16829TIP3   OH271901   4.266   0.104  15.905 -0.0860 -0.1127 -0.7658
16829TIP3    H171902   4.307   0.107  15.819 -0.0227  2.0177 -0.7148
16829TIP3    H271903   4.273   0.194  15.938  0.6511 -1.0399  1.8271
16830TIP3   OH271904   2.027   2.718   4.167  0.6175 -0.2138 -0.5200
16830TIP3    H171905   2.086   2.777   4.119 -1.8358  1.4705 -1.6916
16830TIP3    H271906   2.008   2.648   4.105  0.9455 -0.4823 -0.3240
16831TIP3   OH271907   2.292   5.899  16.608 -0.3288 -0.2074 -0.1618
16831TIP3    H171908   2.203   5.919  16.579 -0.1381  1.4560  0.2567
16831TIP3    H271909   2.341   5.886  16.527 -0.9250 -1.0879 -0.3960
16832TIP3   OH271910   6.590   6.630  15.139  0.0450 -0.2351 -0.1424
16832TIP3    H171911   6.677   6.656  15.110  0.9093 -2.3103  0.3912
16832TIP3    H271912   6.585   6.656  15.231  0.4693 -0.9176  0.0795
16833TIP3   OH271913   6.040   0.872   1.987  0.1374 -0.0453  0.2953
16833TIP3    H171914   6.092   0.806   2.034 -1.5565 -1.4896  0.2439
16833TIP3    H271915   6.104   0.919   1.934  1.5626 -0.9412  1.1502
16834TIP3   OH271916   5.849   0.608   3.618  0.1455  0.3919  0.1393
16834TIP3    H171917   5.781   0.548   3.650  0.4320 -1.2750 -2.1044
16834TIP3    H271918   5.801   0.673   3.567 -0.1910  2.3743  2.7662
16835TIP3   OH271919   3.743   1.144  16.288 -0.3435 -0.1943  0.1807
16835TIP3    H171920   3.712   1.126  16.377  1.3159 -0.5717  0.7090
16835TIP3    H271921   3.780   1.232  16.293 -1.8832  0.5439 -0.6223
16836TIP3   OH271922   3.068   3.966   4.682  0.5065 -0.0069 -0.3622
16836TIP3    H171923   3.156   4.001   4.693  0.4698 -0.2021  0.6963
16836TIP3    H271924   3.074   3.905   4.610  0.6552  1.8860 -2.0454
16837TIP3   OH271925   3.940   6.715   2.386  0.3659  0.7477  0.3114
16837TIP3    H171926   3.981   6.715   2.473 -0.5703 -1.0704  0.8070
16837TIP3    H271927   3.933   6.807   2.363  0.6441  1.2765  2.1657
16838TIP3   OH271928   5.043   4.837   5.490  0.4498 -0.2404 -0.1446
16838TIP3    H171929   4.972   4.900   5.504  1.5831  1.2877 -0.9264
16838TIP3    H271930   5.070   4.812   5.578  0.5245  1.0319  0.2153
16839TIP3   OH271931   4.663   3.250  15.647 -0.2687 -0.7711 -0.1495
16839TIP3    H171932   4.756   3.270  15.635 -0.2691  0.1498  1.1873
16839TIP3    H271933   4.642   3.284  15.733 -2.0647 -0.2217 -0.7580
16840TIP3   OH271934   5.200   5.784  16.079  0.2590 -0.2689  0.0487
16840TIP3    H171935   5.164   5.847  16.141  0.0188 -1.1319  0.7961
16840TIP3    H271936   5.294   5.788  16.092  0.3396  0.7251 -0.6895
16841TIP3   OH271937   3.068   2.329   1.737  0.0967  0.2227  0.3359
16841TIP3    H171938   3.132   2.377   1.686 -0.5356  1.3245  0.5577
16841TIP3    H271939   3.101   2.331   1.827 -1.3668  2.9062  0.9201
16842TIP3   OH271940   2.225   4.872   1.208 -0.3746  0.5168  0.4214
16842TIP3    H171941   2.165   4.928   1.159 -0.7568 -0.9170 -0.8624
16842TIP3    H271942   2.312   4.900   1.182 -0.4878  1.8887  1.4463
16843TIP3   OH271943   6.175   3.398  12.800  0.3959 -0.6440  0.0055
16843TIP3    H171944   6.081   3.406  12.782  0.8433  3.4492 -1.6011
16843TIP3    H271945   6.188   3.445  12.882  1.1089 -1.1040  0.1663
16844TIP3   OH271946   5.269   2.272  10.658  0.0275 -0.2305 -0.1489
16844TIP3    H171947   5.283   2.344  10.597 -1.2418 -0.5658 -0.8491
16844TIP3    H271948   5.197   2.222  10.621  0.4320 -1.4803  0.6866
16845TIP3   OH271949   6.160   5.168  15.097 -0.4504  0.1082  0.0884
16845TIP3    H171950   6.197   5.088  15.136 -1.7873 -0.4135  0.3642
16845TIP3    H271951   6.234   5.228  15.090  0.1653 -0.3266  2.0504
16846TIP3   OH271952   5.952   5.041  14.130  0.1576 -0.5805  0.4422
16846TIP3    H171953   5.917   4.970  14.183  0.9778  0.0123  1.8424
16846TIP3    H271954   6.033   5.006  14.094 -0.4819 -1.0405 -0.6069
16847TIP3   OH271955   5.987   4.199  15.738  0.3309  0.5117  0.1424
16847TIP3    H171956   6.057   4.143  15.771  0.5855  0.4614 -0.4720
16847TIP3    H271957   6.026   4.247  15.665  0.3574  2.1066  1.1564
16848TIP3   OH271958   0.207   0.908   3.248 -0.5751  0.6044 -0.2101
16848TIP3    H171959   0.113   0.928   3.243 -0.6307  0.2958 -0.3852
16848TIP3    H271960   0.225   0.859   3.169 -0.5407 -0.4595  0.4449
16849TIP3   OH271961   0.280   0.429   0.653  0.0619 -0.2480 -0.2936
16849TIP3    H171962   0.195   0.472   0.649  0.2202  0.1959  0.7580
16849TIP3    H271963   0.261   0.337   0.633 -0.3110  0.2324 -2.3212
16850TIP3   OH271964   5.209   2.175   2.749 -0.0524 -0.1175 -0.4908
16850TIP3    H171965   5.125   2.174   2.796  0.1164 -0.1279 -0.1880
16850TIP3    H271966   5.207   2.255   2.696 -0.3609 -0.2479 -0.6827
16851TIP3   OH271967   0.177   1.466  15.277  0.0033  0.2806  0.0115
16851TIP3    H171968   0.087   1.493  15.295 -0.4074 -0.8625 -0.2355
16851TIP3    H271969   0.220   1.544  15.243 -0.7351  0.9888  0.6716
16852TIP3   OH271970   5.052   1.529  15.827 -0.4951 -0.1410  0.0135
16852TIP3    H171971   5.114   1.490  15.888 -0.7509 -1.4548 -0.5307
16852TIP3    H271972   5.043   1.620  15.856  0.0819 -0.4934  1.3611
16853TIP3   OH271973   2.218   5.422   5.155  0.2927  0.1526 -0.2352
16853TIP3    H171974   2.133   5.412   5.198 -0.3781  0.1579 -1.5142
16853TIP3    H271975   2.208   5.500   5.100  1.3946  0.6201  0.2041
16854TIP3   OH271976   3.578   5.286  10.769 -0.2233 -0.1095 -0.0587
16854TIP3    H171977   3.513   5.335  10.720  0.5229  0.5962 -0.3631
16854TIP3    H271978   3.656   5.340  10.767  0.5064 -1.1266 -0.0491
16855TIP3   OH271979   4.961   5.537  12.356  0.2225  0.0361 -0.0301
16855TIP3    H171980   4.883   5.549  12.410  0.1331 -3.6445  0.9619
16855TIP3    H271981   4.932   5.555  12.266 -0.9076  1.6518  0.6242
16856TIP3   OH271982   6.690   5.291  10.679  0.0404  0.0477 -0.3396
16856TIP3    H171983   6.650   5.271  10.594 -1.4073  1.6481 -0.0852
16856TIP3    H271984   6.735   5.374  10.665  0.9405 -0.3531  0.1295
16857TIP3   OH271985   1.380   4.951  16.876 -0.3724 -0.1654 -0.7078
16857TIP3    H171986   1.450   4.887  16.869  0.7510  1.0019 -0.5555
16857TIP3    H271987   1.313   4.909  16.930  0.5727 -0.9813 -0.1533
16858TIP3   OH271988   1.335   4.904  15.728 -0.6565  0.3307 -0.4281
16858TIP3    H171989   1.283   4.859  15.661 -0.3462 -0.7645  0.0408
16858TIP3    H271990   1.393   4.962  15.678 -1.2964  0.4654 -1.0343
16859TIP3   OH271991   0.947   2.278   1.063 -0.1957 -0.4772 -0.0142
16859TIP3    H171992   1.012   2.301   1.130 -0.6562  2.2236 -0.3617
16859TIP3    H271993   0.864   2.307   1.100 -1.0689 -2.6907 -0.1262
16860TIP3   OH271994   3.772   5.958  16.581 -0.2628  0.1996  0.1815
16860TIP3    H171995   3.722   6.020  16.528  0.5898  1.2982  0.6094
16860TIP3    H271996   3.714   5.882  16.591 -0.2517 -0.3013 -2.7307
16861TIP3   OH271997   3.148   0.124  13.213  0.4320  0.2258  0.2161
16861TIP3    H171998   3.226   0.167  13.177  1.0505 -0.7797  0.3141
16861TIP3    H271999   3.079   0.141  13.148  1.2306 -0.5470 -0.8742
16862TIP3   OH272000   2.345   5.120   1.709  0.1287 -0.5024 -0.1333
16862TIP3    H172001   2.432   5.138   1.674 -0.1088 -0.5836 -0.7651
16862TIP3    H272002   2.297   5.080   1.637 -0.7911  0.5605 -0.1416
16863TIP3   OH272003   5.355   4.403  16.452  0.7804  0.4532 -0.7997
16863TIP3    H172004   5.265   4.436  16.459  0.0563 -1.2718 -1.5140
16863TIP3    H272005   5.375   4.370  16.539  0.6542  0.6270 -0.7033
16864TIP3   OH272006   4.470   5.160   3.162  0.4340 -1.0262  0.3212
16864TIP3    H172007   4.563   5.141   3.152  0.1970 -1.7179 -0.6688
16864TIP3    H272008   4.435   5.085   3.210  0.3714 -0.8000  0.6317
16865TIP3   OH272009   3.844   1.984   5.066  0.2856  0.3077 -0.2469
16865TIP3    H172010   3.798   2.068   5.060 -0.4903 -0.1079 -0.2431
16865TIP3    H272011   3.812   1.945   5.148  1.7304  0.6281  0.5160
16866TIP3   OH272012   3.799   4.755   5.827  0.4570  0.3409 -0.5684
16866TIP3    H172013   3.760   4.668   5.834 -2.5031  1.5462 -0.5099
16866TIP3    H272014   3.874   4.744   5.769  1.4794 -2.5880  1.0937
16867TIP3   OH272015   4.648   4.374   2.407 -0.3296  0.4555  0.3503
16867TIP3    H172016   4.710   4.391   2.477  0.5132  0.1973 -0.3222
16867TIP3    H272017   4.591   4.305   2.441 -0.2276  0.6627  0.9505
16868TIP3   OH272018   1.762   4.828   4.685  0.5267  0.6840  0.1004
16868TIP3    H172019   1.852   4.858   4.669  0.4759  0.3435 -0.8344
16868TIP3    H272020   1.708   4.907   4.673  0.3624  0.2562 -2.6277
16869TIP3   OH272021   5.765   5.718   3.690 -0.2038  0.4299  0.4980
16869TIP3    H172022   5.708   5.778   3.740  0.0039  0.5701  0.5686
16869TIP3    H272023   5.795   5.770   3.616 -0.7706  0.1204  0.0413
16870TIP3   OH272024   0.292   6.261  11.720  0.2077 -0.7490 -0.3566
16870TIP3    H172025   0.370   6.212  11.697  2.2386  0.4982  3.0720
16870TIP3    H272026   0.300   6.344  11.672  1.2504 -0.4765  0.2630
16871TIP3   OH272027   6.619   5.609   1.693  0.4572  0.5338 -0.3640
16871TIP3    H172028   6.574   5.550   1.633  0.6846  0.5051 -0.5090
16871TIP3    H272029   6.654   5.552   1.762  0.1435  0.5741 -0.1700
16872TIP3   OH272030   0.850   3.706  10.737  0.0237  0.1293 -0.0600
16872TIP3    H172031   0.774   3.727  10.791 -1.6666 -2.1600 -1.3623
16872TIP3    H272032   0.831   3.619  10.702  2.1637  0.4913 -2.3819
16873TIP3   OH272033   5.456   6.433  15.509 -0.3415 -0.1853  0.0512
16873TIP3    H172034   5.492   6.445  15.422 -0.4145 -0.1822  0.0212
16873TIP3    H272035   5.530   6.445  15.568 -0.6660  1.9624  0.1192
16874TIP3   OH272036   6.048   3.186   2.122 -0.4193 -0.0605 -0.6423
16874TIP3    H172037   6.039   3.091   2.117 -0.8286 -0.0375 -0.4194
16874TIP3    H272038   5.988   3.220   2.055 -0.5711  0.0467 -0.4561
16875TIP3   OH272039   0.497   4.312  15.515  0.0392 -0.4818 -0.5980
16875TIP3    H172040   0.566   4.359  15.469  3.1611 -2.0065  2.1639
16875TIP3    H272041   0.486   4.359  15.597 -0.1784 -1.8429  0.1797
16876TIP3   OH272042   3.358   0.827   2.981  0.4071  0.2237  0.4769
16876TIP3    H172043   3.342   0.904   2.927 -1.8449  1.2081  2.3998
16876TIP3    H272044   3.453   0.823   2.989  0.6386  2.0245 -0.7569
16877TIP3   OH272045   6.455   0.162  14.316 -0.5092  0.0021  0.1303
16877TIP3    H172046   6.416   0.089  14.363 -0.3195 -0.0946  0.1395
16877TIP3    H272047   6.466   0.129  14.226  2.8955 -1.3012  0.8809
16878TIP3   OH272048   4.061   6.678  14.463 -0.2203  0.2102  0.0793
16878TIP3    H172049   4.089   6.587  14.474 -1.4108  0.0115  1.9732
16878TIP3    H272050   3.997   6.675  14.392  0.7403 -0.1818 -0.7861
16879TIP3   OH272051   5.108   2.259  15.475  0.3623  0.2204 -1.3270
16879TIP3    H172052   5.198   2.276  15.505  0.5236 -0.6155 -1.3106
16879TIP3    H272053   5.076   2.345  15.446  0.8750  0.6814 -0.5662
16880TIP3   OH272054   0.003   3.485  15.455 -0.0354 -0.5250  0.3920
16880TIP3    H172055   0.060   3.529  15.519  1.9716 -2.4843  0.0667
16880TIP3    H272056  -0.048   3.424  15.507 -0.8645  0.2331  0.4975
16881TIP3   OH272057   0.720   3.047   0.251 -0.2290  0.3763  0.1048
16881TIP3    H172058   0.682   3.110   0.190  0.9881  1.6911  0.6344
16881TIP3    H272059   0.715   3.090   0.336 -2.0465 -1.4942  1.0241
16882TIP3   OH272060   0.622   1.050  16.997  0.0828 -0.0181  0.3199
16882TIP3    H172061   0.594   1.139  17.018  0.2136 -0.3012  1.7426
16882TIP3    H272062   0.713   1.060  16.970 -0.0648  0.3349 -0.0730
16883TIP3   OH272063   5.112   2.759  13.478  0.3549  0.2226  0.0507
16883TIP3    H172064   5.055   2.727  13.547  0.6170 -0.4799 -0.0438
16883TIP3    H272065   5.118   2.853  13.492 -0.6830  0.2793  0.1594
16884TIP3   OH272066   5.513   3.096  13.980 -0.0703 -0.0247 -0.1239
16884TIP3    H172067   5.533   3.056  13.896  0.9996 -1.8381  0.9252
16884TIP3    H272068   5.560   3.179  13.980 -1.9625  1.1491 -2.1791
16885TIP3   OH272069   5.232   1.077  15.996 -0.3492 -0.6276  0.5126
16885TIP3    H172070   5.325   1.062  15.976  0.0716  0.2236  1.7340
16885TIP3    H272071   5.231   1.106  16.087 -1.8447 -0.8212  0.5828
16886TIP3   OH272072   4.086   6.586   5.145  0.5519 -0.1480  0.4565
16886TIP3    H172073   4.002   6.624   5.171 -0.0008 -1.2881  0.3860
16886TIP3    H272074   4.089   6.596   5.050  0.6962  0.2687  0.5012
16887TIP3   OH272075   4.980   1.723   6.690  0.1808 -0.3915  0.8459
16887TIP3    H172076   4.915   1.654   6.675  0.3021 -0.4763  0.7025
16887TIP3    H272077   5.064   1.680   6.674  0.2567 -0.2109  0.7554
16888TIP3   OH272078   4.082   3.099  14.175  0.6307 -0.4941  0.0256
16888TIP3    H172079   3.989   3.104  14.199  0.0553  0.7896 -2.2237
16888TIP3    H272080   4.128   3.113  14.257 -1.1156 -2.0545  1.3777
16889TIP3   OH272081   1.899   3.011   0.135 -0.9721  0.2205 -0.4256
16889TIP3    H172082   1.841   2.955   0.187 -1.5475  1.0340 -0.1611
16889TIP3    H272083   1.844   3.040   0.062 -0.0372 -1.2832 -1.7982
16890TIP3   OH272084   3.321   2.010   6.503  0.2007  0.3900 -0.1161
16890TIP3    H172085   3.405   2.052   6.488  0.4633 -0.6374 -1.8459
16890TIP3    H272086   3.314   1.945   6.433 -1.2734 -0.7286  0.9906
16891TIP3   OH272087   4.795   6.737  14.209 -0.3444  0.0020 -0.2513
16891TIP3    H172088   4.743   6.789  14.149  0.1164  0.0148 -0.6456
16891TIP3    H272089   4.745   6.736  14.291  0.6827  2.9810  0.5298
16892TIP3   OH272090   2.537   0.079   3.331 -0.3756 -0.1097  0.3591
16892TIP3    H172091   2.576  -0.003   3.302  1.4069  0.9974 -0.6018
16892TIP3    H272092   2.450   0.080   3.293 -0.1591 -1.2430 -0.1853
16893TIP3   OH272093   4.477   6.084  17.055 -0.2046  0.2217  0.0668
16893TIP3    H172094   4.543   6.017  17.037 -0.7130 -0.5018  0.7903
16893TIP3    H272095   4.522   6.167  17.043  0.9893 -0.2588  1.0460
16894TIP3   OH272096   0.180   2.444   2.643 -0.0176  0.0976 -0.5776
16894TIP3    H172097   0.234   2.432   2.721 -1.4452  0.5411  0.5321
16894TIP3    H272098   0.095   2.407   2.668 -0.1253 -1.0196 -2.4256
16895TIP3   OH272099   2.968   1.838  16.241  0.3945  0.3593  0.2337
16895TIP3    H172100   3.003   1.893  16.170 -0.0193 -0.0781 -0.3149
16895TIP3    H272101   2.955   1.899  16.314  2.0599  0.5799  0.3779
16896TIP3   OH272102   1.170   0.856  14.290  0.1711  0.3001 -0.1742
16896TIP3    H172103   1.193   0.907  14.213  0.6941 -0.0724 -0.2660
16896TIP3    H272104   1.220   0.895  14.362  0.7367 -0.2137 -0.2854
16897TIP3   OH272105   4.615   3.631   4.649  0.5769 -0.3357  0.0292
16897TIP3    H172106   4.682   3.689   4.612  0.3944  0.2697  0.6231
16897TIP3    H272107   4.654   3.544   4.645  1.4419  0.0209  0.4443
16898TIP3   OH272108   1.017   1.426   5.119  0.4242  0.3025 -0.0252
16898TIP3    H172109   1.029   1.333   5.135  0.5535 -0.0610 -1.9355
16898TIP3    H272110   0.922   1.436   5.110  0.4635  0.1730 -0.6598
16899TIP3   OH272111   0.688   6.732  16.270  0.1806  0.0868 -0.7200
16899TIP3    H172112   0.631   6.778  16.208 -1.9291 -3.1132 -1.3800
16899TIP3    H272113   0.736   6.669  16.217 -1.5418 -2.6150  0.7029
16900TIP3   OH272114   4.799   0.898  14.939 -0.1515  0.0471  0.2438
16900TIP3    H172115   4.868   0.862  14.995  1.3545  1.3097 -0.7192
16900TIP3    H272116   4.762   0.822  14.895  2.4472 -0.5249 -1.2046
16901TIP3   OH272117   2.911   1.504  16.297  0.4665 -0.4139  0.0973
16901TIP3    H172118   2.965   1.578  16.322  0.7038 -0.7718  0.6612
16901TIP3    H272119   2.936   1.434  16.358 -1.6218 -0.1735  1.3159
16902TIP3   OH272120   0.073   4.192   0.439 -0.4664  0.8112  0.5271
16902TIP3    H172121   0.129   4.266   0.462 -0.7608  1.7051 -1.3573
16902TIP3    H272122  -0.002   4.199   0.497  1.0164 -0.0393  2.6589
16903TIP3   OH272123   2.389   0.343   2.847 -0.3032 -0.3555  0.0535
16903TIP3    H172124   2.483   0.325   2.846  0.3149  2.2228  1.9309
16903TIP3    H272125   2.353   0.286   2.779  2.5546 -1.6258 -0.5361
16904TIP3   OH272126   3.769   2.367   0.329  0.6611 -0.1437  0.4926
16904TIP3    H172127   3.694   2.406   0.373  0.6959  0.4539  0.0382
16904TIP3    H272128   3.732   2.309   0.263  0.5152  1.4763 -0.9578
16905TIP3   OH272129   3.031   0.318  15.085 -0.3707  0.6417 -0.0672
16905TIP3    H172130   3.042   0.283  14.996  2.2669 -1.0505  0.7975
16905TIP3    H272131   3.095   0.389  15.091 -1.2514  1.4325  0.2034
16906TIP3   OH272132   5.890   4.882  14.784  0.0073 -0.4438 -0.4474
16906TIP3    H172133   5.797   4.869  14.766 -0.4833 -0.1267  1.5509
16906TIP3    H272134   5.923   4.932  14.710 -1.2227 -1.2052 -1.5500
16907TIP3   OH272135   3.362   6.055  15.909 -0.5910 -0.1646 -0.6312
16907TIP3    H172136   3.276   6.042  15.950 -0.4628  0.6720 -0.0685
16907TIP3    H272137   3.382   5.971  15.867 -1.9496 -0.1872 -1.2842
16908TIP3   OH272138   2.308   1.991   2.004 -0.0170 -0.1499 -0.0430
16908TIP3    H172139   2.364   1.977   2.080 -0.5651  0.8146  0.5642
16908TIP3    H272140   2.350   1.941   1.934  0.8195 -0.5836  0.7398
16909TIP3   OH272141   5.694   2.851  13.514  0.3168  0.4655 -0.3507
16909TIP3    H172142   5.694   2.773  13.569  0.6654  0.2877 -0.5965
16909TIP3    H272143   5.752   2.828  13.440  0.7921  1.1148 -0.1882
16910TIP3   OH272144   5.036   4.981   4.147  0.5902 -0.0679  0.2257
16910TIP3    H172145   4.973   5.022   4.206  1.4432  0.9214  0.4727
16910TIP3    H272146   5.120   4.986   4.194  1.2685  0.6725 -1.0246
16911TIP3   OH272147   4.150   2.597   4.943  0.0692 -0.2187 -0.4561
16911TIP3    H172148   4.152   2.652   4.865  0.2650 -0.2194 -0.4517
16911TIP3    H272149   4.077   2.632   4.995  0.7407  0.6062 -0.0422
16912TIP3   OH272150   3.060   1.695  11.570  0.1166 -0.6709 -0.4180
16912TIP3    H172151   3.069   1.728  11.481  0.2388  0.9046  0.1484
16912TIP3    H272152   2.966   1.680  11.582 -0.1145  0.7777 -0.2695
16913TIP3   OH272153   0.096   0.527   5.363  0.0854  0.4433  0.1807
16913TIP3    H172154   0.081   0.474   5.285  0.7989 -1.1980  1.0993
16913TIP3    H272155   0.011   0.528   5.408  0.5045 -1.8542  1.2287
16914TIP3   OH272156   6.425   6.216  12.212  0.6032 -0.2317 -0.1587
16914TIP3    H172157   6.394   6.156  12.280  0.1654  1.7888  1.5425
16914TIP3    H272158   6.347   6.264  12.186  1.2332  0.7900 -0.1960
16915TIP3   OH272159   4.949   5.753   6.129 -0.0889  0.2200  0.4217
16915TIP3    H172160   5.002   5.821   6.087  3.0962 -1.0930  1.9872
16915TIP3    H272161   4.923   5.791   6.213  1.4876 -0.3196  1.1921
16916TIP3   OH272162   1.121   1.377  15.141  0.0971  0.0752  0.7571
16916TIP3    H172163   1.108   1.284  15.121  0.0373  0.3014 -0.3027
16916TIP3    H272164   1.131   1.418  15.056  0.1806  1.0390  1.2275
16917TIP3   OH272165   3.493   1.767   1.527  0.4929  0.6560  0.2748
16917TIP3    H172166   3.581   1.777   1.492  0.8511  0.8447  1.2033
16917TIP3    H272167   3.449   1.849   1.505  0.7949  0.8754  0.4803
16918TIP3   OH272168   4.166   4.769  16.951 -0.1182 -0.1468 -0.2462
16918TIP3    H172169   4.256   4.794  16.970 -0.2005  2.5111 -2.5761
16918TIP3    H272170   4.173   4.687  16.903  1.2692  0.7088 -1.6217
16919TIP3   OH272171   5.584   5.361  12.429 -0.2033 -0.7055  0.2551
16919TIP3    H172172   5.647   5.428  12.403 -1.2755  0.2450  0.0649
16919TIP3    H272173   5.595   5.291  12.364 -0.9680  0.4699 -1.1831
16920TIP3   OH272174   0.483   4.550   2.981 -0.1814 -0.5624 -0.0933
16920TIP3    H172175   0.530   4.519   3.058  1.0909 -2.1448 -1.4227
16920TIP3    H272176   0.459   4.640   3.001  1.2524 -0.5259  1.6195
16921TIP3   OH272177   4.911   0.294   2.895  0.5349  0.0826  0.2426
16921TIP3    H172178   4.828   0.323   2.933  0.4304 -1.9030  1.7501
16921TIP3    H272179   4.977   0.320   2.960  0.7366 -0.6795  0.3535
16922TIP3   OH272180   5.661   2.253  14.511 -0.3158  0.2347 -0.4170
16922TIP3    H172181   5.617   2.177  14.472  1.5174 -0.0831 -1.9816
16922TIP3    H272182   5.615   2.267  14.594 -0.9605 -2.3361 -0.2627
16923TIP3   OH272183   4.127   3.836  10.550  0.5372  0.8276  0.1777
16923TIP3    H172184   4.114   3.877  10.465 -2.1499 -3.4075 -1.7745
16923TIP3    H272185   4.060   3.874  10.606  0.0269  1.1688 -0.6519
16924TIP3   OH272186   5.916   2.238   1.393 -0.3075  0.4429 -0.2701
16924TIP3    H172187   5.990   2.232   1.333  0.3493 -1.8062  0.6730
16924TIP3    H272188   5.845   2.193   1.348  0.1089 -1.0058  0.4573
16925TIP3   OH272189   2.250   4.217  11.276  0.0870 -0.1956 -0.4886
16925TIP3    H172190   2.264   4.188  11.186 -2.1927  1.9104 -1.6480
16925TIP3    H272191   2.166   4.263  11.273  0.1837  0.3808  2.6373
16926TIP3   OH272192   0.371   3.150  16.390 -0.3322 -0.3058  0.2462
16926TIP3    H172193   0.346   3.231  16.345  0.0546  0.8670  2.0464
16926TIP3    H272194   0.459   3.131  16.358  0.3004  1.0174  1.0966
16927TIP3   OH272195   1.566   0.273  12.493  0.4473  0.5768 -0.3231
16927TIP3    H172196   1.559   0.347  12.433 -1.5021  1.8980  1.4029
16927TIP3    H272197   1.586   0.312  12.578  0.6612 -1.0206  0.4084
16928TIP3   OH272198   6.325   5.134  12.966 -0.2327 -0.4146  0.0533
16928TIP3    H172199   6.359   5.223  12.964 -0.8964 -0.1637 -1.1268
16928TIP3    H272200   6.253   5.137  13.029  0.2682 -0.3222  0.6284
16929TIP3   OH272201   2.938   6.049   2.977  0.2623 -0.7408  0.0428
16929TIP3    H172202   2.927   6.095   2.893  0.5525 -0.5680  0.0985
16929TIP3    H272203   2.944   6.118   3.042  0.0558 -0.8755  0.2076
16930TIP3   OH272204   2.355   0.801   3.405 -0.6289  0.2400 -0.0387
16930TIP3    H172205   2.306   0.752   3.471 -0.8697  0.6261  0.0762
16930TIP3    H272206   2.289   0.829   3.342 -0.8863  2.2725  1.0309
16931TIP3   OH272207   1.739   0.431  15.188  0.5616  0.1624 -0.1044
16931TIP3    H172208   1.723   0.336  15.186 -1.6343  0.4362  0.7280
16931TIP3    H272209   1.703   0.459  15.273  3.6821  1.4162  0.9646
16932TIP3   OH272210   5.848   3.875   1.700 -0.0729  0.6180 -0.4144
16932TIP3    H172211   5.825   3.815   1.628 -0.0246  0.3940 -0.2451
16932TIP3    H272212   5.777   3.939   1.702  0.4966  1.3133 -1.4153
16933TIP3   OH272213   3.974   3.551   5.341 -0.2714 -0.0812 -0.0102
16933TIP3    H172214   3.991   3.613   5.412 -0.8603  0.6804 -0.5130
16933TIP3    H272215   3.956   3.468   5.385  0.6303  0.0708  0.6671
16934TIP3   OH272216   3.580   4.929  12.627 -0.4031  0.7276 -0.2550
16934TIP3    H172217   3.669   4.935  12.591 -0.2617 -0.7561 -0.2206
16934TIP3    H272218   3.523   4.948  12.554 -0.0680  0.7920 -0.5039
16935TIP3   OH272219   1.304   3.359   5.879 -0.0317 -0.6717  0.4695
16935TIP3    H172220   1.357   3.308   5.941  0.4734 -0.7948 -0.0515
16935TIP3    H272221   1.238   3.402   5.934  1.5226  0.7074  1.3504
16936TIP3   OH272222   5.081   6.120   6.236 -0.0032 -0.0033  0.1577
16936TIP3    H172223   5.118   6.074   6.311 -0.0046  1.2283  0.9439
16936TIP3    H272224   4.986   6.112   6.248 -0.0289  1.2468  1.0051
16937TIP3   OH272225   3.182   4.917  14.362 -0.0911  0.5124  0.0551
16937TIP3    H172226   3.157   4.963  14.282  0.6135  1.9054  0.5863
16937TIP3    H272227   3.100   4.903  14.409 -0.7254 -1.7767 -1.5860
16938TIP3   OH272228   0.015   5.265   0.338  0.3125 -0.4016 -0.1231
16938TIP3    H172229   0.104   5.261   0.373  0.6161 -0.0759 -0.8520
16938TIP3    H272230  -0.008   5.358   0.340  1.0813 -0.1017 -2.5982
16939TIP3   OH272231   6.710   2.476  13.410  0.3568 -0.5173  0.1246
16939TIP3    H172232   6.627   2.498  13.369  0.2840  1.1602  1.0376
16939TIP3    H272233   6.744   2.561  13.441  1.3209 -1.4284  1.7246
16940TIP3   OH272234   2.373   0.046   1.855 -0.2515  0.3913  0.1195
16940TIP3    H172235   2.407  -0.026   1.907 -0.8281  0.7577  1.0274
16940TIP3    H272236   2.285   0.017   1.829  0.4886 -0.3247 -1.7510
16941TIP3   OH272237   1.083   4.337  12.474 -0.1264  0.5569 -0.0905
16941TIP3    H172238   1.075   4.263  12.414 -0.6386  0.3592  0.2168
16941TIP3    H272239   1.177   4.343  12.491 -0.1101 -0.2897  0.2042
16942TIP3   OH272240   3.265   4.370   4.010 -0.4724  0.6848  0.7782
16942TIP3    H172241   3.353   4.387   4.046  0.2974 -2.3570  0.6146
16942TIP3    H272242   3.213   4.344   4.086 -0.7810  0.8979  0.6397
16943TIP3   OH272243   3.784   5.914  16.180  0.8715 -0.1784 -0.0661
16943TIP3    H172244   3.705   5.865  16.157  1.2027 -0.7431 -0.0117
16943TIP3    H272245   3.752   5.999  16.208  0.1121 -1.1271  2.1009
16944TIP3   OH272246   4.431   3.294   2.071 -0.4499  0.3628 -0.2931
16944TIP3    H172247   4.411   3.214   2.023 -0.8673  0.3298 -0.0666
16944TIP3    H272248   4.523   3.311   2.051  0.1751 -1.1796  1.1246
16945TIP3   OH272249   1.915   3.255   5.112  0.2994 -0.7052  0.7036
16945TIP3    H172250   1.849   3.225   5.174  1.2306 -0.3490  1.9072
16945TIP3    H272251   1.864   3.287   5.037 -0.8260 -1.6920  1.0166
16946TIP3   OH272252   0.629   2.690   4.422  0.4750  0.1703 -0.3850
16946TIP3    H172253   0.541   2.710   4.453  0.7963  1.9090 -0.5225
16946TIP3    H272254   0.669   2.640   4.493 -0.6035 -0.6385 -0.3222
16947TIP3   OH272255   5.637   3.769   3.974  0.1210 -0.3300  0.7718
16947TIP3    H172256   5.647   3.695   3.914 -0.2435  0.3848 -0.1936
16947TIP3    H272257   5.725   3.786   4.006  0.3927 -0.4527  0.1031
16948TIP3   OH272258   6.720   3.102  10.965  0.4368 -0.4613  0.1119
16948TIP3    H172259   6.644   3.159  10.977  0.5782 -0.5360  1.4605
16948TIP3    H272260   6.757   3.130  10.881 -2.0514 -1.6053 -1.4967
16949TIP3   OH272261   5.959   5.815   5.110  0.4241  0.4299 -0.3454
16949TIP3    H172262   6.006   5.737   5.138  0.9390  0.9169  0.1965
16949TIP3    H272263   5.912   5.845   5.188 -0.2569  0.3249 -0.7078
16950TIP3   OH272264   4.226   2.182  16.124 -0.0564 -0.3098 -0.2435
16950TIP3    H172265   4.148   2.234  16.139  0.6305  0.2635  1.6204
16950TIP3    H272266   4.194   2.091  16.120 -0.7307 -0.1930  1.6221
16951TIP3   OH272267   1.081   4.447   3.438 -0.1053 -0.3271 -0.3310
16951TIP3    H172268   1.170   4.422   3.465  0.5462  0.3129 -1.7767
16951TIP3    H272269   1.046   4.368   3.397  0.0460 -0.3807 -0.3603
16952TIP3   OH272270   0.851   0.527   1.519  0.2388  0.4458  0.4885
16952TIP3    H172271   0.853   0.614   1.559  1.5111  0.8270 -0.3463
16952TIP3    H272272   0.933   0.486   1.547 -0.0612 -0.2489  0.3688
16953TIP3   OH272273   4.873   6.506   3.141  0.2327  0.0025 -1.2952
16953TIP3    H172274   4.928   6.575   3.178  0.6662 -0.9342 -0.1462
16953TIP3    H272275   4.932   6.455   3.085  0.4948 -0.8357 -0.2812
16954TIP3   OH272276   1.606   3.427   6.700 -0.3299  0.4904  0.4529
16954TIP3    H172277   1.615   3.456   6.610  0.3828 -1.6369 -0.2371
16954TIP3    H272278   1.696   3.413   6.730 -0.5822 -1.5226  0.4651
16955TIP3   OH272279   4.836   2.745  17.262 -0.4414 -0.6414  0.5289
16955TIP3    H172280   4.808   2.826  17.219 -3.5480 -1.3929  0.8593
16955TIP3    H272281   4.890   2.774  17.336 -0.4721  1.0522 -0.0780
16956TIP3   OH272282   0.967   0.865   3.429 -0.4927 -0.1350  0.3714
16956TIP3    H172283   0.881   0.835   3.457  0.2807 -1.1891  1.7465
16956TIP3    H272284   0.987   0.813   3.351 -1.0363  0.0191  0.1256
16957TIP3   OH272285   0.102   1.375   4.606 -0.8570 -0.7127 -0.4519
16957TIP3    H172286   0.107   1.436   4.532 -0.9394 -2.1676 -1.7224
16957TIP3    H272287   0.193   1.363   4.633 -0.7919 -0.4251 -0.5395
16958TIP3   OH272288   6.629   3.814   3.274 -0.3535 -0.0242 -0.1062
16958TIP3    H172289   6.703   3.824   3.335 -1.3660  0.8340  1.0324
16958TIP3    H272290   6.670   3.798   3.189  1.1069 -2.0665  0.9085
16959TIP3   OH272291   4.601   3.735   5.233  0.4350 -0.5999 -0.6471
16959TIP3    H172292   4.649   3.795   5.176  0.2319  0.9615  0.7500
16959TIP3    H272293   4.510   3.767   5.229 -0.4442 -3.0687 -2.6968
16960TIP3   OH272294   5.638   3.405   1.722  0.3083  0.1231  0.2279
16960TIP3    H172295   5.707   3.416   1.657 -0.1327 -0.5220 -0.3598
16960TIP3    H272296   5.602   3.318   1.705  0.9759 -0.5797  2.0920
16961TIP3   OH272297   3.121   5.999  15.641 -0.2916 -0.3080 -0.2300
16961TIP3    H172298   3.047   5.952  15.680 -0.8129  0.7401  0.0760
16961TIP3    H272299   3.080   6.065  15.586  0.4148  0.5869  0.2998
16962TIP3   OH272300   0.464   0.248  12.602 -0.3761  0.8246  0.3012
16962TIP3    H172301   0.481   0.244  12.507  1.6142  0.2723  0.6343
16962TIP3    H272302   0.518   0.178  12.638 -0.1103  1.8668  1.9865
16963TIP3   OH272303   3.775   6.310  13.886  0.0105  0.4130 -0.4090
16963TIP3    H172304   3.755   6.345  13.799 -0.1441  0.7413 -0.2434
16963TIP3    H272305   3.801   6.219  13.869 -2.2333 -0.2575 -0.5975
16964TIP3   OH272306   5.757   6.372  11.840 -0.5029  0.1336  0.1267
16964TIP3    H172307   5.781   6.448  11.894  2.6070 -0.7471  0.1779
16964TIP3    H272308   5.836   6.353  11.790 -1.9348 -1.7401 -1.5601
16965TIP3   OH272309   4.012   4.001  14.168  0.5523  0.2165  0.4067
16965TIP3    H172310   4.044   3.911  14.157  0.4918  0.4994 -3.8251
16965TIP3    H272311   4.011   4.037  14.079 -2.8213  3.2725  1.4385
16966TIP3   OH272312   1.591   4.157  11.720  0.2003  0.1274 -0.4689
16966TIP3    H172313   1.657   4.106  11.673 -0.8407 -1.1670 -0.5741
16966TIP3    H272314   1.607   4.138  11.813  0.5853  0.6050 -0.4312
16967TIP3   OH272315   2.148   0.641   6.384  0.3315 -0.0479 -0.9752
16967TIP3    H172316   2.158   0.562   6.437 -1.4840 -1.9592 -3.2613
16967TIP3    H272317   2.221   0.640   6.324  2.2900  2.0294  1.1532
16968TIP3   OH272318   1.735   1.032   5.852 -0.6060 -0.0915  0.3861
16968TIP3    H172319   1.705   1.105   5.907 -2.1396 -0.8487  0.6061
16968TIP3    H272320   1.655   0.998   5.812  0.0969 -1.5903  0.2093
16969TIP3   OH272321   2.803   3.827   0.024 -0.0747  0.2833  0.2848
16969TIP3    H172322   2.791   3.785  -0.062 -1.7509  1.2431 -0.0065
16969TIP3    H272323   2.895   3.854   0.025 -0.0359  0.3004 -1.2400
16970TIP3   OH272324   4.338   4.580   0.904 -0.5919 -0.0063  0.5512
16970TIP3    H172325   4.380   4.616   0.983  1.8209 -1.0910 -0.1211
16970TIP3    H272326   4.330   4.654   0.845  3.1575 -0.1272 -0.3533
16971TIP3   OH272327   4.310   3.544  11.930  0.4900 -0.2051  0.9179
16971TIP3    H172328   4.371   3.537  11.857 -1.1693 -0.5205 -0.5082
16971TIP3    H272329   4.303   3.638  11.947 -2.2548  0.3214 -2.2268
16972TIP3   OH272330   0.379   1.230   1.764 -0.4849 -0.5900  0.7759
16972TIP3    H172331   0.348   1.234   1.854  0.5990  1.5082  1.1356
16972TIP3    H272332   0.462   1.182   1.769 -0.3834 -0.4034  0.9364
16973TIP3   OH272333   0.491   2.438   5.931  0.0091 -0.1169 -0.5224
16973TIP3    H172334   0.433   2.506   5.964  1.6094  1.3634 -0.5913
16973TIP3    H272335   0.513   2.385   6.008 -0.5147  0.0039 -0.2836
16974TIP3   OH272336   6.606   5.027   3.459  0.2400  0.6994 -0.7154
16974TIP3    H172337   6.638   4.992   3.375  0.2067  0.2316 -0.5354
16974TIP3    H272338   6.653   4.977   3.525  0.5229  1.3050 -0.4491
16975TIP3   OH272339   1.139   4.621  13.829 -0.1455 -0.0414 -0.3828
16975TIP3    H172340   1.065   4.675  13.800 -0.8141 -2.0505 -2.7852
16975TIP3    H272341   1.100   4.537  13.852  1.2602 -0.7061 -0.3350
16976TIP3   OH272342   3.498   6.456  12.354 -0.6414 -0.3498  0.6287
16976TIP3    H172343   3.568   6.391  12.354  1.7278  1.9791 -0.5585
16976TIP3    H272344   3.469   6.459  12.262 -0.4968  0.4314  0.5990
16977TIP3   OH272345   4.467   1.510  11.547 -0.1523  0.1716 -0.6893
16977TIP3    H172346   4.413   1.538  11.621 -0.4458 -0.2835 -0.7218
16977TIP3    H272347   4.552   1.550  11.563  0.5318 -1.8130  1.1871
16978TIP3   OH272348   5.983   0.323   1.616 -0.7709  0.2297  0.1445
16978TIP3    H172349   5.990   0.228   1.602  1.0626  0.2060  0.9995
16978TIP3    H272350   5.999   0.361   1.529  2.7898 -0.1666  0.4923
16979TIP3   OH272351   0.709   1.201   1.683 -0.1479  0.6563  0.2909
16979TIP3    H172352   0.722   1.127   1.742 -1.6137  0.7165  0.7410
16979TIP3    H272353   0.772   1.187   1.612 -0.1505 -0.8269  0.5480
16980TIP3   OH272354   2.740   4.867   1.058  0.1232  0.4767  0.4666
16980TIP3    H172355   2.744   4.951   1.011  0.1646  1.1147  1.5731
16980TIP3    H272356   2.732   4.802   0.989  1.3819  1.2815 -0.5097
16981TIP3   OH272357   1.208   2.835   5.711  0.4192  0.5703  0.0498
16981TIP3    H172358   1.266   2.772   5.667  0.6692 -0.8864  2.2755
16981TIP3    H272359   1.138   2.851   5.648  0.2553 -2.1311 -0.6022
16982TIP3   OH272360   0.343   4.989   5.531 -0.3138 -0.0678 -0.0975
16982TIP3    H172361   0.429   5.026   5.549  0.1563 -1.2007  0.0831
16982TIP3    H272362   0.318   5.025   5.446 -0.8412  2.3148  0.9828
16983TIP3   OH272363   4.981   0.608   2.255 -0.0119  0.7247  0.0335
16983TIP3    H172364   5.009   0.571   2.171  0.1345 -0.3705  0.5585
16983TIP3    H272365   4.915   0.547   2.288  0.6417  0.6025  1.1790
16984TIP3   OH272366   2.911   0.006  14.107 -0.6704  0.2550  0.3485
16984TIP3    H172367   3.002   0.035  14.111 -0.4350 -0.5861  2.1720
16984TIP3    H272368   2.905  -0.065  14.172 -1.7965 -2.0939 -2.1305
16985TIP3   OH272369   1.461   1.162   0.064 -0.0431 -0.0845 -0.0218
16985TIP3    H172370   1.434   1.190   0.152  0.6289  0.8799 -0.1044
16985TIP3    H272371   1.414   1.221   0.005 -1.1730 -1.2890 -0.3781
16986TIP3   OH272372   4.542   5.882   5.475 -0.4329 -0.0062  0.0402
16986TIP3    H172373   4.538   5.822   5.401  0.8058 -0.2514  0.1506
16986TIP3    H272374   4.632   5.916   5.474 -0.3357 -0.1345  1.5143
16987TIP3   OH272375   0.689   4.203   5.812  0.1720 -0.2428  0.3930
16987TIP3    H172376   0.764   4.191   5.870  0.1892  1.3088  0.7507
16987TIP3    H272377   0.701   4.291   5.776 -1.1507 -0.2135 -0.0306
16988TIP3   OH272378   6.070   5.497   3.884 -0.1748  0.0643 -0.1590
16988TIP3    H172379   6.145   5.452   3.921 -0.3187 -1.7724 -1.9278
16988TIP3    H272380   6.085   5.496   3.789 -2.6831 -0.9610 -0.6486
16989TIP3   OH272381   6.612   4.249   5.238 -0.0253  0.3158  0.3507
16989TIP3    H172382   6.602   4.224   5.146 -0.2138 -0.6605  0.6183
16989TIP3    H272383   6.600   4.167   5.286  0.0092  0.8240  1.2503
16990TIP3   OH272384   1.553   2.949  11.609  0.5061  0.3224  0.3144
16990TIP3    H172385   1.558   2.910  11.697 -1.2323 -0.9294 -0.0884
16990TIP3    H272386   1.471   2.998  11.609  0.0325 -0.4273 -0.8694
16991TIP3   OH272387   4.887   5.785   2.520  0.2333 -0.3300 -0.3765
16991TIP3    H172388   4.801   5.758   2.554 -0.0611 -0.0586 -0.8976
16991TIP3    H272389   4.924   5.705   2.484  0.1175 -0.4113 -0.3165
16992TIP3   OH272390   4.398   4.661  16.586 -0.0919  0.4498  0.5084
16992TIP3    H172391   4.352   4.579  16.569 -0.1786  0.8928 -1.7284
16992TIP3    H272392   4.363   4.722  16.520  0.9543  1.8877  1.2365
16993TIP3   OH272393   5.378   2.131  13.250 -0.7039  0.3398 -0.8323
16993TIP3    H172394   5.412   2.215  13.281 -0.6801 -0.0695  0.3207
16993TIP3    H272395   5.456   2.082  13.223 -0.4886 -0.0391  0.3948
16994TIP3   OH272396   5.309   3.461  11.760  0.4221  0.3030  0.1742
16994TIP3    H172397   5.385   3.403  11.767  1.7681  1.7347 -1.5916
16994TIP3    H272398   5.308   3.508  11.843  2.7010  1.6008 -0.4481
16995TIP3   OH272399   4.792   2.599  15.349  0.1633  0.1389  0.5027
16995TIP3    H172400   4.761   2.564  15.265 -2.7579  0.9157  1.1595
16995TIP3    H272401   4.846   2.529  15.385 -0.6728 -1.2852 -0.8774
16996TIP3   OH272402   0.033   6.208   3.756  0.0105 -0.1830  0.2460
16996TIP3    H172403   0.002   6.246   3.838 -0.1879 -1.7521  0.9502
16996TIP3    H272404   0.089   6.135   3.784  0.1262 -0.5946 -1.0165
16997TIP3   OH272405   5.379   2.718  15.128  0.4161  0.2622 -0.3475
16997TIP3    H172406   5.461   2.679  15.099  1.8414  1.0150  2.3735
16997TIP3    H272407   5.325   2.643  15.155 -0.2196 -0.2943 -2.9165
16998TIP3   OH272408   5.787   2.117   4.859  0.6005 -0.2712  0.4250
16998TIP3    H172409   5.862   2.176   4.855 -0.5819  1.2543 -0.6746
16998TIP3    H272410   5.789   2.070   4.776 -0.0427  0.3110  0.0667
16999TIP3   OH272411   3.039   5.052  14.175 -0.2848 -0.2418 -0.6769
16999TIP3    H172412   3.046   5.147  14.184 -0.3326 -0.1320 -1.7382
16999TIP3    H272413   2.971   5.039  14.109  1.4176 -0.9280 -2.3844
17000TIP3   OH272414   4.240   4.344   4.634 -0.0192 -0.6835  0.2385
17000TIP3    H172415   4.238   4.325   4.727  1.7645  0.7792  0.6300
17000TIP3    H272416   4.239   4.258   4.591  0.3884 -1.4095  1.6399
17001TIP3   OH272417   2.878   3.337   3.986  0.0607 -0.7434 -0.1769
17001TIP3    H172418   2.898   3.254   4.028  0.3209 -0.4802  0.2336
17001TIP3    H272419   2.802   3.371   4.034  2.1608  0.9776  2.1402
17002TIP3   OH272420   5.616   0.583   5.092  0.1345  0.2039  0.0281
17002TIP3    H172421   5.551   0.654   5.094  1.5306  1.7597 -2.8595
17002TIP3    H272422   5.619   0.556   5.000  2.8234 -0.4840  0.2286
17003TIP3   OH272423   3.169   4.120   4.154  0.3680 -0.0026  0.2072
17003TIP3    H172424   3.107   4.150   4.221 -0.0840  3.0635 -1.4167
17003TIP3    H272425   3.248   4.096   4.204  0.1699  2.4572  1.9082
17004TIP3   OH272426   0.835   6.062  11.963 -0.1555 -0.3383  0.1689
17004TIP3    H172427   0.744   6.035  11.947  0.2730 -0.1976 -3.0387
17004TIP3    H272428   0.833   6.157  11.964  0.1135 -0.2951 -1.3692
17005TIP3   OH272429   1.409   3.401  14.680 -0.5860  0.3957 -0.5905
17005TIP3    H172430   1.420   3.344  14.604 -0.1745  0.7358 -0.7899
17005TIP3    H272431   1.461   3.479  14.660  0.7127 -0.1069  0.6595
17006TIP3   OH272432   2.663   3.905   4.440  0.2627  0.3767  0.0827
17006TIP3    H172433   2.666   3.990   4.483 -1.0892  0.4776  0.0338
17006TIP3    H272434   2.578   3.868   4.466 -0.1025 -0.0293 -1.5638
17007TIP3   OH272435   4.516   6.480   3.624 -0.2595  0.2946  0.3754
17007TIP3    H172436   4.595   6.481   3.570 -0.2472 -1.3308  0.3280
17007TIP3    H272437   4.450   6.526   3.571  0.2301  0.2758 -0.2523
17008TIP3   OH272438   4.113   3.297  15.487 -0.3568 -0.0582  0.0751
17008TIP3    H172439   4.196   3.333  15.453 -1.0170  1.9369  0.4495
17008TIP3    H272440   4.054   3.298  15.411 -0.6188  0.4709  0.2803
17009TIP3   OH272441   4.706   0.535   2.248  0.0920  0.5856 -0.0060
17009TIP3    H172442   4.723   0.441   2.237  0.1829  0.8280 -2.7398
17009TIP3    H272443   4.617   0.547   2.215  0.7119  1.6843 -1.3778
17010TIP3   OH272444   6.389   1.521  16.566  0.0594 -0.2251  0.1616
17010TIP3    H172445   6.309   1.546  16.613  1.0282  3.9179 -0.0370
17010TIP3    H272446   6.459   1.531  16.630  0.6446 -2.7354  0.0117
17011TIP3   OH272447   0.961   3.482  12.448 -0.3029  0.7735  0.0771
17011TIP3    H172448   0.987   3.417  12.383  2.5402  3.7219 -2.1212
17011TIP3    H272449   0.869   3.500  12.428 -1.1866 -2.4029  0.7992
17012TIP3   OH272450   0.706   3.724   2.773  0.9494  0.4642  0.1365
17012TIP3    H172451   0.765   3.681   2.835 -0.7809  1.2867  2.5106
17012TIP3    H272452   0.686   3.656   2.709  1.6173 -0.9639  1.3669
17013TIP3   OH272453   6.346   1.785  13.720  0.3616  0.2143 -0.4601
17013TIP3    H172454   6.301   1.714  13.765  1.1129  0.3464  0.5337
17013TIP3    H272455   6.437   1.758  13.717  0.4163  0.4796 -1.3909
17014TIP3   OH272456   5.786   2.957  11.074  0.0370  0.1685 -0.0936
17014TIP3    H172457   5.718   2.915  11.021  1.2964 -3.3178  0.7944
17014TIP3    H272458   5.868   2.921  11.040  1.2354  1.8849  0.8786
17015TIP3   OH272459   4.776   0.868  12.045  0.1212  0.4621 -0.8127
17015TIP3    H172460   4.715   0.823  12.103  0.8734 -0.2261 -0.5383
17015TIP3    H272461   4.721   0.900  11.973 -0.6359  0.2948 -0.3210
17016TIP3   OH272462   6.242   5.218   1.362 -0.1766 -0.4763  0.4779
17016TIP3    H172463   6.302   5.144   1.356  1.1893  0.6305  0.1038
17016TIP3    H272464   6.284   5.280   1.421 -0.3698  0.8124 -0.6619
17017TIP3   OH272465   2.588   1.191  15.913 -0.3984  0.0689 -0.1971
17017TIP3    H172466   2.677   1.175  15.943 -0.7115 -0.0977  0.6926
17017TIP3    H272467   2.597   1.260  15.847  0.4347 -0.3254 -0.5152
17018TIP3   OH272468   5.202   5.040  15.976  0.0003 -0.8396 -0.4039
17018TIP3    H172469   5.180   5.110  16.037  0.5617  0.1254 -1.2577
17018TIP3    H272470   5.295   5.055  15.955 -0.0992 -1.3223 -1.2472
17019TIP3   OH272471   1.886   3.093  12.861  0.5172 -0.3508  0.4157
17019TIP3    H172472   1.926   3.077  12.947 -0.4622 -1.2435  0.7337
17019TIP3    H272473   1.902   3.186  12.844 -1.4729  0.5496  2.7740
17020TIP3   OH272474   1.757   1.366  13.928 -0.2379 -0.1436  0.3399
17020TIP3    H172475   1.841   1.377  13.884 -0.5757  0.2291 -0.2195
17020TIP3    H272476   1.700   1.430  13.886 -1.6220 -2.3611 -1.3720
17021TIP3   OH272477   4.893   5.783  12.727  0.0242 -0.1435  0.0216
17021TIP3    H172478   4.813   5.816  12.686  0.8120  1.5464 -0.2371
17021TIP3    H272479   4.891   5.819  12.815 -1.0680 -2.7847  1.1542
17022TIP3   OH272480   2.009   1.029   0.716 -0.1542  0.3016 -0.8128
17022TIP3    H172481   2.082   1.041   0.776 -0.2288 -0.0284 -0.6529
17022TIP3    H272482   1.976   1.117   0.700 -0.7463  0.3124  0.4043
17023TIP3   OH272483   5.595   2.464   5.348 -0.3519 -0.9041 -0.2198
17023TIP3    H172484   5.646   2.409   5.288  1.4093 -1.2338  1.4634
17023TIP3    H272485   5.658   2.529   5.379 -1.6878  0.3635 -0.0591
17024TIP3   OH272486   5.211   1.016   1.550 -0.1788 -0.2849 -0.6395
17024TIP3    H172487   5.207   1.034   1.456 -1.8311  1.7928 -0.2596
17024TIP3    H272488   5.119   1.010   1.577  0.2428  0.2679  1.0263
17025TIP3   OH272489   2.666   5.249   2.889  0.2035  0.2953 -0.6197
17025TIP3    H172490   2.618   5.193   2.950 -0.7177  0.7454 -0.9170
17025TIP3    H272491   2.698   5.321   2.944 -2.2354  1.7262 -0.9052
17026TIP3   OH272492   0.244   6.155  12.528 -0.5333 -0.1263 -0.3806
17026TIP3    H172493   0.207   6.115  12.449 -0.3173 -0.6212 -0.2369
17026TIP3    H272494   0.330   6.187  12.501 -0.8222  0.5089 -0.5690
17027TIP3   OH272495   3.089   0.535   4.634  0.2202  0.0046  0.5329
17027TIP3    H172496   3.150   0.472   4.595 -0.7603  0.0549 -1.2287
17027TIP3    H272497   3.137   0.617   4.636  0.3957 -0.0618 -0.3913
17028TIP3   OH272498   1.188   4.320  11.481 -0.7858  0.0036  0.4742
17028TIP3    H172499   1.265   4.370  11.508 -0.3408 -0.0397 -0.6427
17028TIP3    H272500   1.156   4.279  11.561  0.6646 -0.4079  0.8708
17029TIP3   OH272501   6.139   4.238  14.606  0.0658  0.0584 -0.7231
17029TIP3    H172502   6.187   4.319  14.588 -0.9698  1.8877  3.5471
17029TIP3    H272503   6.200   4.185  14.657 -0.5241 -0.2176 -0.3011
17030TIP3   OH272504   2.123   3.391   5.250 -0.1124  0.2190  0.4180
17030TIP3    H172505   2.142   3.368   5.341 -1.4748 -0.2593  0.5939
17030TIP3    H272506   2.044   3.343   5.229 -1.4282  2.4602 -0.1361
17031TIP3   OH272507   0.006   3.080  14.091  0.0381  0.0958  0.6403
17031TIP3    H172508   0.098   3.092  14.114  0.6887 -0.9688 -1.2207
17031TIP3    H272509  -0.003   2.986  14.077 -0.2376  0.5074 -3.1353
17032TIP3   OH272510   3.060   0.459   4.896  0.0913 -0.7801 -0.3918
17032TIP3    H172511   3.150   0.461   4.931  0.0271 -0.0384 -0.2572
17032TIP3    H272512   3.069   0.489   4.806 -0.0811 -0.2703 -0.2404
17033TIP3   OH272513   0.347   4.595  13.556  0.1256  0.0329 -0.6491
17033TIP3    H172514   0.338   4.501  13.540 -1.6502  0.2081 -0.9215
17033TIP3    H272515   0.441   4.609  13.567  0.3652 -1.8871  0.1665
17034TIP3   OH272516   5.637   5.351  16.755  0.3589 -0.4148 -0.2419
17034TIP3    H172517   5.717   5.392  16.723  0.0670 -0.1797 -0.6729
17034TIP3    H272518   5.624   5.390  16.842 -0.0908  0.6564 -0.7740
17035TIP3   OH272519   0.285   0.063   5.026 -0.4969  0.5966  0.0408
17035TIP3    H172520   0.285   0.087   4.933  0.2108  2.3253  0.4325
17035TIP3    H272521   0.214   0.116   5.063 -0.2365  0.5495  0.6092
17036TIP3   OH272522   1.595   2.718  15.125 -0.1423 -0.0128  0.0661
17036TIP3    H172523   1.597   2.749  15.035  0.4800 -0.3137 -0.0260
17036TIP3    H272524   1.508   2.680  15.135  0.4207 -1.6489 -0.9708
17037TIP3   OH272525   3.815   2.743  14.254  0.5634  0.1493 -0.0167
17037TIP3    H172526   3.811   2.648  14.248 -1.6784  0.2864 -2.6036
17037TIP3    H272527   3.743   2.766  14.312  0.8644  0.3329  0.2943
17038TIP3   OH272528   3.657   0.040  16.727 -0.1991 -0.3709 -0.5448
17038TIP3    H172529   3.670   0.032  16.633  1.4394 -2.1727 -0.2299
17038TIP3    H272530   3.662   0.134  16.744  0.0457 -0.0599 -2.1845
17039TIP3   OH272531   2.400   3.783   4.315  0.6293  0.2105 -0.5914
17039TIP3    H172532   2.333   3.794   4.383  1.3699 -0.6829  0.3035
17039TIP3    H272533   2.378   3.850   4.250 -2.7936 -1.8016 -1.7326
17040TIP3   OH272534   5.986   2.059  11.521  0.1960  0.3171 -0.3379
17040TIP3    H172535   5.988   2.145  11.479  0.4153  0.6585  0.3488
17040TIP3    H272536   6.077   2.039  11.541  0.4728 -1.2507 -2.7621
17041TIP3   OH272537   0.215   6.525   3.701 -0.0959  0.4770  0.0812
17041TIP3    H172538   0.220   6.533   3.606 -0.1758 -2.4926 -0.2423
17041TIP3    H272539   0.133   6.479   3.717  0.3844  0.0908  1.5347
17042TIP3   OH272540   0.087   5.059   3.059  0.2679  0.0746 -0.0898
17042TIP3    H172541   0.068   5.124   2.992  1.2062  1.1862  0.6723
17042TIP3    H272542   0.002   5.018   3.078  0.0562 -0.5563 -2.1990
17043TIP3   OH272543   2.728   3.837   0.602  0.2969 -0.4632 -0.0557
17043TIP3    H172544   2.770   3.826   0.517 -0.5868  0.6015 -0.6512
17043TIP3    H272545   2.712   3.931   0.610  1.1578 -0.4237  1.6964
17044TIP3   OH272546   5.671   6.194  16.726  0.1885  0.4184 -0.6633
17044TIP3    H172547   5.665   6.286  16.702  0.0343  1.0443  1.5421
17044TIP3    H272548   5.617   6.186  16.805  0.1384 -1.5853 -0.8399
17045TIP3   OH272549   0.727   6.705  15.978  0.2679  0.4590  0.0903
17045TIP3    H172550   0.709   6.775  15.915 -0.7955 -0.4266 -0.6144
17045TIP3    H272551   0.786   6.646  15.932  1.5157  1.0713  0.8368
17046TIP3   OH272552   1.950   2.241  13.400 -0.3731  0.1086  0.0553
17046TIP3    H172553   1.920   2.173  13.459  1.2615  0.5913  1.5512
17046TIP3    H272554   1.874   2.298  13.387 -0.6545  0.2628  2.1227
17047TIP3   OH272555   5.142   3.608  15.710 -0.3830 -0.3044  0.1176
17047TIP3    H172556   5.070   3.629  15.652  0.6586  1.2578 -0.7072
17047TIP3    H272557   5.117   3.647  15.794 -0.7622 -0.2879 -0.0035
17048TIP3   OH272558   0.665   4.895   2.228  0.4239  0.0109  0.0243
17048TIP3    H172559   0.591   4.930   2.179 -0.4608  0.7012  1.7591
17048TIP3    H272560   0.681   4.809   2.189 -0.9688  0.0628 -0.7213
17049TIP3   OH272561   6.158   2.390   4.407  0.5537  0.0402 -0.1274
17049TIP3    H172562   6.154   2.358   4.317  2.2345  1.9051 -0.9369
17049TIP3    H272563   6.066   2.392   4.435  0.0505 -1.1699 -1.5469
17050TIP3   OH272564   3.198   1.166   2.085 -0.4667  0.1981 -0.2929
17050TIP3    H172565   3.272   1.173   2.145  0.4024  0.5534 -1.3601
17050TIP3    H272566   3.194   1.074   2.061 -1.6247 -0.1912  1.2540
17051TIP3   OH272567   4.630   6.206  15.598 -0.4584 -0.1075 -0.6304
17051TIP3    H172568   4.666   6.139  15.656  0.7312  0.0734 -1.1169
17051TIP3    H272569   4.588   6.157  15.527 -0.6476 -0.3264 -0.3670
17052TIP3   OH272570   2.720   4.591   2.470  0.3219  0.5228 -0.2770
17052TIP3    H172571   2.749   4.682   2.481 -0.5627  0.6039  1.6910
17052TIP3    H272572   2.650   4.597   2.404 -0.2202  1.4081  0.3400
17053TIP3   OH272573   3.440   2.577  17.217 -0.2287 -0.3427 -0.3964
17053TIP3    H172574   3.434   2.616  17.304  1.0030  1.7758 -1.1807
17053TIP3    H272575   3.372   2.620  17.166  0.6874  0.3117 -1.0984
17054TIP3   OH272576   1.338   0.428  11.931  0.7332 -0.5249 -0.0909
17054TIP3    H172577   1.289   0.506  11.954 -0.5773 -1.0301 -1.0375
17054TIP3    H272578   1.313   0.363  11.997  1.3847 -0.3283  0.3615
17055TIP3   OH272579   0.204   6.300   4.134 -0.4280  0.8491 -0.2619
17055TIP3    H172580   0.214   6.383   4.180 -1.7589  1.9916 -1.9169
17055TIP3    H272581   0.110   6.280   4.140  0.0588 -1.3538  1.3707
17056TIP3   OH272582   2.054   6.574   4.848  0.3426 -0.2861  0.0040
17056TIP3    H172583   1.979   6.626   4.818 -0.1479 -0.3770  1.0008
17056TIP3    H272584   2.027   6.484   4.835 -0.6199 -0.3931  2.2561
17057TIP3   OH272585   2.754   0.644  16.543 -0.4556 -0.4676  0.2237
17057TIP3    H172586   2.804   0.684  16.614 -0.5538 -0.3888  0.2476
17057TIP3    H272587   2.763   0.706  16.470  1.3832 -1.4953 -0.5029
17058TIP3   OH272588   3.296   6.084  11.961 -0.2872  0.2063 -0.1934
17058TIP3    H172589   3.279   6.009  11.904  1.1213  0.7127 -1.3267
17058TIP3    H272590   3.223   6.144  11.945 -2.2327 -1.4534  1.7979
17059TIP3   OH272591   6.728   0.980  12.928 -0.2009  0.4294  0.0159
17059TIP3    H172592   6.680   0.971  12.846 -0.3280 -1.5568  0.2734
17059TIP3    H272593   6.665   0.954  12.995  0.7825 -0.8024  0.4848
17060TIP3   OH272594   4.708   3.329   4.355 -0.7203  0.0710 -0.1552
17060TIP3    H172595   4.751   3.350   4.438  1.3123  1.2904 -1.4322
17060TIP3    H272596   4.756   3.252   4.322 -0.6820  0.3379 -0.7441
17061TIP3   OH272597   5.716   5.180  13.314  0.3324  0.4240  0.4656
17061TIP3    H172598   5.659   5.255  13.328  0.0616 -0.0488  2.1820
17061TIP3    H272599   5.801   5.207  13.349  0.4155  0.1829  0.4576
17062TIP3   OH272600   0.585   3.833   3.948  0.0226  0.2554  0.1274
17062TIP3    H172601   0.490   3.843   3.947 -0.2074 -1.2777  1.3959
17062TIP3    H272602   0.611   3.863   4.035  0.1831 -2.6490  1.1894
17063TIP3   OH272603   1.658   1.607  12.442 -0.4242 -0.6180 -0.0863
17063TIP3    H172604   1.703   1.592  12.359  2.2871 -1.0246  1.3232
17063TIP3    H272605   1.615   1.524  12.461  0.2699 -1.0561 -0.3629
17064TIP3   OH272606   0.302   1.227   5.148  0.2856 -0.1875  0.7079
17064TIP3    H172607   0.363   1.246   5.077 -0.9140 -2.0541 -0.9330
17064TIP3    H272608   0.223   1.276   5.126  0.0057 -0.5445  0.9058
17065TIP3   OH272609   4.851   5.588   3.346  0.0576  0.1053 -0.5699
17065TIP3    H172610   4.815   5.501   3.329  0.2565  0.0779 -0.8619
17065TIP3    H272611   4.802   5.620   3.421 -1.4072  0.5505 -1.6746
17066TIP3   OH272612   5.241   6.677  14.105 -0.0463 -0.3587  0.1112
17066TIP3    H172613   5.248   6.684  14.200 -0.0533  0.8249  0.0421
17066TIP3    H272614   5.299   6.744  14.071 -1.4536  0.5252 -0.6725
17067TIP3   OH272615   5.464   4.492  15.553 -0.2491  0.0628 -0.7011
17067TIP3    H172616   5.530   4.445  15.604 -1.0537  0.2233  0.5350
17067TIP3    H272617   5.408   4.422  15.518 -0.4026  0.0050 -0.3458
17068TIP3   OH272618   1.205   5.819   0.505 -0.0359  0.7286  0.1132
17068TIP3    H172619   1.156   5.737   0.515  1.7086 -0.3717 -0.1045
17068TIP3    H272620   1.294   5.798   0.531  0.5277  2.4984 -0.2374
17069TIP3   OH272621   6.438   5.019   5.147  0.4974 -0.1311  0.3075
17069TIP3    H172622   6.433   5.103   5.193 -0.1286 -0.5206  0.9793
17069TIP3    H272623   6.480   4.960   5.210 -1.8094 -1.0807  1.0432
17070TIP3   OH272624   5.051   3.529   0.091  0.0049 -0.2576 -0.4528
17070TIP3    H172625   5.010   3.506   0.008 -2.0956  1.3915  0.0585
17070TIP3    H272626   5.112   3.457   0.108 -0.8857 -1.5787 -2.4751
17071TIP3   OH272627   2.366   0.650   0.111  0.0384 -0.5487 -0.3228
17071TIP3    H172628   2.355   0.572   0.165 -0.8596 -0.3095 -0.1440
17071TIP3    H272629   2.287   0.654   0.057  0.2086  0.0678 -0.5431
17072TIP3   OH272630   3.304   0.983  12.816  0.1894 -0.9299 -0.5826
17072TIP3    H172631   3.254   1.031  12.881 -1.0344  0.5012 -2.4547
17072TIP3    H272632   3.262   0.897  12.812  0.3715 -1.0837  0.5793
17073TIP3   OH272633   6.707   3.018  16.734 -0.2101  0.4441 -0.1958
17073TIP3    H172634   6.761   2.940  16.747  0.6187  0.7390 -1.6284
17073TIP3    H272635   6.671   3.038  16.821  0.9307 -0.5355  0.5287
17074TIP3   OH272636   5.113   6.420  14.345  0.1083  0.1275  0.1486
17074TIP3    H172637   5.045   6.470  14.300  0.5459  0.6376  0.0504
17074TIP3    H272638   5.072   6.335  14.362  0.2811 -0.5037 -2.1906
17075TIP3   OH272639   2.911   0.115  11.005 -0.3406 -0.4652 -0.0248
17075TIP3    H172640   2.944   0.204  11.016 -0.0809 -0.5009 -0.4974
17075TIP3    H272641   2.986   0.059  11.023 -0.5792 -0.6044  0.5731
17076TIP3   OH272642   6.639   3.420  17.016 -0.2554 -0.2224  0.4691
17076TIP3    H172643   6.636   3.481  16.942 -0.3466 -1.4409 -0.5589
17076TIP3    H272644   6.596   3.467  17.088 -2.0811  0.2081 -0.8470
17077TIP3   OH272645   0.375   3.309   3.662 -0.8596 -0.4284  0.1289
17077TIP3    H172646   0.444   3.272   3.608 -1.7843  2.7271 -3.6620
17077TIP3    H272647   0.294   3.275   3.626 -1.4984  1.4755 -0.3621
17078TIP3   OH272648   0.732   6.109  15.540  0.5838 -0.1530 -0.1205
17078TIP3    H172649   0.676   6.038  15.571 -0.8507  0.2117 -1.7350
17078TIP3    H272650   0.714   6.182  15.600 -0.4285 -0.1657 -0.3784
17079TIP3   OH272651   3.022   1.125  15.651 -0.1512 -0.4949  0.0792
17079TIP3    H172652   2.957   1.098  15.586 -1.1539 -1.6136  1.4794
17079TIP3    H272653   3.057   1.043  15.685  1.7204  0.0953 -0.3509
17080TIP3   OH272654   4.779   0.655   1.296  0.3729  0.1127  0.1364
17080TIP3    H172655   4.698   0.695   1.326  1.6860  2.2045  1.1496
17080TIP3    H272656   4.817   0.720   1.237  1.7831 -0.3568  0.4863
17081TIP3   OH272657   0.120   6.004   1.567 -0.0633 -0.2381 -0.8129
17081TIP3    H172658   0.216   6.006   1.573  0.0244  0.4608 -2.1610
17081TIP3    H272659   0.101   5.916   1.534  0.0732 -0.4983 -0.2255
17082TIP3   OH272660   3.660   2.779  15.967 -0.2428  0.2006  0.3220
17082TIP3    H172661   3.692   2.728  15.893 -0.9569  0.0776  0.0935
17082TIP3    H272662   3.646   2.867  15.931 -2.2446 -0.2685 -0.1529
17083TIP3   OH272663   6.580   3.979  15.513  0.1429 -0.0392 -0.7718
17083TIP3    H172664   6.489   3.997  15.491  0.3004  0.9445 -0.6521
17083TIP3    H272665   6.628   4.055  15.481  0.4850  1.1666  2.2371
17084TIP3   OH272666   2.584   0.971   3.348 -0.0047  0.2769  0.1798
17084TIP3    H172667   2.638   0.924   3.284 -0.4060  1.0478 -0.7443
17084TIP3    H272668   2.509   0.915   3.362  0.8316 -0.6327  1.1931
17085TIP3   OH272669   2.401   6.203  14.118 -0.1407  0.0007  0.9440
17085TIP3    H172670   2.481   6.188  14.169  1.0391  2.0397 -0.1885
17085TIP3    H272671   2.402   6.133  14.052  0.3041 -0.4205  1.3819
17086TIP3   OH272672   2.976   1.087   4.814  0.7751 -0.0850  0.6787
17086TIP3    H172673   2.885   1.115   4.828  0.0129 -1.6087 -0.8641
17086TIP3    H272674   2.972   0.991   4.815  2.0448 -0.2126 -1.0256
17087TIP3   OH272675   3.086   6.696  16.650 -0.5116  0.6115  0.0116
17087TIP3    H172676   3.146   6.686  16.576  0.4933 -0.8694  0.9729
17087TIP3    H272677   3.053   6.785  16.642  0.4212  0.8540 -1.5865
17088TIP3   OH272678   0.806   4.573   1.155 -0.6264 -0.6381  0.1665
17088TIP3    H172679   0.790   4.532   1.240 -0.8761 -1.2856 -0.1892
17088TIP3    H272680   0.819   4.500   1.094 -0.5041 -0.1840 -0.3665
17089TIP3   OH272681   1.471   2.075   0.723  0.4686  0.7692  0.3619
17089TIP3    H172682   1.460   2.033   0.637 -0.3564 -0.3127  0.9789
17089TIP3    H272683   1.388   2.119   0.739 -0.0735 -0.6000  1.4274
17090TIP3   OH272684   2.139   2.181   3.252 -0.4221 -0.1543 -0.3374
17090TIP3    H172685   2.160   2.209   3.163 -0.6913 -0.4209 -0.4870
17090TIP3    H272686   2.211   2.215   3.306  0.7036 -1.5450 -0.9139
17091TIP3   OH272687   0.195   0.323  14.628  0.7852 -0.4668  0.1701
17091TIP3    H172688   0.241   0.275  14.560  1.0805 -0.4089  0.3290
17091TIP3    H272689   0.169   0.256  14.692  0.4161 -0.5358 -0.0498
17092TIP3   OH272690   5.167   4.762  14.872 -0.0075  0.2634 -0.0909
17092TIP3    H172691   5.255   4.799  14.871 -0.4530  1.4090  0.7601
17092TIP3    H272692   5.166   4.704  14.948 -0.3143  1.1631  0.6172
17093TIP3   OH272693   2.361   0.039  15.906  0.2578  0.5315  0.5499
17093TIP3    H172694   2.287   0.035  15.967 -0.0685  1.7498  0.2655
17093TIP3    H272695   2.372   0.132  15.888  1.2879  0.2967 -0.1267
17094TIP3   OH272696   6.276   2.752  15.658  0.3509 -0.4394 -0.2118
17094TIP3    H172697   6.277   2.701  15.739  1.8692 -0.2025 -0.0537
17094TIP3    H272698   6.366   2.783  15.649 -0.4400  1.8880 -0.5262
17095TIP3   OH272699   0.757   3.487  17.140 -0.3300  0.6182 -0.4792
17095TIP3    H172700   0.695   3.510  17.209  0.0261  0.7719 -0.2030
17095TIP3    H272701   0.703   3.452  17.070 -0.6520  0.0094  0.0658
17096TIP3   OH272702   5.903   1.471   0.178  0.1871  0.3463  0.2938
17096TIP3    H172703   5.816   1.433   0.166 -0.2691  1.3909  0.1821
17096TIP3    H272704   5.905   1.497   0.270  0.4089  0.2486  0.3163
17097TIP3   OH272705   4.854   3.289   2.793  0.0259  0.1152  0.4557
17097TIP3    H172706   4.862   3.381   2.817 -1.2129  0.6832 -1.1193
17097TIP3    H272707   4.898   3.283   2.708 -0.1715 -0.6595  0.4033
17098TIP3   OH272708   2.007   5.956   5.376  0.0336 -0.1868  0.3822
17098TIP3    H172709   1.964   6.041   5.386  0.6440  0.0718  0.8748
17098TIP3    H272710   2.081   5.960   5.437 -0.5824 -1.4914  1.2551
17099TIP3   OH272711   5.065   4.150   1.599 -0.8240 -0.0710 -0.3531
17099TIP3    H172712   5.087   4.087   1.667 -2.1193  0.1544  0.3022
17099TIP3    H272713   5.129   4.133   1.529  0.6041 -0.2363  0.9267
17100TIP3   OH272714   6.470   2.163  16.970 -0.1547 -0.0209  0.4870
17100TIP3    H172715   6.560   2.131  16.975 -0.0016 -0.1153 -1.7587
17100TIP3    H272716   6.415   2.086  16.986  0.1863 -0.3980 -0.1480
17101TIP3   OH272717   5.425   1.691   4.092 -0.3205  0.5942  0.2748
17101TIP3    H172718   5.372   1.769   4.108 -3.3703 -0.7313 -2.3653
17101TIP3    H272719   5.395   1.657   4.008  1.7685 -2.7556  0.6579
17102TIP3   OH272720   0.105   3.539  12.524 -0.3421 -0.0212  0.1473
17102TIP3    H172721   0.024   3.577  12.490  0.7863  0.8576 -1.7762
17102TIP3    H272722   0.159   3.615  12.548  0.5111 -0.5134 -0.1607
17103TIP3   OH272723   4.992   0.344   2.383 -0.9627  0.3909  0.0099
17103TIP3    H172724   5.027   0.321   2.469 -1.9622  2.5519  1.0764
17103TIP3    H272725   5.069   0.368   2.331 -0.4512  0.3087  0.7214
17104TIP3   OH272726   1.915   5.832  12.496 -0.2530  0.2741 -0.1961
17104TIP3    H172727   1.934   5.817  12.589  2.3319 -1.6131 -0.8863
17104TIP3    H272728   1.865   5.755  12.469 -1.8435  1.2733 -0.2311
17105TIP3   OH272729   6.075   0.017  17.239  0.1743 -0.4737 -0.3742
17105TIP3    H172730   6.139   0.088  17.237  1.0912 -1.2524  0.3996
17105TIP3    H272731   6.040   0.013  17.150 -1.0483  1.9567 -0.0794
17106TIP3   OH272732   4.751   2.424  13.866  0.5525 -0.1074 -0.8759
17106TIP3    H172733   4.700   2.502  13.887  0.5554 -0.1545 -0.6933
17106TIP3    H272734   4.803   2.450  13.790  1.0742  0.3001 -0.3960
17107TIP3   OH272735   6.519   0.451  12.966  0.2144  1.0663 -0.1948
17107TIP3    H172736   6.528   0.545  12.979  0.0125  1.0950 -0.2701
17107TIP3    H272737   6.580   0.412  13.029  3.2887  1.3346 -2.7224
17108TIP3   OH272738   3.316   0.122  14.314  0.2857 -0.4819 -0.6807
17108TIP3    H172739   3.260   0.072  14.253 -3.4107  1.2839  0.9331
17108TIP3    H272740   3.357   0.188  14.259 -1.4228 -0.1323 -1.6192
17109TIP3   OH272741   5.144   0.977  15.708  0.0888  0.3631  0.6464
17109TIP3    H172742   5.182   1.065  15.705  0.3225  0.2697  0.8393
17109TIP3    H272743   5.176   0.940  15.790 -1.7843  0.8863  1.6761
17110TIP3   OH272744   3.172   0.870  13.740 -0.3063 -0.3027  0.0786
17110TIP3    H172745   3.234   0.807  13.777 -1.8617 -1.9296  0.0851
17110TIP3    H272746   3.167   0.940  13.805  1.3647 -0.2163  0.1510
17111TIP3   OH272747   2.138   3.803   0.230  0.0147 -0.2302  0.1332
17111TIP3    H172748   2.184   3.733   0.184  0.2716  0.1314 -0.1716
17111TIP3    H272749   2.158   3.788   0.323 -0.4479 -0.9213  0.1235
17112TIP3   OH272750   2.376   5.137   1.318  0.0029 -0.1992 -0.6569
17112TIP3    H172751   2.451   5.144   1.259  0.9344  2.2554  0.7090
17112TIP3    H272752   2.303   5.176   1.269  0.5996  1.1642 -0.4970
17113TIP3   OH272753   4.823   4.411   4.937  0.4009 -0.2585  0.0082
17113TIP3    H172754   4.903   4.445   4.978 -0.2946  0.5644  0.7057
17113TIP3    H272755   4.855   4.355   4.866  1.6219 -0.9458  1.0478
17114TIP3   OH272756   4.916   6.262  13.030 -0.4005 -0.1077  0.5496
17114TIP3    H172757   4.930   6.355  13.013 -0.3402  0.2035  2.1876
17114TIP3    H272758   5.003   6.228  13.053 -0.0077 -1.0586 -1.9940
17115TIP3   OH272759   2.189   3.389   3.291  0.3545  0.3132 -0.0494
17115TIP3    H172760   2.130   3.374   3.365  0.1914  0.1999 -0.2013
17115TIP3    H272761   2.259   3.325   3.302  0.9038  1.0103  0.6030
17116TIP3   OH272762   3.695   3.724  13.609 -0.1734  0.5195 -0.4510
17116TIP3    H172763   3.625   3.768  13.561  0.0018  0.9829 -0.2855
17116TIP3    H272764   3.700   3.637  13.569  0.2338  1.0257 -1.5392
17117TIP3   OH272765   0.377   3.360  12.106 -0.1064 -0.5327  0.1196
17117TIP3    H172766   0.400   3.367  12.199  1.6702  1.3715 -0.3887
17117TIP3    H272767   0.282   3.374  12.105 -0.0546  0.2409  1.6057
17118TIP3   OH272768   0.914   4.934  15.625  0.0003 -0.1458 -0.3794
17118TIP3    H172769   0.921   4.992  15.701 -1.1105  0.2267 -0.5430
17118TIP3    H272770   0.959   4.981  15.554  1.0553 -0.5032  0.0303
17119TIP3   OH272771   1.531   1.539  15.979 -0.5589  0.3489 -0.4322
17119TIP3    H172772   1.454   1.579  16.019 -0.2046 -0.2085  0.8628
17119TIP3    H272773   1.592   1.612  15.967 -0.2016  0.3477  1.2195
17120TIP3   OH272774   2.537   2.853   6.113 -0.4472 -0.0418 -0.1675
17120TIP3    H172775   2.518   2.794   6.186  1.0345  1.5713  1.6032
17120TIP3    H272776   2.543   2.940   6.152  1.6476  0.7169 -1.9685
17121TIP3   OH272777   6.329   6.476  14.641  0.3101 -0.7233  0.2694
17121TIP3    H172778   6.311   6.437  14.726  0.3996 -1.8584 -0.2110
17121TIP3    H272779   6.386   6.413  14.597 -1.2004 -1.0808 -1.3285
17122TIP3   OH272780   3.488   4.276  12.594 -0.4717  0.4207  0.0394
17122TIP3    H172781   3.456   4.352  12.545 -2.2442 -0.6042 -0.4471
17122TIP3    H272782   3.459   4.291  12.684  2.0521  1.8821  0.7223
17123TIP3   OH272783   0.307   0.229  17.036 -0.4069 -0.0963  0.2003
17123TIP3    H172784   0.215   0.215  17.013 -0.7547  0.1629  1.3779
17123TIP3    H272785   0.322   0.322  17.021  0.3270 -0.5296 -2.1705
17124TIP3   OH272786   4.578   3.865  15.195  0.4344 -0.2539  0.5881
17124TIP3    H172787   4.510   3.929  15.177  0.2485 -0.5069  0.3765
17124TIP3    H272788   4.540   3.808  15.262  1.6317  1.5015  2.8831
17125TIP3   OH272789   3.957   1.381  16.026 -0.3815  0.3757  0.6332
17125TIP3    H172790   4.017   1.326  15.976 -0.4665  1.6801 -0.9668
17125TIP3    H272791   3.871   1.344  16.011 -0.4733  1.0591 -0.6791
17126TIP3   OH272792   1.021   2.317  13.563  0.1768  0.3148  0.2174
17126TIP3    H172793   0.926   2.302  13.564 -0.4664  2.9516 -2.7531
17126TIP3    H272794   1.046   2.297  13.473  2.1306  1.1761  0.5314
17127TIP3   OH272795   5.856   1.995   2.031 -0.2861  0.5612 -0.4318
17127TIP3    H172796   5.814   1.944   1.961  1.2064 -1.2008 -0.1261
17127TIP3    H272797   5.943   1.955   2.040  0.3125  2.0976  1.0330
17128TIP3   OH272798   3.235   1.317  16.880  0.4440 -0.0860  0.2172
17128TIP3    H172799   3.301   1.383  16.860  0.5036 -0.2686 -0.2010
17128TIP3    H272800   3.200   1.343  16.964  3.0720 -1.5772  1.9136
17129TIP3   OH272801   6.650   5.201  11.703 -0.2030 -0.0912 -0.5120
17129TIP3    H172802   6.613   5.275  11.654 -1.0427 -0.4632 -0.4654
17129TIP3    H272803   6.629   5.124  11.650  0.6041 -0.3063 -0.5250
17130TIP3   OH272804   5.954   6.073   1.499  0.2732  0.5006  0.3928
17130TIP3    H172805   5.950   5.999   1.438  1.5964  0.6525  0.0910
17130TIP3    H272806   6.034   6.058   1.549 -1.7145 -0.6773  3.5212
17131TIP3   OH272807   2.351   5.415  11.157 -0.2446  0.4375  0.6117
17131TIP3    H172808   2.344   5.325  11.189 -0.6860  0.5890  0.9496
17131TIP3    H272809   2.303   5.414  11.074 -1.9727  0.8070  1.5571
17132TIP3   OH272810   4.824   0.582   0.862  0.2482 -0.0461 -0.0750
17132TIP3    H172811   4.775   0.621   0.790 -0.6907 -2.2201 -0.6734
17132TIP3    H272812   4.916   0.591   0.836 -0.0587 -0.2952 -1.2789
17133TIP3   OH272813   2.931   0.714  12.257  0.2102  0.4394  0.3929
17133TIP3    H172814   2.919   0.632  12.305  3.2172  0.2907  1.0672
17133TIP3    H272815   2.844   0.734  12.223 -0.8892 -2.3713  1.2284
17134TIP3   OH272816   5.699   1.827   4.348  0.1251 -0.9071  0.1090
17134TIP3    H172817   5.750   1.837   4.428  0.2142 -0.9108  0.0525
17134TIP3    H272818   5.697   1.733   4.332  0.4232 -0.8816 -0.0981
17135TIP3   OH272819   2.816   5.543  12.493  0.4933 -1.3422  0.0091
17135TIP3    H172820   2.860   5.458  12.485  0.2884 -1.4041 -0.5238
17135TIP3    H272821   2.887   5.607  12.489  0.5885 -1.4636 -0.2474
17136TIP3   OH272822   3.288   5.701   1.877 -0.4647  0.2259  0.2959
17136TIP3    H172823   3.382   5.694   1.861 -0.9127 -1.0505 -2.2130
17136TIP3    H272824   3.267   5.626   1.932  0.2571  1.7562  2.8299
17137TIP3   OH272825   0.916   4.692  13.238 -0.1560  0.0477  0.0500
17137TIP3    H172826   0.954   4.613  13.200 -1.2589 -0.4806 -0.0173
17137TIP3    H272827   0.823   4.670  13.251 -0.0099  0.4451  2.3270
17138TIP3   OH272828   2.066   3.460   0.980 -0.4845  0.6725  1.0803
17138TIP3    H172829   2.161   3.470   0.983 -0.2401  0.4262 -2.4216
17138TIP3    H272830   2.032   3.549   0.970 -0.3399  0.5444 -0.8693
17139TIP3   OH272831   6.167   4.435   2.561  0.5000  0.2463 -0.5782
17139TIP3    H172832   6.241   4.417   2.620 -0.9229 -1.9779  0.6632
17139TIP3    H272833   6.191   4.393   2.479  0.6600 -0.4173 -0.1985
17140TIP3   OH272834   6.479   0.590   1.358 -0.7194 -0.0229  0.1356
17140TIP3    H172835   6.513   0.507   1.325 -0.2211  0.3891 -0.4024
17140TIP3    H272836   6.437   0.567   1.441 -1.0205 -0.8908 -0.2422
17141TIP3   OH272837   2.203   3.655   1.227  0.4467  0.5391  0.2611
17141TIP3    H172838   2.231   3.631   1.139  2.9705 -0.0788  1.1231
17141TIP3    H272839   2.280   3.699   1.265 -0.6979  1.1441  2.0190
17142TIP3   OH272840   0.096   3.287   5.224  0.2252 -0.5306 -0.6768
17142TIP3    H172841   0.143   3.287   5.307 -2.1526  1.8352  0.8557
17142TIP3    H272842   0.112   3.374   5.187 -0.4850 -0.7784 -1.6296
17143TIP3   OH272843   3.792   0.011   6.131  0.4469 -0.4057 -0.4379
17143TIP3    H172844   3.771  -0.082   6.137 -1.9044 -0.1325 -2.5829
17143TIP3    H272845   3.722   0.054   6.181  2.5182  0.2528  2.1249
17144TIP3   OH272846   0.178   2.457   1.236  0.4112 -0.8478  0.0483
17144TIP3    H172847   0.233   2.510   1.294  1.9507 -1.7643 -0.5318
17144TIP3    H272848   0.236   2.430   1.165 -1.3625  0.0704 -1.8663
17145TIP3   OH272849   2.003   3.202  11.958  0.4588  0.0066 -0.5560
17145TIP3    H172850   1.917   3.241  11.943  0.3762  0.0981  0.1212
17145TIP3    H272851   2.057   3.274  11.991  0.5896 -0.2120 -0.2877
17146TIP3   OH272852   4.217   3.799  13.909 -0.0632 -0.5696 -0.1726
17146TIP3    H172853   4.188   3.783  13.999  1.3939  1.1494  0.6565
17146TIP3    H272854   4.137   3.821  13.862 -0.5901  0.8737  1.2887
17147TIP3   OH272855   3.846   3.700  12.909 -0.2626  0.1080  0.4114
17147TIP3    H172856   3.771   3.642  12.925 -0.6211  0.2395 -0.7329
17147TIP3    H272857   3.823   3.781  12.955  0.0746 -0.4976  1.7029
17148TIP3   OH272858   0.012   2.144   0.535  0.4442  0.9010  0.3447
17148TIP3    H172859   0.103   2.172   0.523  0.5439  0.2455 -0.5552
17148TIP3    H272860   0.007   2.061   0.488 -0.4056  0.5138  1.1137
17149TIP3   OH272861   5.506   6.667  11.454  0.4681  0.0220 -0.3734
17149TIP3    H172862   5.481   6.748  11.496  1.3595  0.5471 -0.8041
17149TIP3    H272863   5.538   6.612  11.525  0.0735  0.1297 -0.1089
17150TIP3   OH272864   4.327   5.469   3.141 -0.2267  0.4055 -0.2861
17150TIP3    H172865   4.267   5.520   3.088  0.3077 -0.6554 -1.9989
17150TIP3    H272866   4.288   5.381   3.144 -0.3019  0.4727  1.1925
17151TIP3   OH272867   1.553   5.631  15.896  0.3254  0.5741  0.1139
17151TIP3    H172868   1.558   5.554  15.840 -1.0735  1.2884 -1.0856
17151TIP3    H272869   1.640   5.670  15.893  0.7904 -0.4512 -0.0001
17152TIP3   OH272870   5.645   5.476  11.895 -0.4681  0.0720  0.1968
17152TIP3    H172871   5.581   5.417  11.855  0.4597  0.0768 -1.3289
17152TIP3    H272872   5.713   5.487  11.830  0.8356  0.5316  1.5734
17153TIP3   OH272873   2.336   0.490   1.113  0.7665  0.2867  0.4036
17153TIP3    H172874   2.265   0.437   1.150  0.7099  0.1979  0.1714
17153TIP3    H272875   2.413   0.466   1.163  0.3009  1.6862  1.8708
17154TIP3   OH272876   0.377   6.183  16.312 -0.1575  0.0623 -0.1920
17154TIP3    H172877   0.437   6.216  16.245 -1.2903  0.6114 -0.9707
17154TIP3    H272878   0.390   6.242  16.387 -0.3310  0.7126 -0.6620
17155TIP3   OH272879   6.161   5.874  11.090 -0.4897  0.2608  0.4330
17155TIP3    H172880   6.143   5.947  11.030 -0.9841  0.9964  1.4488
17155TIP3    H272881   6.138   5.796  11.040 -2.1977  0.9269  0.0993
17156TIP3   OH272882   1.998   0.321   6.702 -0.5272 -0.3724 -0.3510
17156TIP3    H172883   1.950   0.351   6.780 -0.2384  0.1211 -0.3545
17156TIP3    H272884   1.937   0.264   6.656 -0.7886 -0.4695  0.1108
17157TIP3   OH272885   0.895   1.981  13.885  0.2908 -0.3718 -0.1584
17157TIP3    H172886   0.844   1.904  13.861  0.3445 -1.3135  2.4346
17157TIP3    H272887   0.830   2.047  13.910  0.2207  0.7232 -2.9023
17158TIP3   OH272888   4.965   0.962   0.685  0.2463 -0.1457  0.6181
17158TIP3    H172889   4.983   0.913   0.765  1.7507 -0.4900  0.1110
17158TIP3    H272890   5.034   0.934   0.624 -1.4506 -0.6943 -1.1676
17159TIP3   OH272891   4.707   0.274   6.743 -0.2957 -0.7232 -0.3487
17159TIP3    H172892   4.726   0.251   6.834 -0.6393  0.4874  0.0510
17159TIP3    H272893   4.634   0.336   6.749  2.6566  3.2204 -1.0075
17160TIP3   OH272894   2.182   4.912   6.451  0.6970 -0.5372  0.2236
17160TIP3    H172895   2.259   4.951   6.491  1.1136 -0.6543 -0.4414
17160TIP3    H272896   2.215   4.836   6.403  0.2284 -0.3653 -0.3899
17161TIP3   OH272897   6.147   1.765  13.111  0.2145 -0.0462  0.1504
17161TIP3    H172898   6.163   1.840  13.167 -0.0810  0.7827 -0.8355
17161TIP3    H272899   6.052   1.761  13.103  0.0674 -2.0238  2.1348
17162TIP3   OH272900   1.568   4.301  13.822  0.1210  0.2712 -0.8952
17162TIP3    H172901   1.476   4.330  13.822 -0.0476 -0.2285 -0.0311
17162TIP3    H272902   1.596   4.310  13.731 -0.5791  1.0803 -1.0439
17163TIP3   OH272903   0.729   3.246   4.618  0.3845 -0.1795  0.0757
17163TIP3    H172904   0.659   3.190   4.583  0.3925 -2.4092  3.2230
17163TIP3    H272905   0.808   3.192   4.614  1.8143  1.8395 -2.1960
17164TIP3   OH272906   1.486   5.105   1.977 -0.5911 -0.3915  0.8923
17164TIP3    H172907   1.407   5.155   1.956  0.1249  0.0278 -0.9615
17164TIP3    H272908   1.488   5.103   2.073 -1.1653  2.2832  1.0280
17165TIP3   OH272909   5.213   0.399   2.244  0.0972 -0.1934  0.0835
17165TIP3    H172910   5.301   0.402   2.206  0.3622 -0.7465  0.6312
17165TIP3    H272911   5.154   0.414   2.170  0.6705  0.7524 -0.1876
17166TIP3   OH272912   1.764   2.725  11.449 -0.5940 -0.5142 -0.0053
17166TIP3    H172913   1.848   2.688  11.422 -0.1411 -0.5301  1.3284
17166TIP3    H272914   1.787   2.793  11.513 -1.6242 -1.7458  1.7720
17167TIP3   OH272915   3.181   2.647  11.541  0.6146  0.1873  0.1111
17167TIP3    H172916   3.158   2.618  11.453  3.0645  0.1591 -0.5932
17167TIP3    H272917   3.219   2.734  11.528  0.2433  0.5357  1.2611
17168TIP3   OH272918   1.563   5.605   1.557 -0.3441 -0.2065 -0.4947
17168TIP3    H172919   1.637   5.554   1.589 -1.4504 -0.6941  1.4730
17168TIP3    H272920   1.602   5.674   1.503  1.6622  0.2908  1.4469
17169TIP3   OH272921   5.562   0.840  17.212 -0.1494  0.3398 -0.2647
17169TIP3    H172922   5.623   0.767  17.197  0.8467  1.1961 -0.5437
17169TIP3    H272923   5.594   0.881  17.293  0.7663  1.8552 -1.3404
17170TIP3   OH272924   2.768   3.022  13.536  0.6419 -0.2513  0.4353
17170TIP3    H172925   2.718   3.094  13.499 -0.9556 -1.8359 -0.6780
17170TIP3    H272926   2.703   2.954  13.555  2.3032 -2.4254 -1.0727
17171TIP3   OH272927   3.359   1.444  15.567 -0.0948 -0.6866  0.1769
17171TIP3    H172928   3.322   1.432  15.654 -2.6484 -0.8343 -0.8262
17171TIP3    H272929   3.349   1.359  15.524 -1.1173 -0.0170 -0.9953
17172TIP3   OH272930   4.651   2.919  12.334  0.3698 -0.1540 -0.3238
17172TIP3    H172931   4.565   2.956  12.355  0.5347  0.2057 -0.2791
17172TIP3    H272932   4.654   2.837  12.383  0.1569 -0.0396 -0.1152
17173TIP3   OH272933   3.266   6.485  15.407  0.0404 -0.0392 -0.3993
17173TIP3    H172934   3.196   6.546  15.431 -0.5553 -0.6186 -0.6316
17173TIP3    H272935   3.331   6.496  15.476 -1.4336 -1.3360  1.2832
17174TIP3   OH272936   0.972   2.771   4.315  0.1237 -0.2442  0.5935
17174TIP3    H172937   0.940   2.773   4.224 -0.0860  2.5758  0.6405
17174TIP3    H272938   1.024   2.691   4.320 -1.9339 -1.8041 -1.2544
17175TIP3   OH272939   0.575   5.097  17.224 -0.4404  0.5437 -0.1866
17175TIP3    H172940   0.635   5.154  17.177  2.0793 -1.4958  0.3568
17175TIP3    H272941   0.543   5.035  17.157  0.3456 -0.1462  0.0641
17176TIP3   OH272942   2.828   2.669   4.091 -0.1435  0.6397 -0.0400
17176TIP3    H172943   2.824   2.649   3.997 -1.2496 -0.2506  0.1743
17176TIP3    H272944   2.849   2.585   4.132 -4.3147 -0.1834  0.8492
17177TIP3   OH272945   4.150   0.780  14.682  0.1351  0.1647  0.2721
17177TIP3    H172946   4.123   0.776  14.591 -0.3360  1.3363  0.3474
17177TIP3    H272947   4.239   0.746  14.683  0.1099  0.0697 -0.6011
17178TIP3   OH272948   4.884   5.152   4.740  0.8753  0.6623  0.1744
17178TIP3    H172949   4.822   5.092   4.698  0.9663  0.2682  0.5927
17178TIP3    H272950   4.896   5.222   4.676  1.3604 -0.1528 -0.6472
17179TIP3   OH272951   6.344   6.179   5.359 -0.1763 -0.3085  0.0887
17179TIP3    H172952   6.304   6.102   5.400  3.4185 -1.3754  1.9958
17179TIP3    H272953   6.411   6.143   5.301  1.1773  1.3470  0.5680
17180TIP3   OH272954   5.478   4.723   1.276  0.2674  0.2572 -0.1099
17180TIP3    H172955   5.438   4.792   1.222 -2.2471 -1.4441 -0.5897
17180TIP3    H272956   5.470   4.644   1.224  3.4760 -0.4437  0.2483
17181TIP3   OH272957   5.148   2.094   3.407 -0.1335 -0.0475 -0.2277
17181TIP3    H172958   5.134   2.186   3.383  0.8347  0.2965  0.4299
17181TIP3    H272959   5.230   2.070   3.364  0.1935 -0.2547  0.4942
17182TIP3   OH272960   2.778   2.951   5.300 -0.1697 -0.2045 -0.1094
17182TIP3    H172961   2.698   2.968   5.250 -0.4821 -0.8369  0.1695
17182TIP3    H272962   2.790   3.030   5.353 -0.7629 -0.2166  0.0542
17183TIP3   OH272963   2.229   1.440   5.675  0.3168 -0.1751  0.3025
17183TIP3    H172964   2.160   1.465   5.613 -2.0487 -1.6210  2.1690
17183TIP3    H272965   2.202   1.481   5.757  2.2902  0.0668  0.8737
17184TIP3   OH272966   3.449   4.561   5.750  0.1901 -0.0228  0.2187
17184TIP3    H172967   3.442   4.625   5.821 -0.9601  0.7927 -0.5741
17184TIP3    H272968   3.542   4.544   5.741  0.4294  0.7038  1.1992
17185TIP3   OH272969   1.200   3.570  14.737  0.3714 -0.0964 -0.0589
17185TIP3    H172970   1.258   3.494  14.737 -0.3510 -0.7195 -1.7764
17185TIP3    H272971   1.184   3.588  14.644 -2.2966 -0.0967  0.3031
17186TIP3   OH272972   3.421   0.408  14.647  0.0361 -0.9350 -0.1934
17186TIP3    H172973   3.472   0.485  14.622  0.0213 -1.0301 -0.5303
17186TIP3    H272974   3.471   0.334  14.613 -0.5965 -0.9994 -1.0295
17187TIP3   OH272975   6.396   5.099  14.296 -0.3282 -0.2381 -0.6596
17187TIP3    H172976   6.331   5.164  14.270 -2.0822 -0.7727  2.0366
17187TIP3    H272977   6.369   5.019  14.252 -0.1465  0.0449 -1.3040
17188TIP3   OH272978   5.977   3.276   1.647 -0.3111 -0.3269  0.6278
17188TIP3    H172979   6.017   3.227   1.576 -1.4575 -0.0835 -0.2075
17188TIP3    H272980   5.967   3.212   1.717  1.5888 -0.3769  0.9295
17189TIP3   OH272981   4.647   3.271   3.591 -0.2998 -0.0923  0.0793
17189TIP3    H172982   4.625   3.257   3.499 -0.5719 -2.9987  0.5046
17189TIP3    H272983   4.742   3.275   3.592 -0.3016  0.1413 -0.3550
17190TIP3   OH272984   2.209   0.045  16.158 -0.3164  0.1156  0.0187
17190TIP3    H172985   2.222   0.122  16.214 -1.5541  0.2149  0.2123
17190TIP3    H272986   2.118   0.018  16.176 -0.3715 -0.5170 -1.1180
17191TIP3   OH272987   2.163   2.624  16.732 -0.5135  0.0495 -0.1427
17191TIP3    H172988   2.097   2.568  16.773  0.1905 -0.9464 -0.3486
17191TIP3    H272989   2.246   2.584  16.756 -0.0473  0.1439 -1.5263
17192TIP3   OH272990   6.230   0.630  13.561 -0.5266 -0.0951  0.2301
17192TIP3    H172991   6.195   0.602  13.477 -0.7727 -0.1411  0.3492
17192TIP3    H272992   6.158   0.676  13.604  0.4268  2.4350 -0.7617
17193TIP3   OH272993   0.948   2.294  14.747 -0.0556  0.4471  0.2941
17193TIP3    H172994   0.971   2.210  14.787 -1.5398  0.9717  2.4615
17193TIP3    H272995   1.029   2.345  14.749  0.8889 -0.9081 -1.1348
17194TIP3   OH272996   5.968   3.632   0.134 -0.1602  0.3317  0.7730
17194TIP3    H172997   5.986   3.723   0.112  1.3814 -0.2958 -0.7647
17194TIP3    H272998   6.045   3.584   0.103 -2.7208 -2.0637 -2.4750
17195TIP3   OH272999   1.684   4.634   1.681  0.0982  0.3532  0.1585
17195TIP3    H173000   1.675   4.725   1.710 -0.9908 -0.0381  1.1226
17195TIP3    H273001   1.624   4.627   1.607  0.8053  0.6260 -0.4499
17196TIP3   OH273002   6.483   0.267   6.051 -0.5906 -0.6015 -0.2693
17196TIP3    H173003   6.496   0.185   6.098 -1.4560  0.7363  2.4851
17196TIP3    H273004   6.571   0.295   6.027 -0.2050 -1.7715 -0.2774
17197TIP3   OH273005   1.585   6.641   2.438 -0.1514  0.0486 -0.2001
17197TIP3    H173006   1.499   6.615   2.471  1.2729 -0.9818  3.0397
17197TIP3    H273007   1.599   6.729   2.473  0.1134  0.2558 -0.8080
17198TIP3   OH273008   6.113   1.299  14.427 -0.0360  0.1386 -0.3786
17198TIP3    H173009   6.052   1.243  14.474  0.1840 -0.4497 -0.7884
17198TIP3    H273010   6.196   1.288  14.473 -0.2827  1.1578  0.3555
17199TIP3   OH273011   4.411   2.956   2.341 -0.9788 -0.1188  0.0391
17199TIP3    H173012   4.468   2.894   2.295  0.5281  1.1876  0.0532
17199TIP3    H273013   4.467   2.994   2.408 -2.1588  0.5312  0.6847
17200TIP3   OH273014   2.773   5.600   1.645 -0.0119  0.2979  0.2708
17200TIP3    H173015   2.809   5.523   1.688  0.6225  0.8426  0.7431
17200TIP3    H273016   2.849   5.648   1.613 -0.3589  0.9755  0.4238
17201TIP3   OH273017   5.678   6.395   0.690 -0.0011  0.3519  1.0086
17201TIP3    H173018   5.712   6.307   0.672 -1.1897 -0.1036  0.8743
17201TIP3    H273019   5.717   6.450   0.622  0.2743 -0.1844  0.7234
17202TIP3   OH273020   3.827   3.199  15.749  0.7353 -0.0885 -0.3055
17202TIP3    H173021   3.841   3.292  15.766  0.9507  0.1506 -1.7198
17202TIP3    H273022   3.873   3.181  15.667  2.4079 -1.9134  0.9345
17203TIP3   OH273023   4.194   1.407   5.072  0.6455 -0.1869  0.4052
17203TIP3    H173024   4.152   1.445   4.994  0.0213 -1.2650  0.1903
17203TIP3    H273025   4.269   1.358   5.038  0.5996 -0.3353  0.5145
17204TIP3   OH273026   2.323   6.401   3.202  0.4583 -0.4468 -0.0417
17204TIP3    H173027   2.259   6.457   3.246  1.1684 -1.0552  1.8579
17204TIP3    H273028   2.273   6.324   3.175  0.1813 -0.4440  0.4593
17205TIP3   OH273029   5.224   2.461   0.986 -0.0686  0.3135  0.4753
17205TIP3    H173030   5.220   2.452   1.081 -1.3469  2.1754  0.6585
17205TIP3    H273031   5.196   2.551   0.969  2.8101  0.9840 -1.5083
17206TIP3   OH273032   1.221   3.020  16.628  0.1378 -0.4430  0.1083
17206TIP3    H173033   1.182   3.085  16.569  2.6425  1.2738  0.1841
17206TIP3    H273034   1.201   3.053  16.716  0.7707 -0.1496  0.1495
17207TIP3   OH273035   1.280   5.219  15.853 -0.4001  0.3277 -0.1823
17207TIP3    H173036   1.287   5.202  15.947  0.4396 -0.8474 -0.4251
17207TIP3    H273037   1.364   5.191  15.818 -0.0043  2.4949 -1.0672
17208TIP3   OH273038   6.559   5.147  12.739 -0.5869 -0.0669  0.5135
17208TIP3    H173039   6.546   5.135  12.644  0.1099  2.3500  0.0603
17208TIP3    H273040   6.538   5.238  12.755  0.3212 -0.1639  2.5217
17209TIP3   OH273041   0.834   3.673  14.795 -0.2384  0.1888  0.4392
17209TIP3    H173042   0.750   3.626  14.792 -0.3975  0.4925 -0.0870
17209TIP3    H273043   0.877   3.640  14.873 -0.2496 -1.0049 -0.0420
17210TIP3   OH273044   0.987   2.516  12.488 -0.0064  0.1625 -0.0495
17210TIP3    H173045   0.921   2.469  12.436  0.0162  0.5820 -0.4686
17210TIP3    H273046   1.070   2.475  12.463 -0.0166  0.2281 -0.1905
17211TIP3   OH273047   5.995   2.443  11.001 -0.3104 -0.2608  0.1856
17211TIP3    H173048   5.983   2.434  10.907  1.3596  0.7003 -0.1581
17211TIP3    H273049   5.909   2.470  11.034 -1.0548 -1.1473 -0.9582
17212TIP3   OH273050   0.085   5.237   5.540  0.0926 -0.1339  0.1800
17212TIP3    H173051   0.146   5.244   5.466 -1.0674 -2.3587 -1.0761
17212TIP3    H273052   0.127   5.176   5.600  0.4545  0.7016  0.7988
17213TIP3   OH273053   1.966   3.693   5.899  0.1376 -0.2038 -0.0761
17213TIP3    H173054   1.880   3.669   5.862 -0.4869  0.6097  0.8279
17213TIP3    H273055   1.958   3.786   5.920  1.3713 -0.0361 -0.3060
17214TIP3   OH273056   4.764   0.538  13.236 -0.1244  0.1341 -0.1442
17214TIP3    H173057   4.813   0.515  13.315 -0.4208 -2.0914 -0.5576
17214TIP3    H273058   4.760   0.457  13.185 -1.8286  0.9597 -1.4295
17215TIP3   OH273059   1.633   1.711   3.002  0.0467  0.0494  0.0342
17215TIP3    H173060   1.653   1.738   3.091 -2.5060  1.1126  0.3946
17215TIP3    H273061   1.602   1.791   2.959  1.7934 -0.2948 -2.0500
17216TIP3   OH273062   3.125   0.889  15.732 -0.0004 -0.3449  0.0775
17216TIP3    H173063   3.179   0.957  15.773  1.3054 -0.0585 -2.0238
17216TIP3    H273064   3.154   0.808  15.773 -1.2349  0.2270  2.2605
17217TIP3   OH273065   6.522   1.879  14.765  0.1837  0.2102 -0.4813
17217TIP3    H173066   6.518   1.795  14.810 -0.5780  0.0003 -0.9150
17217TIP3    H273067   6.459   1.935  14.811  0.9544  0.6709  0.0381
17218TIP3   OH273068   0.797   4.802  17.231  0.6247  0.0858  1.0221
17218TIP3    H173069   0.737   4.871  17.203  2.7769  1.9260  0.6380
17218TIP3    H273070   0.741   4.736  17.271 -1.8616  0.5976 -1.3214
17219TIP3   OH273071   2.407   6.682   2.836 -0.0716 -0.2146  0.0081
17219TIP3    H173072   2.337   6.734   2.874  0.5598  0.8226 -0.2195
17219TIP3    H273073   2.449   6.739   2.772  2.0234 -0.1869  1.2942
17220TIP3   OH273074   0.708   5.806   0.874 -0.3270  0.4758  0.6785
17220TIP3    H173075   0.729   5.826   0.783  0.7583 -0.0757  0.7920
17220TIP3    H273076   0.621   5.843   0.887 -0.3874  0.7941 -0.5039
17221TIP3   OH273077   0.243   1.196   6.184  0.0884  0.0133  0.0009
17221TIP3    H173078   0.171   1.148   6.225  1.1117 -1.4447  0.2159
17221TIP3    H273079   0.230   1.184   6.090  0.4711 -0.9702  0.0556
17222TIP3   OH273080   5.476   5.047  13.252  0.0148 -0.0981 -0.1397
17222TIP3    H173081   5.417   5.114  13.216  0.4183 -0.2984 -1.2292
17222TIP3    H273082   5.559   5.094  13.265  0.0204 -0.1561  0.0343
17223TIP3   OH273083   2.171   5.483  14.874  0.1767 -0.2670  0.1097
17223TIP3    H173084   2.161   5.441  14.789  0.7607  0.5980 -0.3967
17223TIP3    H273085   2.265   5.477  14.893 -0.0091 -0.8571  0.9102
17224TIP3   OH273086   5.231   4.336   4.474 -0.3323 -0.5335 -0.0076
17224TIP3    H173087   5.155   4.297   4.516  0.7167 -0.3929  2.1608
17224TIP3    H273088   5.232   4.427   4.504 -0.0795 -0.1278 -1.1636
17225TIP3   OH273089   1.409   0.733  12.684 -0.1241 -0.3166  0.0315
17225TIP3    H173090   1.346   0.755  12.615 -1.3810  0.9888  1.5023
17225TIP3    H273091   1.357   0.736  12.764  1.0969 -2.6280  0.9915
17226TIP3   OH273092   1.615   2.912   1.880  0.1058  0.3083 -0.0268
17226TIP3    H173093   1.558   2.883   1.808  1.7265 -0.9003 -0.8758
17226TIP3    H273094   1.628   2.834   1.934  0.4649  0.7239  0.4973
17227TIP3   OH273095   1.425   4.606  11.720 -0.1792 -0.3082  0.4474
17227TIP3    H173096   1.473   4.674  11.673 -0.1069 -0.1206  0.7889
17227TIP3    H273097   1.417   4.639  11.809  0.7197 -1.1842  0.8701
17228TIP3   OH273098   2.106   0.019   1.810  0.0046  0.5896 -0.4224
17228TIP3    H173099   2.091  -0.050   1.745 -2.1982 -2.2669  2.7518
17228TIP3    H273100   2.027   0.072   1.808 -0.6644 -0.3033  0.6539
17229TIP3   OH273101   1.286   3.339   2.739 -0.7669 -0.1054  0.1288
17229TIP3    H173102   1.304   3.246   2.747  2.5517  0.3793 -0.1349
17229TIP3    H273103   1.283   3.371   2.829 -3.1648 -0.5582  0.2815
17230TIP3   OH273104   5.166   0.829  12.586 -0.1588 -0.4341  0.1951
17230TIP3    H173105   5.129   0.835  12.498 -1.6872 -0.8753  0.7751
17230TIP3    H273106   5.142   0.911  12.628  0.2387 -0.3844  0.3345
17231TIP3   OH273107   1.807   2.864   4.188 -0.2250  0.3901 -0.0462
17231TIP3    H173108   1.822   2.887   4.096  0.2972  0.2942  0.0153
17231TIP3    H273109   1.884   2.814   4.213 -1.1043 -1.0232 -0.0286
17232TIP3   OH273110   4.726   1.873   0.073  0.1743 -0.0140 -0.2086
17232TIP3    H173111   4.732   1.866   0.168 -2.1410  1.8985  0.1901
17232TIP3    H273112   4.673   1.951   0.058 -2.6229 -2.1492 -2.9384
17233TIP3   OH273113   4.005   3.023   3.460  0.6505 -0.5821 -0.2104
17233TIP3    H173114   3.942   2.980   3.402 -1.5553  1.5740  0.3493
17233TIP3    H273115   4.001   3.115   3.434  0.7104  0.2117  2.3165
17234TIP3   OH273116   3.941   3.274  15.236  0.2643  0.9365  0.0999
17234TIP3    H173117   3.958   3.211  15.167  0.6320  3.0437 -1.8404
17234TIP3    H273118   3.938   3.359  15.192 -1.0569  2.2331  2.4460
17235TIP3   OH273119   4.829   1.184   1.969 -0.3509 -0.0809 -0.1667
17235TIP3    H173120   4.735   1.195   1.954 -0.5264  0.1705  1.0202
17235TIP3    H273121   4.858   1.270   2.000 -0.3117 -0.8848  2.2127
17236TIP3   OH273122   5.056   4.783  15.755  0.4814  0.2608  0.4816
17236TIP3    H173123   5.008   4.749  15.679 -0.0791  0.9806  0.5055
17236TIP3    H273124   5.123   4.717  15.772 -0.3188 -0.6368  0.2631
17237TIP3   OH273125   0.129   6.146  15.975 -0.2428  0.3115  0.0130
17237TIP3    H173126   0.160   6.072  16.026 -1.9184  0.1982  0.9310
17237TIP3    H273127   0.047   6.173  16.017 -0.4835  1.6958 -1.2243
17238TIP3   OH273128   3.511   5.942   0.804  0.3899  0.0014 -0.2763
17238TIP3    H173129   3.517   6.003   0.878  1.8297 -0.8528  0.3693
17238TIP3    H273130   3.510   5.855   0.845 -0.9025 -0.4440 -1.2012
17239TIP3   OH273131   6.623   4.515  15.203  0.2527 -0.2478 -0.0577
17239TIP3    H173132   6.716   4.539  15.206  1.0596 -2.9191 -0.9025
17239TIP3    H273133   6.610   4.482  15.114 -1.9527  1.4670 -0.4539
17240TIP3   OH273134   6.351   4.160  14.764 -0.2685 -0.3309 -0.1135
17240TIP3    H173135   6.318   4.210  14.839  1.6597  1.4112 -0.3182
17240TIP3    H273136   6.403   4.090  14.804 -0.4731 -0.3150  0.1865
17241TIP3   OH273137   3.320   0.984  17.043  0.6688 -0.8015 -0.4039
17241TIP3    H173138   3.270   1.040  16.983  1.0091 -1.5228 -1.3877
17241TIP3    H273139   3.302   0.895  17.013 -0.6094 -1.3273  1.7132
17242TIP3   OH273140   5.282   1.104   4.843 -0.0887  0.2629 -0.7237
17242TIP3    H173141   5.318   1.019   4.816  2.2775  0.4130  1.5730
17242TIP3    H273142   5.288   1.158   4.764 -0.1755 -1.2409 -1.8058
17243TIP3   OH273143   5.816   1.494  13.351 -0.1258 -0.3164  0.4037
17243TIP3    H173144   5.774   1.439  13.416 -0.1148 -0.4126  0.3294
17243TIP3    H273145   5.889   1.535  13.397  1.0353 -1.8310 -0.0279
17244TIP3   OH273146   6.511   6.628  13.060  0.4344  0.2176  0.3872
17244TIP3    H173147   6.509   6.568  12.986  1.2242  0.7771 -0.0993
17244TIP3    H273148   6.590   6.680  13.047  0.9236 -0.0832  1.9516
17245TIP3   OH273149   4.484   1.960   5.715  0.5624 -0.4962  0.0052
17245TIP3    H173150   4.457   1.895   5.650 -1.1548 -0.1076  0.2664
17245TIP3    H273151   4.476   1.915   5.799 -1.7844  0.3157  0.2920
17246TIP3   OH273152   6.517   1.385   3.667 -0.3808  0.0837  0.2803
17246TIP3    H173153   6.515   1.333   3.747  2.4790 -0.0304  0.3817
17246TIP3    H273154   6.570   1.462   3.689 -0.8339  0.8301 -1.0890
17247TIP3   OH273155   3.160   3.589   1.392 -0.0053 -0.0359  0.0995
17247TIP3    H173156   3.153   3.573   1.298  0.2568  0.9184 -0.0956
17247TIP3    H273157   3.086   3.647   1.412 -0.3010 -0.5669  0.5638
17248TIP3   OH273158   1.110   2.556  13.669  0.6272  0.2917 -0.3052
17248TIP3    H173159   1.065   2.473  13.653 -0.0915  0.7727 -0.8152
17248TIP3    H273160   1.122   2.594  13.582 -0.4007  1.4114  0.0200
17249TIP3   OH273161   4.523   4.960   3.842  0.4794  0.3648  0.1309
17249TIP3    H173162   4.495   4.901   3.911 -0.9381 -0.5803 -1.1939
17249TIP3    H273163   4.489   4.922   3.761  1.0350  2.0595 -0.9751
17250TIP3   OH273164   6.464   6.251  14.565 -1.0128  0.1766 -0.1177
17250TIP3    H173165   6.389   6.205  14.528 -1.8323  0.3146  1.2980
17250TIP3    H273166   6.533   6.184  14.569 -1.4281 -0.2718 -0.3436
17251TIP3   OH273167   5.170   0.092   4.552 -0.1004 -0.0075 -0.3472
17251TIP3    H173168   5.174   0.051   4.639 -0.7713  0.0172 -0.2974
17251TIP3    H273169   5.189   0.021   4.491 -2.1210 -0.6352 -0.3104
17252TIP3   OH273170   5.068   0.241   3.962  0.5528 -0.8234  0.1625
17252TIP3    H173171   5.102   0.207   4.044  2.7231 -0.7968 -0.6795
17252TIP3    H273172   5.071   0.166   3.902 -1.7257 -1.0538  0.2349
17253TIP3   OH273173   0.271   3.935   1.989  0.2514 -0.3507  0.0507
17253TIP3    H173174   0.207   4.001   1.961  2.4860  1.9640  0.0018
17253TIP3    H273175   0.289   3.957   2.080  0.6703 -1.2592  0.1952
17254TIP3   OH273176   5.819   2.504  13.419  0.2845  0.0548  1.0706
17254TIP3    H173177   5.832   2.564  13.346 -1.0452 -1.1803 -0.2507
17254TIP3    H273178   5.783   2.558  13.489 -1.7526  0.6976 -0.3834
17255TIP3   OH273179   4.239   0.062   1.716  0.0755  0.2277 -0.0469
17255TIP3    H173180   4.210   0.153   1.707 -1.5023  0.0254  2.2584
17255TIP3    H273181   4.231   0.043   1.809  1.4978 -1.9495 -0.2932
17256TIP3   OH273182   3.194   4.562   1.625 -0.4447 -0.3437  0.3215
17256TIP3    H173183   3.154   4.649   1.612  1.0970  0.5545  1.3007
17256TIP3    H273184   3.240   4.545   1.542  1.7145  1.1852  1.1135
17257TIP3   OH273185   2.288   1.263  13.523 -0.2334 -0.4397  0.0907
17257TIP3    H173186   2.353   1.271  13.454  0.8944 -0.9564  1.0613
17257TIP3    H273187   2.204   1.254  13.477  0.4493 -0.4324 -1.1789
17258TIP3   OH273188   5.515   2.342  15.273  0.4087 -0.1229 -0.5845
17258TIP3    H173189   5.501   2.325  15.180  1.0921  0.2892 -0.7707
17258TIP3    H273190   5.506   2.437  15.282  2.2900  0.0766 -0.5905
17259TIP3   OH273191   5.510   2.218  17.077  0.1086  0.5150  0.0607
17259TIP3    H173192   5.511   2.265  16.993 -0.4217  1.1236  0.3946
17259TIP3    H273193   5.576   2.263  17.130  1.0532 -0.4025 -0.3077
17260TIP3   OH273194   5.556   1.610  13.826 -0.2937 -0.6841  0.4303
17260TIP3    H173195   5.597   1.559  13.897  0.3516  0.3585  0.8297
17260TIP3    H273196   5.591   1.698  13.837 -0.6777 -0.3615 -0.8188
17261TIP3   OH273197   5.690   6.226   0.952 -0.0124 -0.3825 -0.4938
17261TIP3    H173198   5.693   6.286   0.878 -1.2559  0.5771  0.2139
17261TIP3    H273199   5.690   6.282   1.029  0.5859 -1.3503  0.2307
17262TIP3   OH273200   5.677   0.677  12.732  0.4178 -0.2275  0.0765
17262TIP3    H173201   5.750   0.615  12.733  1.6979  1.1877 -0.2954
17262TIP3    H273202   5.624   0.651  12.658  0.9573 -0.8606 -0.0946
17263TIP3   OH273203   2.234   4.140  14.128  0.0860  0.0494 -0.9074
17263TIP3    H173204   2.225   4.152  14.222 -2.6621  1.0678 -1.2132
17263TIP3    H273205   2.265   4.050  14.118 -1.8980 -0.9421  0.9582
17264TIP3   OH273206   0.509   4.711   2.626 -0.1400  0.0696  0.0950
17264TIP3    H173207   0.537   4.784   2.681 -0.2283  0.0063  0.2238
17264TIP3    H273208   0.489   4.640   2.687 -0.1609 -0.0273 -0.0227
17265TIP3   OH273209   0.816   6.458   1.510 -0.0582  0.2503 -0.2492
17265TIP3    H173210   0.902   6.419   1.529 -0.2251  1.1766  2.9268
17265TIP3    H273211   0.756   6.383   1.511  0.5613 -0.3071 -1.7336
17266TIP3   OH273212   4.549   3.456  14.178  0.0011  0.1276 -0.7184
17266TIP3    H173213   4.623   3.430  14.232 -0.8169 -0.6292  0.0779
17266TIP3    H273214   4.480   3.477  14.240 -0.6122  0.3351 -1.4504
17267TIP3   OH273215   3.882   5.780   0.476 -0.2969 -0.0736  0.9011
17267TIP3    H173216   3.859   5.830   0.554 -2.9557 -1.4496  1.1169
17267TIP3    H273217   3.838   5.696   0.487  0.4317 -0.8481 -1.4284
17268TIP3   OH273218   4.043   6.331  16.490  0.5441  0.3642  0.4099
17268TIP3    H173219   4.046   6.277  16.411  1.2491 -1.4826  1.6301
17268TIP3    H273220   3.965   6.300  16.537  0.5614  0.9033  0.8050
17269TIP3   OH273221   4.761   3.316  14.366  0.7650 -0.2971  0.2331
17269TIP3    H173222   4.816   3.374  14.418  0.7057  0.3325 -0.3917
17269TIP3    H273223   4.821   3.246  14.338  1.1901  0.2158 -0.1768
17270TIP3   OH273224   5.395   2.302  15.520  0.2585 -0.5553  0.2780
17270TIP3    H173225   5.421   2.329  15.431  1.1783  0.3941  0.8092
17270TIP3    H273226   5.393   2.384  15.569 -1.9760 -0.8354  0.7375
17271TIP3   OH273227   1.552   3.895  11.006  0.1680 -0.0586 -0.0504
17271TIP3    H173228   1.512   3.870  10.923 -0.5411 -3.4388  1.1415
17271TIP3    H273229   1.647   3.889  10.990  0.0588  0.1273 -0.8024
17272TIP3   OH273230   2.397   3.097   2.243  0.1090 -0.4988  0.3627
17272TIP3    H173231   2.425   3.006   2.234  1.0020 -0.4061  1.8719
17272TIP3    H273232   2.302   3.094   2.230 -0.1477 -1.9576  2.1432
17273TIP3   OH273233   1.276   1.187   2.158  0.2300 -0.2554 -0.4081
17273TIP3    H173234   1.312   1.194   2.246  0.0422  1.1835 -0.4278
17273TIP3    H273235   1.183   1.167   2.171 -0.2095  1.6995 -0.1913
17274TIP3   OH273236   6.191   3.748   6.105 -0.2233 -0.0937 -0.2135
17274TIP3    H173237   6.136   3.720   6.032  1.6995 -2.8673 -0.7472
17274TIP3    H273238   6.197   3.843   6.095  0.0533 -0.3421 -3.7813
17275TIP3   OH273239   0.900   2.217  17.189 -0.6643 -0.0306 -0.1524
17275TIP3    H173240   0.879   2.133  17.228  2.0797 -0.7347 -0.0465
17275TIP3    H273241   0.950   2.196  17.110 -2.8895  1.4686 -2.1441
17276TIP3   OH273242   3.804   3.939   2.130 -0.0571 -0.0477 -0.4162
17276TIP3    H173243   3.716   3.963   2.101  0.5636  2.1392 -0.6894
17276TIP3    H273244   3.856   4.018   2.116  1.8474 -1.1181  0.2321
17277TIP3   OH273245   4.211   3.309   5.067 -0.5148  0.1622 -0.0317
17277TIP3    H173246   4.248   3.290   4.981  0.3540 -0.6085  0.4971
17277TIP3    H273247   4.124   3.345   5.048  0.1387  1.1998 -1.2641
17278TIP3   OH273248   1.791   5.905  13.575 -0.1557 -1.1040 -0.3258
17278TIP3    H173249   1.700   5.903  13.548 -0.4361  2.1337 -0.0627
17278TIP3    H273250   1.838   5.859  13.506 -1.7782 -1.0326 -1.5314
17279TIP3   OH273251   3.346   1.881   1.044  0.0703 -0.2074 -0.5525
17279TIP3    H173252   3.307   1.834   1.118 -1.8305 -0.3712 -1.6022
17279TIP3    H273253   3.273   1.929   1.004  1.3374  1.0522 -1.4567
17280TIP3   OH273254   5.107   1.052   2.177 -0.5507 -0.1131 -0.4302
17280TIP3    H173255   5.156   0.974   2.204 -0.4574 -0.2913 -1.0894
17280TIP3    H273256   5.015   1.025   2.179 -0.4830 -0.4625 -1.2982
17281TIP3   OH273257   0.419   4.374   2.290 -0.1558 -0.1668 -0.4569
17281TIP3    H173258   0.401   4.370   2.196  2.1932 -1.7186 -0.9463
17281TIP3    H273259   0.496   4.429   2.297 -1.2586  1.2867  0.8053
17282TIP3   OH273260   3.900   4.577  11.770  0.6941 -0.1481 -0.7881
17282TIP3    H173261   3.960   4.583  11.696  1.5928  2.6251  0.0550
17282TIP3    H273262   3.956   4.574  11.847 -0.2303 -0.5689 -0.1105
17283TIP3   OH273263   6.245   0.050  16.499 -0.4809 -0.2255 -0.1171
17283TIP3    H173264   6.294   0.103  16.563  1.0584 -0.4004 -1.1079
17283TIP3    H273265   6.153   0.058  16.527  0.1667 -0.7696  2.4764
17284TIP3   OH273266   5.118   4.304  16.679 -0.1702 -0.4312  0.8951
17284TIP3    H173267   5.029   4.270  16.689 -0.9814  1.3693  0.3813
17284TIP3    H273268   5.113   4.357  16.599  1.3375 -0.1963  0.9424
17285TIP3   OH273269   6.002   4.105  14.392  0.3910  0.5287 -0.2209
17285TIP3    H173270   6.014   4.150  14.308 -4.0293  3.6335  0.4371
17285TIP3    H273271   6.062   4.149  14.451  1.4123  0.3952 -1.1335
17286TIP3   OH273272   0.689   3.329  12.311 -0.7190  0.0521 -0.2035
17286TIP3    H173273   0.717   3.278  12.387 -0.3132  0.7417  0.1257
17286TIP3    H273274   0.736   3.290  12.237 -1.2582 -0.7387 -0.1350
17287TIP3   OH273275   5.429   3.947  14.093 -0.2869 -0.1973 -0.6642
17287TIP3    H173276   5.394   3.863  14.065 -1.1979  0.0550 -0.3197
17287TIP3    H273277   5.357   4.009  14.079  0.0985  0.3776 -0.1512
17288TIP3   OH273278   3.095   2.050   6.877 -0.1346  0.2966  0.4780
17288TIP3    H173279   3.021   2.002   6.916  0.6250 -0.5668  0.8863
17288TIP3    H273280   3.167   1.987   6.876  0.4706  0.9796 -0.3629
17289TIP3   OH273281   3.113   0.621   3.551  0.3635  0.0491 -0.6461
17289TIP3    H173282   3.182   0.686   3.567  0.4752 -0.3659  0.6970
17289TIP3    H273283   3.159   0.548   3.509  0.9515 -0.5405  0.9135
17290TIP3   OH273284   3.019   3.688   5.402 -0.5027  0.3541 -0.2416
17290TIP3    H173285   3.030   3.713   5.311 -1.3503  1.1500 -0.1415
17290TIP3    H273286   3.101   3.715   5.444 -0.7257  1.4680 -0.4723
17291TIP3   OH273287   5.351   5.256   2.920  0.2158  0.1625 -0.0872
17291TIP3    H173288   5.358   5.351   2.929  0.3241  0.3501 -1.7567
17291TIP3    H273289   5.257   5.240   2.911  0.0789 -0.0564  1.5373
17292TIP3   OH273290   4.258   2.930  12.614  0.0103  0.2269 -0.0455
17292TIP3    H173291   4.254   2.928  12.709 -0.6381 -2.4225 -0.0343
17292TIP3    H273292   4.285   2.841  12.589 -1.7498  0.2303 -2.3572
17293TIP3   OH273293   5.259   5.019  15.680 -0.0224 -0.2409  0.5442
17293TIP3    H173294   5.208   4.960  15.734 -1.4434  0.3170 -0.1312
17293TIP3    H273295   5.285   4.967  15.604  1.3187 -0.8098  1.3700
17294TIP3   OH273296   4.222   0.318   0.664  0.1748  0.5164 -0.0147
17294TIP3    H173297   4.215   0.260   0.588 -1.6437  0.9715 -0.2430
17294TIP3    H273298   4.311   0.353   0.659  0.0017  0.7866 -2.1478
17295TIP3   OH273299   1.459   3.809  17.245  0.1296  0.0880 -0.0315
17295TIP3    H173300   1.386   3.870  17.257  0.8802  0.7843  1.2196
17295TIP3    H273301   1.423   3.723  17.264 -0.4292  0.4068  0.3751
17296TIP3   OH273302   3.138   2.327  17.115  0.5033  0.4913 -0.6312
17296TIP3    H173303   3.098   2.278  17.043  0.3640 -0.3210 -0.0098
17296TIP3    H273304   3.087   2.408  17.120 -3.2782 -1.7294  2.1090
17297TIP3   OH273305   3.301   6.460  15.028 -0.6320  0.5633 -0.4081
17297TIP3    H173306   3.346   6.516  15.091 -0.1874  0.6363 -0.7842
17297TIP3    H273307   3.222   6.430  15.074 -0.6319  1.1196 -0.0445
17298TIP3   OH273308   0.826   6.125   3.922 -0.4647 -0.2749 -0.6292
17298TIP3    H173309   0.910   6.091   3.891  0.0318  0.4477 -0.1044
17298TIP3    H273310   0.824   6.216   3.894 -0.1152  0.3324  1.1546
17299TIP3   OH273311   1.735   3.491   6.407  0.3839 -0.2026 -0.3019
17299TIP3    H173312   1.805   3.554   6.424  0.6599 -0.9181  1.4911
17299TIP3    H273313   1.654   3.542   6.412  0.6534  0.1748  0.3344
17300TIP3   OH273314   4.273   3.285  14.662  0.0599 -0.2208  0.2376
17300TIP3    H173315   4.248   3.293  14.754 -0.9484  0.9306 -0.1082
17300TIP3    H273316   4.353   3.233  14.663  0.6573  0.6593  1.8464
17301TIP3   OH273317   5.691   1.641  16.438  0.3123 -0.2416  0.1922
17301TIP3    H173318   5.668   1.722  16.393  2.4397  0.7560  0.7623
17301TIP3    H273319   5.634   1.639  16.514 -1.6556 -0.7249 -1.2256
17302TIP3   OH273320   3.745   0.313  16.704 -0.0226 -0.3790 -0.2315
17302TIP3    H173321   3.837   0.338  16.693 -0.9562  3.0835 -1.1540
17302TIP3    H273322   3.700   0.394  16.729 -2.9215 -1.8793 -0.1209
17303TIP3   OH273323   2.395   1.073   6.555  0.2761 -0.0516  0.4136
17303TIP3    H173324   2.299   1.073   6.555  0.1955  0.4244  3.3364
17303TIP3    H273325   2.419   0.981   6.556 -0.2374 -0.1892  1.5738
17304TIP3   OH273326   4.011   6.600   3.946 -0.0406  0.2161  0.3861
17304TIP3    H173327   3.944   6.552   3.897  1.2415 -0.2121 -1.0301
17304TIP3    H273328   4.027   6.546   4.023 -0.6720 -0.1429  0.2756
17305TIP3   OH273329   0.980   1.204   1.009 -0.2438  0.1380 -0.2499
17305TIP3    H173330   1.003   1.151   1.085 -0.7183  0.3315  0.0309
17305TIP3    H273331   0.917   1.268   1.042 -2.8533 -1.6705 -1.4256
17306TIP3   OH273332   3.013   5.402   1.974 -1.2049 -0.9986 -0.3066
17306TIP3    H173333   3.049   5.389   1.886 -0.8849 -1.0162 -0.1738
17306TIP3    H273334   2.950   5.330   1.984 -1.7881 -0.5618 -0.8024
17307TIP3   OH273335   0.370   1.640  15.882 -0.0265 -0.0628 -0.1104
17307TIP3    H173336   0.277   1.620  15.889 -0.0575 -0.4001 -1.2809
17307TIP3    H273337   0.414   1.562  15.915 -0.1364  0.4149  1.2325
17308TIP3   OH273338   0.357   4.833  17.387  0.0644  0.2100 -0.0550
17308TIP3    H173339   0.263   4.812  17.386 -0.0227  0.5764  0.4223
17308TIP3    H273340   0.361   4.927  17.400  0.5127 -0.0076  1.6955
17309TIP3   OH273341   1.688   4.728   6.220  0.2589  0.0991  0.2859
17309TIP3    H173342   1.656   4.782   6.148 -0.5769 -0.5131  0.1788
17309TIP3    H273343   1.777   4.759   6.236 -0.9145  3.1150  1.7978
17310TIP3   OH273344   1.947   6.620   1.365  0.2260  0.4294 -0.2667
17310TIP3    H173345   1.988   6.574   1.292 -1.8560 -1.1839 -0.5291
17310TIP3    H273346   1.900   6.693   1.325 -0.2502  0.0189 -0.4762
17311TIP3   OH273347   2.813   1.965   4.224 -0.1486  0.2248  0.2256
17311TIP3    H173348   2.859   1.914   4.291  0.3462  1.0966  0.5681
17311TIP3    H273349   2.753   1.903   4.183  1.9905 -1.2171 -0.8965
17312TIP3   OH273350   4.944   0.163   2.077  0.2999  0.3520 -0.1353
17312TIP3    H173351   4.872   0.154   2.014 -1.3465 -1.7751  1.8393
17312TIP3    H273352   4.972   0.254   2.069 -2.2874  1.1489 -1.3516
17313TIP3   OH273353   1.155   0.591  14.338  0.1196  0.1449 -0.2259
17313TIP3    H173354   1.131   0.583  14.431  0.0541 -0.5077 -0.2988
17313TIP3    H273355   1.181   0.683  14.329 -0.0626  0.2671  0.3940
17314TIP3   OH273356   5.051   5.974  11.081 -0.1123 -0.2881  0.1939
17314TIP3    H173357   5.114   5.905  11.101 -0.0783 -1.0740 -2.3147
17314TIP3    H273358   5.058   5.986  10.986 -0.6624  2.6650  0.4433
17315TIP3   OH273359   0.131   5.111   5.780 -0.0402  0.0127 -0.1627
17315TIP3    H173360   0.205   5.092   5.838  1.6846  0.8264 -1.9657
17315TIP3    H273361   0.119   5.206   5.787 -0.9862 -0.1181  0.1482
17316TIP3   OH273362   3.539   6.454  13.138  0.0649 -0.0685 -0.0954
17316TIP3    H173363   3.498   6.397  13.074  2.1724  1.3412 -2.9438
17316TIP3    H273364   3.579   6.395  13.201 -3.5675 -1.4818  1.1167
17317TIP3   OH273365   6.091   0.706  12.343  0.2494 -0.2754 -0.3242
17317TIP3    H173366   5.999   0.700  12.369  0.0851  1.4061 -0.3974
17317TIP3    H273367   6.121   0.790  12.379  1.6870 -0.6940 -0.5000
17318TIP3   OH273368   4.525   5.050  11.361  0.1801 -0.4602 -0.2695
17318TIP3    H173369   4.503   4.968  11.406 -1.5275  0.5893  0.9400
17318TIP3    H273370   4.443   5.100  11.363  1.8254  2.3583  1.3899
17319TIP3   OH273371   0.061   2.933   1.654 -0.6733 -0.6868 -0.0586
17319TIP3    H173372   0.149   2.961   1.628 -0.7991  1.9272  1.8748
17319TIP3    H273373   0.076   2.858   1.711  0.3911  0.0512  0.6807
17320TIP3   OH273374   1.900   6.665  14.226 -0.3975  0.2653  0.0462
17320TIP3    H173375   1.813   6.628  14.209  0.1592 -1.0340 -0.0544
17320TIP3    H273376   1.918   6.718  14.148 -0.0757 -1.4627 -1.1105
17321TIP3   OH273377   3.036   5.650   1.590 -0.2513  0.5802  0.0382
17321TIP3    H173378   3.031   5.574   1.533 -0.2011 -1.1519  2.2172
17321TIP3    H273379   3.126   5.651   1.622  0.1008  2.3136 -0.8667
17322TIP3   OH273380   0.805   3.617  14.539 -0.1095  0.0337 -0.3154
17322TIP3    H173381   0.850   3.643  14.619 -0.7738  1.8358 -0.4948
17322TIP3    H273382   0.716   3.594  14.568 -0.7187  1.8441 -0.6460
17323TIP3   OH273383   6.032   2.591  15.234  0.2078  0.1805 -0.1058
17323TIP3    H173384   6.002   2.654  15.300 -0.3564 -1.3932  1.1905
17323TIP3    H273385   6.100   2.638  15.186  0.5754  1.4158  1.5259
17324TIP3   OH273386   2.463   2.444  12.820 -0.4105  0.3184 -0.0020
17324TIP3    H173387   2.431   2.454  12.910  1.2683 -0.5845  0.7461
17324TIP3    H273388   2.475   2.534  12.789 -2.1908  0.6575  0.1898
17325TIP3   OH273389   5.145   4.859   2.655  0.6599  0.2403 -0.2066
17325TIP3    H173390   5.228   4.906   2.656 -0.4297  2.3527 -1.9030
17325TIP3    H273391   5.129   4.840   2.563 -2.1348  2.6783 -0.3650
17326TIP3   OH273392   6.224   3.916   5.359  0.4545  0.0169 -0.4056
17326TIP3    H173393   6.208   3.825   5.331 -0.2447  0.0128 -0.0117
17326TIP3    H273394   6.295   3.908   5.423  1.5287 -0.0591 -1.5683
17327TIP3   OH273395   4.644   5.321  13.710 -0.1346  0.0622 -1.0137
17327TIP3    H173396   4.708   5.259  13.673  0.7641  0.8019 -0.7512
17327TIP3    H273397   4.661   5.319  13.804  0.4404  1.2659 -1.0758
17328TIP3   OH273398   3.643   5.043   5.047 -0.0538 -0.1050 -0.6628
17328TIP3    H173399   3.561   5.082   5.019 -0.0947  1.7822  1.7179
17328TIP3    H273400   3.708   5.113   5.038  0.7319 -0.7284 -0.0797
17329TIP3   OH273401   3.727   5.371  11.799  0.2256 -0.4780 -0.1641
17329TIP3    H173402   3.713   5.331  11.713 -0.4756  0.1161 -0.3422
17329TIP3    H273403   3.806   5.329  11.833 -0.1640 -1.5758 -0.5864
17330TIP3   OH273404   3.185   4.396   4.483  0.6714  0.2727 -0.3414
17330TIP3    H173405   3.274   4.362   4.473  0.6865  0.1286  0.2349
17330TIP3    H273406   3.182   4.428   4.573  0.0246 -0.0618 -0.2399
17331TIP3   OH273407   2.512   2.300   1.357 -0.2119 -0.1653 -0.3795
17331TIP3    H173408   2.570   2.226   1.373 -1.4035 -0.8846  0.8136
17331TIP3    H273409   2.446   2.265   1.297 -0.4780  0.0877 -0.2350
17332TIP3   OH273410   1.505   6.094  15.230  0.0347 -0.4731  0.7767
17332TIP3    H173411   1.424   6.126  15.189  0.1650 -1.0656  0.0487
17332TIP3    H273412   1.551   6.174  15.257  0.9429  0.0914 -2.1320
17333TIP3   OH273413   4.955   3.745  13.349 -0.0651  0.2524 -0.4712
17333TIP3    H173414   4.882   3.702  13.393 -1.0163 -1.0132 -3.1075
17333TIP3    H273415   5.033   3.697  13.378 -0.5236  0.1514  0.6237
17334TIP3   OH273416   1.351   1.026  13.352  0.3753  0.1761  0.1319
17334TIP3    H173417   1.385   0.938  13.337 -0.2974  0.0975 -1.0996
17334TIP3    H273418   1.277   1.034  13.291 -0.5987  1.0145  1.3629
17335TIP3   OH273419   1.743   4.349  11.860  0.6120 -0.3607 -0.3266
17335TIP3    H173420   1.788   4.265  11.863  1.7130  0.1953 -0.7030
17335TIP3    H273421   1.765   4.391  11.943 -1.2230 -1.0611  0.5549
17336TIP3   OH273422   1.362   4.038   0.414  0.1128  0.2472 -0.5017
17336TIP3    H173423   1.426   4.048   0.344 -0.3220  1.1016 -0.7749
17336TIP3    H273424   1.299   4.108   0.401 -0.8768 -0.5616 -0.2117
17337TIP3   OH273425   4.595   2.155  13.672 -0.0048 -0.1960  0.5819
17337TIP3    H173426   4.683   2.185  13.648  0.7055 -2.6451 -0.1117
17337TIP3    H273427   4.608   2.105  13.752 -0.5401 -1.5044 -0.1167
17338TIP3   OH273428   4.989   0.362  14.288  0.0407 -0.2752 -0.2777
17338TIP3    H173429   5.035   0.382  14.207 -0.3888  1.7873 -0.0513
17338TIP3    H273430   4.897   0.353  14.262  0.0012 -0.3124 -0.1267
17339TIP3   OH273431   1.407   1.812   5.700 -0.0020 -0.8832 -0.1441
17339TIP3    H173432   1.447   1.742   5.752 -0.1452 -0.8765 -0.0236
17339TIP3    H273433   1.332   1.770   5.658 -0.1479 -0.7785  0.0096
17340TIP3   OH273434   1.860   3.898  14.139 -1.0095 -0.2983 -0.4833
17340TIP3    H173435   1.846   3.963  14.070  3.0761  1.1711 -0.1642
17340TIP3    H273436   1.946   3.919  14.175 -0.7973 -4.0970  1.7229
17341TIP3   OH273437   3.375   0.606  12.236 -0.0616  0.1668  0.3358
17341TIP3    H173438   3.359   0.665  12.310 -1.1365  0.6093 -0.2273
17341TIP3    H273439   3.288   0.569  12.217 -0.2323  1.5896 -1.9798
17342TIP3   OH273440   6.658   1.732   1.702 -0.4903 -0.0305  0.2659
17342TIP3    H173441   6.671   1.640   1.728  3.4661 -0.8021 -3.2077
17342TIP3    H273442   6.601   1.727   1.626  0.4419  0.1845 -0.4728
17343TIP3   OH273443   5.747   1.584   0.599  0.7017  0.3495  0.1053
17343TIP3    H173444   5.689   1.591   0.674  2.0059 -0.4992  1.2479
17343TIP3    H273445   5.825   1.634   0.624  1.0413  0.2919 -0.7992
17344TIP3   OH273446   2.606   6.298  11.500  0.0652  0.2562  0.0148
17344TIP3    H173447   2.590   6.276  11.409  0.8004 -2.1892  0.4097
17344TIP3    H273448   2.549   6.373  11.517  0.0875  0.9166 -2.4750
17345TIP3   OH273449   2.309   1.731   4.750  0.0233  0.0145  0.3587
17345TIP3    H173450   2.232   1.787   4.745  0.3720  0.4502 -0.3842
17345TIP3    H273451   2.347   1.734   4.662  1.6197  0.8539  1.0325
17346TIP3   OH273452   0.103   2.036  15.064  0.4726 -0.4325  0.3537
17346TIP3    H173453   0.083   1.999  14.978  0.0882 -1.5557  0.9028
17346TIP3    H273454   0.192   2.070  15.056 -0.0081  0.6304 -0.8478
17347TIP3   OH273455   3.545   1.708   3.777 -0.0789 -0.4078  0.3175
17347TIP3    H173456   3.454   1.695   3.748  0.0961 -1.2254  0.1040
17347TIP3    H273457   3.562   1.801   3.760  0.0894 -0.8486 -2.5390
17348TIP3   OH273458   5.635   1.790   5.488  0.1318 -0.1154 -0.4134
17348TIP3    H173459   5.616   1.814   5.397  0.9668  3.1912  0.1296
17348TIP3    H273460   5.676   1.704   5.482 -0.4244 -0.2997 -3.0917
17349TIP3   OH273461   2.964   1.422  11.802  0.3345 -0.4609 -0.1936
17349TIP3    H173462   2.964   1.439  11.708 -1.2533 -1.0034 -0.3286
17349TIP3    H273463   2.915   1.340  11.812  0.2330 -0.2672  1.1148
17350TIP3   OH273464   5.183   2.886   5.003 -0.3964  0.2726  0.2273
17350TIP3    H173465   5.101   2.839   4.987  0.6051 -1.1342 -1.0390
17350TIP3    H273466   5.252   2.823   4.983  1.0366  1.0784  2.2987
17351TIP3   OH273467   0.219   3.624   0.044  0.2801 -0.2536 -0.3656
17351TIP3    H173468   0.270   3.579  -0.023  0.7218  1.5140 -1.2677
17351TIP3    H273469   0.256   3.713   0.048 -1.5846  0.5490  0.1916
17352TIP3   OH273470   1.968   6.044  14.562 -0.1638  0.3002 -0.1753
17352TIP3    H173471   1.890   6.020  14.611 -0.1202 -0.2892 -0.3872
17352TIP3    H273472   1.940   6.115  14.504 -0.5238  0.1223 -0.2189
17353TIP3   OH273473   2.366   1.132  11.314 -0.6250 -0.1383 -0.1062
17353TIP3    H173474   2.410   1.085  11.243  0.4873  2.9867 -1.6604
17353TIP3    H273475   2.302   1.069  11.348  0.0645 -2.3953 -2.6269
17354TIP3   OH273476   4.814   4.774   5.685 -0.1893  0.4951  0.3024
17354TIP3    H173477   4.728   4.745   5.654 -0.2760  0.6197  0.4278
17354TIP3    H273478   4.870   4.696   5.675  0.0653  0.8270 -1.2202
17355TIP3   OH273479   4.432   2.889   3.527 -0.4693 -0.2091 -0.7092
17355TIP3    H173480   4.339   2.868   3.520 -0.8513  1.5407 -1.5606
17355TIP3    H273481   4.475   2.828   3.467 -1.1811 -0.3756 -1.0651
17356TIP3   OH273482   1.430   4.105   6.244 -0.2525 -0.6724 -0.5245
17356TIP3    H173483   1.338   4.095   6.267  0.4314 -0.7668  2.5629
17356TIP3    H273484   1.461   4.177   6.299  1.3799 -0.0668 -2.1089
17357TIP3   OH273485   1.402   2.060  13.093 -0.3141 -0.7023  0.4139
17357TIP3    H173486   1.421   1.969  13.113 -1.7591 -1.1738 -0.2588
17357TIP3    H273487   1.311   2.060  13.063 -0.5823  1.0550  1.0808
17358TIP3   OH273488   3.906   6.494  15.776 -0.6017  0.0794  0.0272
17358TIP3    H173489   3.937   6.434  15.707 -1.4721 -1.3770  0.8525
17358TIP3    H273490   3.986   6.521  15.821 -0.3018 -1.9579  0.8053
17359TIP3   OH273491   6.480   6.261  13.097 -0.3885 -0.8861  0.7227
17359TIP3    H173492   6.513   6.210  13.023 -1.9655 -0.9966  0.0514
17359TIP3    H273493   6.389   6.280  13.074 -0.1684  1.3077  1.4700
17360TIP3   OH273494   5.600   4.845   2.373  0.1337  0.0568  0.4281
17360TIP3    H173495   5.625   4.854   2.465  1.6433 -3.7235  0.5716
17360TIP3    H273496   5.551   4.763   2.370  0.4555 -0.1117 -2.1826
17361TIP3   OH273497   1.204   1.081   1.839  0.6012  0.1440  0.0426
17361TIP3    H173498   1.160   1.161   1.813 -0.0372  0.2452  1.3392
17361TIP3    H273499   1.251   1.104   1.920 -1.0724 -1.1944  1.4743
17362TIP3   OH273500   3.553   6.374  12.692  0.6519  0.5053 -0.6217
17362TIP3    H173501   3.617   6.303  12.703 -0.6528 -0.4661  1.3059
17362TIP3    H273502   3.602   6.444  12.651  2.2288 -1.2013 -1.8414
17363TIP3   OH273503   4.705   0.904   2.161 -0.5292  0.2783  0.5961
17363TIP3    H173504   4.718   0.867   2.074 -1.1473  0.9066  0.2244
17363TIP3    H273505   4.611   0.895   2.177 -0.6522  1.4637  0.5915
17364TIP3   OH273506   5.827   0.338   3.440  0.2682  0.4984  0.4882
17364TIP3    H173507   5.815   0.391   3.362  0.3709  1.0694  0.8536
17364TIP3    H273508   5.919   0.349   3.463  0.5313 -0.6186  0.0165
17365TIP3   OH273509   2.616   1.129  16.276  0.2522 -0.4331 -0.2068
17365TIP3    H173510   2.641   1.038  16.295  1.3656  0.0268  0.6225
17365TIP3    H273511   2.563   1.155  16.351 -0.5515 -0.5489 -0.7117
17366TIP3   OH273512   6.115   4.075   0.836 -0.1583  0.2520  0.1240
17366TIP3    H173513   6.136   4.039   0.922  0.0600 -0.4538 -0.2096
17366TIP3    H273514   6.148   4.164   0.838 -0.6777  0.4419  0.9708
17367TIP3   OH273515   0.396   0.026   1.578  0.2745  0.6358 -0.7916
17367TIP3    H173516   0.479  -0.005   1.541  0.2204 -0.3108 -0.1528
17367TIP3    H273517   0.420   0.062   1.663  0.1261  0.9987 -0.9042
17368TIP3   OH273518   1.803   5.032   3.418  0.3785 -0.4926 -0.5435
17368TIP3    H173519   1.711   5.049   3.438  0.1413 -1.3952 -0.8386
17368TIP3    H273520   1.833   4.976   3.490  1.2002  1.2173  0.5152
17369TIP3   OH273521   3.866   0.368   3.154 -0.1617 -0.6872 -0.0145
17369TIP3    H173522   3.907   0.292   3.113  0.7335 -0.3464  0.2245
17369TIP3    H273523   3.772   0.349   3.151  0.0765 -2.0861  0.6012
17370TIP3   OH273524   2.211   0.866  14.796  0.1913  0.0128  0.1910
17370TIP3    H173525   2.119   0.858  14.771  0.4388  0.7447 -1.0461
17370TIP3    H273526   2.210   0.914  14.879 -0.5270  0.2630  0.0426
17371TIP3   OH273527   5.919   3.400  11.631  0.1019 -0.0524  0.0983
17371TIP3    H173528   5.998   3.355  11.661 -0.4802 -1.1591  0.0228
17371TIP3    H273529   5.859   3.329  11.608 -1.8268  0.6981  2.4587
17372TIP3   OH273530   6.376   3.304  16.806 -0.0733  0.3379  0.4212
17372TIP3    H173531   6.320   3.310  16.883 -0.3207  0.8066  0.2047
17372TIP3    H273532   6.465   3.294  16.842  0.0344  2.3389  0.8073
17373TIP3   OH273533   6.464   0.669  16.758 -0.7260  0.3560  0.0585
17373TIP3    H173534   6.435   0.735  16.821  0.3980  0.7990  0.1340
17373TIP3    H273535   6.387   0.614  16.744 -1.2787  0.8453  1.0634
17374TIP3   OH273536   0.780   6.456  16.165 -0.0937  0.1484  0.1620
17374TIP3    H173537   0.699   6.405  16.167 -0.0347 -0.0355 -1.0371
17374TIP3    H273538   0.846   6.398  16.202 -0.1990 -0.3289 -0.3858
17375TIP3   OH273539   6.352   3.381   5.935  0.2319 -0.2735  1.0851
17375TIP3    H173540   6.389   3.469   5.942  0.3464  0.0009 -1.6474
17375TIP3    H273541   6.259   3.394   5.921  0.2042 -0.5977  0.9447
17376TIP3   OH273542   5.414   0.865  11.594  0.0248  0.3777 -0.5809
17376TIP3    H173543   5.419   0.930  11.524 -1.4250  0.7299 -0.3752
17376TIP3    H273544   5.402   0.917  11.674 -1.4824 -0.1306 -0.4554
17377TIP3   OH273545   4.100   4.730  13.295  0.2655  0.2687 -0.3059
17377TIP3    H173546   4.016   4.743  13.338  0.5894  3.0404 -0.3292
17377TIP3    H273547   4.158   4.697  13.364 -0.5968 -0.8013 -0.0760
17378TIP3   OH273548   0.276   4.568  13.185  0.0276 -0.0722 -0.3774
17378TIP3    H173549   0.337   4.508  13.228  0.3047  0.5743  0.1466
17378TIP3    H273550   0.190   4.541  13.217  0.0181 -0.9820 -1.1136
17379TIP3   OH273551   0.055   4.634  11.134  0.3659 -0.4305 -0.4680
17379TIP3    H173552   0.114   4.708  11.125  0.8044 -0.9957 -2.6443
17379TIP3    H273553   0.107   4.558  11.108 -0.5155 -1.3330  0.2993
17380TIP3   OH273554   6.318   5.758  12.312 -0.4973  0.0474  0.0175
17380TIP3    H173555   6.386   5.801  12.364 -0.1338 -1.0098  0.4529
17380TIP3    H273556   6.280   5.828  12.259  1.9127  0.4367 -1.3373
17381TIP3   OH273557   0.670   1.194   5.016  0.1065  0.4770 -0.4616
17381TIP3    H173558   0.655   1.100   5.026  0.4589  0.4702  0.0078
17381TIP3    H273559   0.682   1.227   5.105 -0.2033  1.0025 -0.6078
17382TIP3   OH273560   4.263   1.678  15.171 -0.7084 -0.0637 -0.5038
17382TIP3    H173561   4.279   1.743  15.103 -0.8123  1.5944  1.0013
17382TIP3    H273562   4.167   1.673  15.178 -0.6932  0.0095 -0.2469
17383TIP3   OH273563   6.281   0.126   6.762  0.5649  0.0434 -0.2330
17383TIP3    H173564   6.361   0.140   6.812  0.0945 -1.8797  1.1982
17383TIP3    H273565   6.216   0.099   6.828 -1.4580  2.1169 -1.2446
17384TIP3   OH273566   4.108   5.171  14.772 -0.2482 -0.1418 -0.2115
17384TIP3    H173567   4.050   5.167  14.697 -0.3734 -0.0493 -0.1206
17384TIP3    H273568   4.114   5.264  14.794 -1.0496 -0.2520  0.5388
17385TIP3   OH273569   1.257   4.588   4.630 -0.2967  0.1820 -0.4116
17385TIP3    H173570   1.320   4.518   4.618 -0.0461  0.2843  0.2867
17385TIP3    H273571   1.225   4.577   4.719 -0.4992  0.7504 -0.4109
17386TIP3   OH273572   0.658   4.393  15.163  0.0395  0.4229  0.3786
17386TIP3    H173573   0.712   4.315  15.157 -0.1032  0.3642 -0.1931
17386TIP3    H273574   0.676   4.428  15.250  0.2577 -0.1327  0.5609
17387TIP3   OH273575   2.633   4.279   3.662  0.5479 -0.4335  0.5542
17387TIP3    H173576   2.707   4.232   3.625  1.2482  1.0087  0.0534
17387TIP3    H273577   2.619   4.239   3.748  1.6500 -0.9830  0.4940
17388TIP3   OH273578   4.790   2.407   0.536 -0.4034  0.2604  0.0143
17388TIP3    H173579   4.792   2.477   0.601 -1.0102  0.0359  0.2789
17388TIP3    H273580   4.868   2.421   0.483  0.0218  0.5285  0.7025
17389TIP3   OH273581   0.564   0.198  16.492  0.1096 -0.2865 -0.0699
17389TIP3    H173582   0.577   0.183  16.586  0.3032 -0.2680 -0.0943
17389TIP3    H273583   0.643   0.244  16.464 -0.0502 -0.0918 -0.1958
17390TIP3   OH273584   6.038   3.679  15.229  0.1477 -0.5517  0.2018
17390TIP3    H173585   5.950   3.709  15.250  0.9673  3.3935 -1.0609
17390TIP3    H273586   6.067   3.631  15.306 -2.4610 -0.4460  1.3347
17391TIP3   OH273587   2.439   3.466  13.498 -0.4798  0.2270  0.9523
17391TIP3    H173588   2.374   3.415  13.450 -0.1452 -0.0032  0.7351
17391TIP3    H273589   2.394   3.546  13.524 -0.6046  0.4457  0.0806
17392TIP3   OH273590   0.468   3.798  15.775 -0.5471  0.5245  0.5011
17392TIP3    H173591   0.391   3.852  15.756  1.2005  2.4460 -1.7490
17392TIP3    H273592   0.508   3.840  15.852 -0.0455  1.5225 -0.2851
17393TIP3   OH273593   1.110   4.339  14.357  0.0440  0.0361 -0.3361
17393TIP3    H173594   1.189   4.318  14.408 -0.5435  0.1872  0.6617
17393TIP3    H273595   1.059   4.396  14.415 -1.1399 -0.6574 -0.6797
17394TIP3   OH273596   4.354   6.527   6.182  0.2172  0.2037  0.0677
17394TIP3    H173597   4.373   6.619   6.164  0.1328  0.6200  1.9906
17394TIP3    H273598   4.355   6.485   6.095 -0.6136  2.1606 -0.9369
17395TIP3   OH273599   4.224   2.529  13.761  1.0278  0.0920  0.3772
17395TIP3    H173600   4.158   2.491  13.819  0.6592 -1.2702 -0.8803
17395TIP3    H273601   4.288   2.459  13.748  1.0999  0.3656 -0.8445
17396TIP3   OH273602   2.571   3.441  12.865  0.3708 -0.1038  0.1603
17396TIP3    H173603   2.580   3.532  12.893  1.6472 -0.4651  1.0379
17396TIP3    H273604   2.555   3.392  12.946  1.5597 -0.8753 -0.0432
17397TIP3   OH273605   0.286   2.157   0.499 -0.3158 -0.0444 -0.4277
17397TIP3    H173606   0.274   2.252   0.495 -0.9032 -0.1259 -0.7068
17397TIP3    H273607   0.343   2.143   0.575 -0.6784  0.4880 -0.0560
17398TIP3   OH273608   1.054   0.606  16.762  0.1866 -0.0021 -0.2148
17398TIP3    H173609   1.104   0.547  16.818 -0.0270  0.2138  0.2023
17398TIP3    H273610   1.067   0.570  16.674 -0.0371 -0.7476  0.0424
17399TIP3   OH273611   0.826   5.340  15.390 -1.1198  0.4488  0.0977
17399TIP3    H173612   0.866   5.261  15.352  1.3905  1.1247  1.1752
17399TIP3    H273613   0.732   5.321  15.390 -0.5876 -2.6984  0.6562
17400TIP3   OH273614   6.059   4.616  16.361  0.0009 -0.2405 -0.6222
17400TIP3    H173615   6.108   4.683  16.313 -0.4494  0.7038  0.1888
17400TIP3    H273616   5.967   4.637  16.345 -0.2230  1.1355  1.8819
17401TIP3   OH273617   1.426   5.208   4.922 -0.2139  1.1301  0.0943
17401TIP3    H173618   1.509   5.226   4.968 -0.5752 -0.7320  1.5832
17401TIP3    H273619   1.385   5.294   4.912  0.6636  1.7896  1.7942
17402TIP3   OH273620   2.872   0.122   5.818 -0.3542 -0.3844 -0.9133
17402TIP3    H173621   2.947   0.130   5.877 -2.1095  1.0894  1.2807
17402TIP3    H273622   2.889   0.042   5.769  2.1164 -0.6708  0.2323
17403TIP3   OH273623   6.142   3.694  14.790 -0.3121  0.6607  0.3468
17403TIP3    H173624   6.058   3.740  14.801 -1.0886 -0.8545  1.1731
17403TIP3    H273625   6.146   3.674  14.697 -1.8614 -0.9294  0.5605
17404TIP3   OH273626   0.269   1.234  13.915 -0.5142 -0.3033  0.6464
17404TIP3    H173627   0.290   1.199  13.828  1.3327 -1.9909  1.7081
17404TIP3    H273628   0.291   1.327  13.908 -2.0892 -0.0001 -1.1770
17405TIP3   OH273629   6.576   2.208   0.738 -0.3540  0.4336  0.3995
17405TIP3    H173630   6.634   2.178   0.667 -0.1338 -0.6980  1.0385
17405TIP3    H273631   6.608   2.295   0.759  1.0564 -0.1191  0.6506
17406TIP3   OH273632   3.104   1.417  12.994  0.5481  0.0771  0.2144
17406TIP3    H173633   3.107   1.330  12.953 -0.2292 -0.4157  1.1645
17406TIP3    H273634   3.010   1.438  12.998  0.7935  2.2599 -2.6251
17407TIP3   OH273635   1.270   5.534   0.213  0.3010  0.3474  0.0744
17407TIP3    H173636   1.264   5.525   0.309 -2.5232 -0.8967 -0.0993
17407TIP3    H273637   1.241   5.623   0.196 -0.7172  0.0800  0.3317
17408TIP3   OH273638   6.682   0.736  14.728  0.1272 -0.3843 -0.4704
17408TIP3    H173639   6.742   0.738  14.654 -0.9145 -1.4331 -1.3740
17408TIP3    H273640   6.613   0.675  14.702 -0.9377  0.2032  0.8417
17409TIP3   OH273641   0.449   4.947   1.701  0.2054 -0.0712  0.6427
17409TIP3    H173642   0.492   4.877   1.750  0.6161  0.4758  1.0746
17409TIP3    H273643   0.507   5.022   1.710 -0.6538  0.5777  0.8980
17410TIP3   OH273644   2.376   1.249  12.342  0.3977 -0.1474 -0.1490
17410TIP3    H173645   2.472   1.242  12.344  0.2965 -1.6627  0.6592
17410TIP3    H273646   2.357   1.287  12.256  1.7097  0.0672 -0.3727
17411TIP3   OH273647   1.666   1.679  14.922 -0.2316  0.1847 -0.0713
17411TIP3    H173648   1.652   1.772  14.903  1.6740  0.3348 -1.0069
17411TIP3    H273649   1.757   1.674  14.949 -0.4140 -1.3769  0.3428
17412TIP3   OH273650   0.400   2.636   0.494 -0.4196 -0.0040 -0.7875
17412TIP3    H173651   0.353   2.554   0.506 -0.0666 -0.0581  0.3293
17412TIP3    H273652   0.480   2.612   0.447 -0.1425 -0.3582 -0.1392
17413TIP3   OH273653   6.104   3.780  14.015 -0.6359  0.1614 -0.4082
17413TIP3    H173654   6.184   3.831  14.009  0.1271 -1.0100 -0.4467
17413TIP3    H273655   6.132   3.695  14.049 -1.9773  0.0035  0.3709
17414TIP3   OH273656   0.599   3.613   0.423  0.5163  0.1252 -0.6456
17414TIP3    H173657   0.655   3.569   0.360 -0.2775 -1.6680 -0.1803
17414TIP3    H273658   0.639   3.595   0.508 -0.1951 -0.3333 -0.3912
17415TIP3   OH273659   2.788   2.615   0.730  0.2478  0.0053  0.0103
17415TIP3    H173660   2.742   2.626   0.647  1.8242  0.8084 -0.7900
17415TIP3    H273661   2.756   2.531   0.764 -2.3271  0.8393 -0.1241
17416TIP3   OH273662   4.104   5.996  12.853  0.0714  0.1265  0.3788
17416TIP3    H173663   4.073   6.085  12.866 -0.2145  0.2430 -0.9455
17416TIP3    H273664   4.184   5.990  12.905  0.2530  1.2564  0.2477
17417TIP3   OH273665   4.776   2.555   0.110 -0.0923 -0.0526  0.5637
17417TIP3    H173666   4.758   2.642   0.148  0.5211  0.4042 -0.1703
17417TIP3    H273667   4.871   2.553   0.099 -0.1751 -0.5299 -0.1091
17418TIP3   OH273668   0.181   1.380  11.640  0.2487  0.0114 -0.1341
17418TIP3    H173669   0.125   1.448  11.678  0.9967  0.9068 -0.6025
17418TIP3    H273670   0.174   1.306  11.701  0.9723  1.2013  1.4366
17419TIP3   OH273671   6.530   6.101   3.715 -0.0460 -0.0204  0.1115
17419TIP3    H173672   6.478   6.127   3.639 -1.1780 -0.1884  0.8145
17419TIP3    H273673   6.617   6.138   3.698 -0.1245 -0.5206 -1.5168
17420TIP3   OH273674   2.469   6.009   5.514  0.2248  0.8163  0.0342
17420TIP3    H173675   2.407   6.029   5.443  0.3909  3.3160  0.5114
17420TIP3    H273676   2.428   6.045   5.592 -0.0725 -2.1283  1.3642
17421TIP3   OH273677   0.546   4.760  12.911  0.2231 -0.0254  0.2789
17421TIP3    H173678   0.641   4.760  12.898  0.1787 -1.4273 -0.1377
17421TIP3    H273679   0.510   4.735  12.826 -0.6691  2.5626 -0.2083
17422TIP3   OH273680   5.972   5.422   1.287 -0.3436  0.1466  0.1327
17422TIP3    H173681   5.984   5.328   1.278  0.6644  0.3093 -0.3568
17422TIP3    H273682   5.934   5.433   1.374 -1.4213 -0.7731 -0.1924
17423TIP3   OH273683   2.142   3.999  12.323 -0.3609 -0.2346 -0.5397
17423TIP3    H173684   2.123   4.076  12.269 -1.5451 -0.9499 -1.1934
17423TIP3    H273685   2.056   3.958  12.337  0.2069 -1.2602  0.0510
17424TIP3   OH273686   1.089   3.485   1.004 -0.3398  0.2331 -0.2006
17424TIP3    H173687   1.107   3.504   1.096 -0.1779 -0.0154 -0.1792
17424TIP3    H273688   1.058   3.568   0.968  1.1082  0.7523 -0.2977
17425TIP3   OH273689   4.975   0.135  14.482  0.4069  0.3475 -0.3608
17425TIP3    H173690   4.972   0.196  14.409 -1.6145  0.2013 -0.4451
17425TIP3    H273691   5.050   0.165  14.535  1.6214  0.7174 -2.1939
17426TIP3   OH273692   1.747   2.390  11.326 -0.5578  0.3137 -0.0438
17426TIP3    H173693   1.652   2.390  11.338 -0.6245 -2.1351 -0.0615
17426TIP3    H273694   1.760   2.427  11.238 -1.7202 -1.4551 -1.0163
17427TIP3   OH273695   3.716   1.136   6.003 -0.0705  0.5341  0.6397
17427TIP3    H173696   3.777   1.083   6.055 -0.1255 -0.7701 -0.5363
17427TIP3    H273697   3.629   1.109   6.032 -0.1089  1.2879  1.2586
17428TIP3   OH273698   1.535   3.449   1.037  0.7242 -0.0300  0.2607
17428TIP3    H173699   1.503   3.420   1.122 -0.4431 -0.1025 -0.1804
17428TIP3    H273700   1.619   3.404   1.026 -0.3358 -2.1153  0.2460
17429TIP3   OH273701   5.909   0.541  17.006 -0.0122 -0.2188  0.3972
17429TIP3    H173702   5.903   0.615  16.945 -1.6449  0.1707  0.9479
17429TIP3    H273703   5.871   0.467  16.958 -1.0416  0.0221  0.8063
17430TIP3   OH273704   2.783   0.237   3.361 -0.5640  0.4565 -0.1859
17430TIP3    H173705   2.706   0.181   3.356 -1.0710  1.1540 -0.2937
17430TIP3    H273706   2.758   0.317   3.314  0.7632  0.0795 -1.6312
17431TIP3   OH273707   5.877   1.372   4.147 -0.7415  0.4135 -0.6303
17431TIP3    H173708   5.809   1.401   4.087 -0.2475  2.1652 -0.4046
17431TIP3    H273709   5.959   1.404   4.109 -0.0861 -1.0952 -0.5646
17432TIP3   OH273710   3.123   5.188   0.098  0.0448 -0.0970  0.3258
17432TIP3    H173711   3.182   5.247   0.051 -1.4162  1.2571  0.0919
17432TIP3    H273712   3.057   5.162   0.033 -0.1751 -0.7848  0.8134
17433TIP3   OH273713   5.294   4.031   4.363  0.0175  0.2799 -0.6482
17433TIP3    H173714   5.302   3.978   4.442  0.6196 -1.5370 -1.8597
17433TIP3    H273715   5.212   4.080   4.375 -0.4857 -0.8065  0.5985
17434TIP3   OH273716   2.141   1.696  12.428  0.2079  0.6950  0.1878
17434TIP3    H173717   2.115   1.754  12.500 -0.2131  0.7659 -0.0203
17434TIP3    H273718   2.156   1.611  12.471  1.7813  1.1601  0.6534
17435TIP3   OH273719   3.268   2.008   0.609  0.2091 -0.5360 -0.2161
17435TIP3    H173720   3.193   1.991   0.552 -0.5638  1.3660  0.1570
17435TIP3    H273721   3.318   2.075   0.563  0.5234 -0.2524  0.5206
17436TIP3   OH273722   5.118   6.528   4.275  0.0479  0.1388  0.0260
17436TIP3    H173723   5.070   6.595   4.324 -1.3655 -0.6877 -0.1773
17436TIP3    H273724   5.210   6.547   4.292 -0.3221  1.9772  0.1655
17437TIP3   OH273725   6.411   3.092  14.186  0.0868  0.2222  0.2894
17437TIP3    H173726   6.444   3.031  14.252  0.3388 -0.1706 -0.1987
17437TIP3    H273727   6.317   3.073  14.182 -0.2323  1.3455  1.6806
17438TIP3   OH273728   5.705   4.877  10.598  0.1963 -0.2251  0.5935
17438TIP3    H173729   5.656   4.917  10.669 -0.8770 -0.7658  0.1758
17438TIP3    H273730   5.664   4.793  10.584  0.3688 -0.1181 -0.6872
17439TIP3   OH273731   0.609   6.495  14.669  0.6227 -0.1427 -1.0648
17439TIP3    H173732   0.641   6.534  14.588  1.1423 -2.2191 -1.9489
17439TIP3    H273733   0.592   6.569  14.727 -1.3097  1.5380 -3.5756
17440TIP3   OH273734   6.735   2.174   3.274 -0.4146 -0.6489 -0.2604
17440TIP3    H173735   6.713   2.267   3.270 -1.0524 -0.8340 -1.6885
17440TIP3    H273736   6.822   2.172   3.314 -0.5488  0.5250  0.1247
17441TIP3   OH273737   1.558   5.631  11.859 -0.3190 -0.5505  0.2416
17441TIP3    H173738   1.502   5.562  11.823 -2.5476  0.8615  0.8183
17441TIP3    H273739   1.505   5.710  11.854  2.3046  1.3030 -0.8219
17442TIP3   OH273740   3.367   5.655   5.070 -0.2228  0.5124 -0.1886
17442TIP3    H173741   3.454   5.631   5.101  0.4502  2.7263 -0.1666
17442TIP3    H273742   3.309   5.587   5.104  1.4768 -1.0054 -0.2035
17443TIP3   OH273743   2.664   3.120  15.729 -0.1554  0.2526 -0.1302
17443TIP3    H173744   2.724   3.062  15.776 -0.4955  0.4419  0.5452
17443TIP3    H273745   2.620   3.171  15.798 -1.0830  0.1236 -0.6074
17444TIP3   OH273746   5.955   3.642   3.271  0.4247 -0.2972 -0.3554
17444TIP3    H173747   5.913   3.577   3.327 -0.2218 -0.7320 -1.3001
17444TIP3    H273748   6.017   3.688   3.327  0.3610 -1.2470  0.4974
17445TIP3   OH273749   5.505   6.544   5.146  0.2600 -0.0693  0.3587
17445TIP3    H173750   5.564   6.469   5.135  0.2616 -0.1801  1.0841
17445TIP3    H273751   5.433   6.527   5.085 -0.1132 -1.0458  1.0401
17446TIP3   OH273752   0.765   5.415   2.293  0.1172  0.4621  0.3185
17446TIP3    H173753   0.786   5.325   2.319  1.0499  1.0007  1.4839
17446TIP3    H273754   0.755   5.463   2.375 -1.7165  1.1533 -0.2633
17447TIP3   OH273755   1.732   5.083   4.420  0.6791 -0.0191  0.7678
17447TIP3    H173756   1.715   4.996   4.458  3.1604 -0.0060  2.1195
17447TIP3    H273757   1.780   5.130   4.489 -1.6299  2.9257  0.5514
17448TIP3   OH273758   1.470   5.645  12.621  0.2435 -0.0813 -0.0130
17448TIP3    H173759   1.433   5.570  12.573  2.0596 -1.6442  0.8955
17448TIP3    H273760   1.405   5.664  12.688  0.5940 -2.2204  1.0354
17449TIP3   OH273761   4.765   2.277   1.333  0.0061 -0.3648 -0.0427
17449TIP3    H173762   4.671   2.277   1.313  0.1678 -0.6278 -0.8119
17449TIP3    H273763   4.780   2.361   1.376 -0.8587 -0.9486  1.4481
17450TIP3   OH273764   5.002   4.988   0.875  0.5427  0.2289  0.0006
17450TIP3    H173765   4.999   4.987   0.779 -1.3703  0.5666  0.0151
17450TIP3    H273766   5.068   4.924   0.898 -0.0118 -0.9499 -1.5298
17451TIP3   OH273767   5.959   5.933   5.618 -0.1902  0.1139 -0.1035
17451TIP3    H173768   5.973   5.972   5.704 -0.4916 -0.0817  0.0339
17451TIP3    H273769   5.973   5.839   5.632 -2.5814 -0.2322  0.2512
17452TIP3   OH273770   1.942   3.308  16.616  0.0178 -0.1560  0.0881
17452TIP3    H173771   1.975   3.294  16.527 -1.0988  1.8578 -0.7124
17452TIP3    H273772   1.860   3.258  16.619 -0.5789  0.7529 -0.4790
17453TIP3   OH273773   2.379   4.943  15.603  0.1301 -0.4193  0.4657
17453TIP3    H173774   2.440   5.015  15.618  1.1072 -1.2654  0.5879
17453TIP3    H273775   2.312   4.981  15.546 -0.1351  0.9846  1.6427
17454TIP3   OH273776   5.328   3.495  16.666 -0.5717 -0.4005 -0.6513
17454TIP3    H173777   5.374   3.489  16.749 -0.5431  0.0462 -0.6354
17454TIP3    H273778   5.374   3.563  16.617 -1.3670  0.2330 -0.5370
17455TIP3   OH273779   1.366   3.500  12.449 -0.3659 -0.9972 -0.8653
17455TIP3    H173780   1.459   3.486  12.429 -0.4729  0.0106 -2.1941
17455TIP3    H273781   1.321   3.491  12.365 -0.8880  3.0145 -1.2027
17456TIP3   OH273782   5.402   2.222  16.764 -0.0884 -0.1398 -0.2771
17456TIP3    H173783   5.369   2.292  16.708  1.6153  0.8040 -0.1648
17456TIP3    H273784   5.440   2.158  16.703  1.1494  0.5564 -0.2555
17457TIP3   OH273785   1.806   3.323   0.991  0.1380 -0.2949 -0.0837
17457TIP3    H173786   1.814   3.350   1.083 -0.5075  1.5320 -0.5174
17457TIP3    H273787   1.865   3.382   0.944 -0.2111 -0.6121 -0.9297
17458TIP3   OH273788   6.603   1.333   0.921  0.2511 -0.1631  0.0589
17458TIP3    H173789   6.646   1.337   0.836 -0.2403 -1.3479 -0.2747
17458TIP3    H273790   6.663   1.282   0.976 -0.5783 -1.6487 -0.3519
17459TIP3   OH273791   4.419   0.452   3.603  0.0641 -0.5154 -0.4916
17459TIP3    H173792   4.482   0.381   3.614  0.1617 -0.0441  2.7548
17459TIP3    H273793   4.341   0.424   3.650  0.2137  1.5835  1.1625
17460TIP3   OH273794   4.482   6.000  15.095  0.0001  0.1660 -0.1566
17460TIP3    H173795   4.459   6.078  15.044  0.5166  1.3293  1.3419
17460TIP3    H273796   4.557   5.963  15.048  0.2975  1.0616 -0.4235
17461TIP3   OH273797   2.670   5.206   5.407 -0.3402 -0.2672  0.2249
17461TIP3    H173798   2.673   5.110   5.403  0.1305 -0.3339  1.6542
17461TIP3    H273799   2.597   5.230   5.349 -0.7937 -1.5141  0.2469
17462TIP3   OH273800   4.538   1.892   3.758  0.5374 -0.0990  0.3406
17462TIP3    H173801   4.548   1.967   3.700 -0.3562 -2.2375 -2.8280
17462TIP3    H273802   4.474   1.920   3.823  1.0796  2.2110 -0.0195
17463TIP3   OH273803   5.471   0.271   0.167 -0.9121 -0.3241 -0.0865
17463TIP3    H173804   5.455   0.257   0.260 -1.9556 -1.0876 -0.3608
17463TIP3    H273805   5.488   0.183   0.131 -1.6701 -0.1883 -0.8099
17464TIP3   OH273806   1.639   0.010   3.393  0.3365  0.2266 -0.1826
17464TIP3    H173807   1.547   0.028   3.377  0.3980  1.9183  1.1139
17464TIP3    H273808   1.684   0.093   3.375  1.4819 -0.3077  0.0915
17465TIP3   OH273809   2.451   3.452  11.291 -0.0795  0.1641  0.2544
17465TIP3    H173810   2.501   3.448  11.372  0.5533 -0.7639 -0.1740
17465TIP3    H273811   2.492   3.388  11.233 -1.9888 -0.9291  0.0186
17466TIP3   OH273812   6.487   2.820   4.276  0.3044 -0.3494 -0.5895
17466TIP3    H173813   6.396   2.812   4.245 -0.2075 -0.0611  0.7713
17466TIP3    H273814   6.495   2.912   4.300  0.4612 -0.6963  0.7491
17467TIP3   OH273815   2.629   1.763  16.646  0.2647  0.1238  0.1575
17467TIP3    H173816   2.654   1.844  16.602  0.2761 -0.4638 -0.9409
17467TIP3    H273817   2.700   1.702  16.627 -0.0465 -0.3340  0.4414
17468TIP3   OH273818   6.196   4.355   3.995  0.2276 -0.0164  0.5627
17468TIP3    H173819   6.175   4.376   3.904  1.2938 -0.0493  0.3041
17468TIP3    H273820   6.252   4.426   4.024  1.5311 -1.0091  0.5600
17469TIP3   OH273821   0.696   2.301   0.640  0.7810  0.7955 -0.3894
17469TIP3    H173822   0.692   2.380   0.694  1.6474 -0.9837  2.4795
17469TIP3    H273823   0.627   2.244   0.675  0.2123  0.1999 -2.3469
17470TIP3   OH273824   1.701   5.647  12.446 -0.5986 -0.1890  0.2740
17470TIP3    H173825   1.640   5.615  12.380 -0.0822  1.4213 -1.0761
17470TIP3    H273826   1.649   5.658  12.525 -2.5557  2.6989 -1.2533
17471TIP3   OH273827   6.271   6.659   1.355  0.4882 -0.2347  0.2820
17471TIP3    H173828   6.256   6.753   1.361  2.6322  0.0834  1.9187
17471TIP3    H273829   6.230   6.634   1.272 -0.4349  2.0562 -0.0389
17472TIP3   OH273830   0.975   6.159   3.599  0.0769 -0.0453  0.6470
17472TIP3    H173831   1.036   6.148   3.672  0.7683  0.9109  0.2359
17472TIP3    H273832   1.023   6.214   3.536 -1.4546  1.3286  0.6219
17473TIP3   OH273833   4.058   4.362  15.362  0.0316  0.2754 -0.0735
17473TIP3    H173834   4.001   4.332  15.291  1.4118  0.6851 -1.4184
17473TIP3    H273835   4.118   4.424  15.319  2.7473 -1.5548  0.8008
17474TIP3   OH273836   4.167   6.102  14.335 -0.4062  0.8374  0.3654
17474TIP3    H173837   4.179   6.015  14.298 -0.6336  0.5628  0.9182
17474TIP3    H273838   4.146   6.158  14.260  2.9107  1.1217 -0.5247
17475TIP3   OH273839   5.093   6.699  16.846  0.2415 -0.2833  0.9054
17475TIP3    H173840   5.176   6.686  16.800 -0.9059  0.0798 -1.3815
17475TIP3    H273841   5.098   6.789  16.878 -0.1610  0.5282 -1.2162
17476TIP3   OH273842   6.349   5.718  14.706  0.0922  0.0656 -0.1974
17476TIP3    H173843   6.415   5.747  14.770 -0.5509 -1.3332  1.1585
17476TIP3    H273844   6.273   5.773  14.724 -0.4338 -1.0000  0.9818
17477TIP3   OH273845   2.254   3.640  11.261 -0.2003 -0.1228 -0.0324
17477TIP3    H173846   2.244   3.691  11.341  1.1838  2.6645 -1.4989
17477TIP3    H273847   2.310   3.566  11.287  1.1228  1.3019  1.3649
17478TIP3   OH273848   2.710   2.373   2.043 -0.7269 -0.1894  0.6524
17478TIP3    H173849   2.779   2.434   2.018 -0.5327 -1.0566 -1.1059
17478TIP3    H273850   2.756   2.301   2.086 -0.3187 -1.2708 -1.4515
17479TIP3   OH273851   4.676   3.974   2.711  0.2738 -0.6552  0.3709
17479TIP3    H173852   4.667   3.887   2.671 -2.8539  0.0290 -0.6899
17479TIP3    H273853   4.657   3.959   2.803  1.9847 -1.3661  0.6607
17480TIP3   OH273854   1.281   1.695  14.870  0.1027  0.7041  0.8768
17480TIP3    H173855   1.230   1.707  14.951 -0.6093 -0.6704  0.6492
17480TIP3    H273856   1.363   1.656  14.900 -0.3267 -0.2005  0.9190
17481TIP3   OH273857   1.096   2.571   1.078 -0.2712 -0.0162 -0.4459
17481TIP3    H173858   1.050   2.521   1.145  0.1540  1.3625  0.9275
17481TIP3    H273859   1.187   2.541   1.084 -0.1554  0.3963 -0.1221
17482TIP3   OH273860   3.438   5.220  14.715 -0.3324 -0.3221 -0.0534
17482TIP3    H173861   3.380   5.144  14.711  0.5434 -0.9606 -1.1502
17482TIP3    H273862   3.380   5.294  14.732 -1.4617 -0.9369 -1.1019
17483TIP3   OH273863   4.510   0.807  15.893 -0.5096  0.0696  0.1043
17483TIP3    H173864   4.417   0.831  15.894 -0.5695 -0.0821 -0.7937
17483TIP3    H273865   4.556   0.890  15.903 -0.7211  0.6537 -2.7772
17484TIP3   OH273866   0.541   6.608   4.457  0.2485  0.1816 -0.1065
17484TIP3    H173867   0.575   6.674   4.395  1.1572 -0.3487 -0.1837
17484TIP3    H273868   0.516   6.535   4.401  1.5632 -0.5108  0.1692
17485TIP3   OH273869   4.497   1.930  15.256  0.2546 -0.7604  0.6027
17485TIP3    H173870   4.486   2.010  15.204 -0.5419 -0.7367  0.7965
17485TIP3    H273871   4.482   1.958  15.347 -0.5926 -1.2392  0.6140
17486TIP3   OH273872   0.124   3.650   4.019 -0.3978 -0.1007 -0.8384
17486TIP3    H173873   0.145   3.557   4.013 -0.7335 -0.2704  0.3861
17486TIP3    H273874   0.123   3.669   4.113 -0.1308  1.1915 -1.0712
17487TIP3   OH273875   2.124   1.987   2.221  0.5251  0.2165 -0.5007
17487TIP3    H173876   2.214   2.005   2.248  0.2043  1.6852 -0.3399
17487TIP3    H273877   2.131   1.967   2.128  1.1394 -0.7638 -0.2563
17488TIP3   OH273878   6.528   2.389   4.832 -0.3236  0.0726 -0.4086
17488TIP3    H173879   6.533   2.391   4.928 -1.0238  0.3556 -0.3677
17488TIP3    H273880   6.564   2.473   4.804 -1.8815  0.8235 -0.2779
17489TIP3   OH273881   1.568   0.571  12.858 -0.2546  0.0306 -0.3940
17489TIP3    H173882   1.624   0.638  12.897  1.5843 -1.3704 -0.5004
17489TIP3    H273883   1.548   0.604  12.770 -0.1087  0.8407 -0.1243
17490TIP3   OH273884   4.124   3.756   1.558  0.5252 -0.2788 -0.6052
17490TIP3    H173885   4.054   3.698   1.588  0.6985 -0.9415 -1.4486
17490TIP3    H273886   4.204   3.718   1.592  0.7158 -0.9934 -1.7892
17491TIP3   OH273887   2.265   3.567  12.365  0.0739 -0.5422  0.6239
17491TIP3    H173888   2.313   3.643  12.333 -2.0494  0.4803 -0.3483
17491TIP3    H273889   2.259   3.579  12.460  0.8227 -0.1672  0.6266
17492TIP3   OH273890   0.942   4.322  16.704 -0.2841 -0.1853  0.0069
17492TIP3    H173891   1.036   4.334  16.688 -0.0273 -0.6812  1.0573
17492TIP3    H273892   0.916   4.251  16.647 -0.5147  1.3443 -1.8840
17493TIP3   OH273893   3.325   1.263  13.950  1.0023 -0.0715 -0.1081
17493TIP3    H173894   3.394   1.293  13.891 -0.3190 -0.5468 -1.9762
17493TIP3    H273895   3.273   1.203  13.898 -0.9570  0.4314  1.1653
17494TIP3   OH273896   0.970   3.461   5.297 -0.2512  0.0309 -0.7022
17494TIP3    H173897   0.914   3.535   5.273 -0.3880  0.2099  0.1632
17494TIP3    H273898   0.922   3.417   5.367  0.5416 -0.0159 -0.1878
17495TIP3   OH273899   0.413   0.648  11.862  0.0167 -0.2343  0.1557
17495TIP3    H173900   0.469   0.570  11.866 -1.7866 -1.5841  0.9249
17495TIP3    H273901   0.472   0.721  11.877  1.7000 -1.5011  0.0078
17496TIP3   OH273902   3.962   5.615  15.339 -0.0605 -0.3695  0.2725
17496TIP3    H173903   4.013   5.580  15.411  0.6783  2.2810  1.1569
17496TIP3    H273904   3.963   5.710  15.352 -0.2611  0.2155 -2.9758
17497TIP3   OH273905   2.844   4.097   3.833  0.5605  0.5601 -0.4245
17497TIP3    H173906   2.862   4.068   3.922 -0.7513  1.2536  0.1074
17497TIP3    H273907   2.921   4.072   3.783  1.2452 -0.0093  0.8668
17498TIP3   OH273908   2.891   2.311   5.794 -0.2882  1.2800 -0.1743
17498TIP3    H173909   2.870   2.354   5.711  0.4780  2.1975  0.0864
17498TIP3    H273910   2.925   2.382   5.849 -1.3439  0.7935  1.1276
17499TIP3   OH273911   5.591   3.216  13.476 -0.2883 -0.2661 -0.1338
17499TIP3    H173912   5.670   3.191  13.524 -0.3007  0.8319  0.4987
17499TIP3    H273913   5.529   3.239  13.545 -0.8128 -0.1112 -0.6556
17500TIP3   OH273914   0.301   0.216  14.424 -0.3102 -0.0391  0.2807
17500TIP3    H173915   0.386   0.180  14.399 -0.1952  1.7509 -2.3293
17500TIP3    H273916   0.240   0.181  14.359 -1.6116 -1.1541  2.0080
17501TIP3   OH273917   0.304   2.547   3.887 -0.1834 -0.8451 -0.0387
17501TIP3    H173918   0.370   2.605   3.924  0.3231 -0.9054 -0.8122
17501TIP3    H273919   0.254   2.603   3.827  0.1560 -1.1421 -0.6095
17502TIP3   OH273920   1.018   0.807   5.911  0.0120 -0.3971  0.3706
17502TIP3    H173921   0.980   0.884   5.868  0.0479  0.0350  1.0930
17502TIP3    H273922   0.948   0.775   5.968  0.5983  0.2050  1.4622
17503TIP3   OH273923   5.166   3.730  12.511  0.4423 -0.1935  0.1154
17503TIP3    H173924   5.128   3.751  12.597  1.1536 -0.6883  0.5544
17503TIP3    H273925   5.097   3.682  12.466  0.6337 -1.3965  1.0438
17504TIP3   OH273926   0.888   1.135  13.171  0.9890 -0.8488  0.1718
17504TIP3    H173927   0.885   1.230  13.165  3.2564 -0.6262  1.6058
17504TIP3    H273928   0.811   1.112  13.224 -0.8094 -0.0925 -1.9658
17505TIP3   OH273929   5.407   0.196  16.728  0.2889 -0.5687 -0.3768
17505TIP3    H173930   5.371   0.267  16.675 -1.0601 -0.8344  0.1385
17505TIP3    H273931   5.432   0.238  16.811 -0.6459 -0.7103 -0.0177
17506TIP3   OH273932   5.993   5.660   5.667  0.6385 -0.4079  0.4652
17506TIP3    H173933   5.977   5.593   5.601 -0.0718 -0.7996  1.0088
17506TIP3    H273934   6.088   5.664   5.676  0.8144  0.4407 -1.3531
17507TIP3   OH273935   3.733   2.048   5.988  0.0553 -0.4051 -0.5468
17507TIP3    H173936   3.682   2.100   5.926  2.3473  0.3031 -1.9776
17507TIP3    H273937   3.728   1.958   5.953 -0.5123 -0.4161 -0.4460
17508TIP3   OH273938   5.748   6.632  12.397 -0.8206 -0.2358  0.7652
17508TIP3    H173939   5.764   6.718  12.436  0.1215 -0.6395  1.3059
17508TIP3    H273940   5.692   6.650  12.322  0.4020  1.0231  0.1040
17509TIP3   OH273941   5.586   5.123   1.713  0.2508 -0.3512 -0.3161
17509TIP3    H173942   5.546   5.041   1.682  0.5068 -0.5288 -0.1783
17509TIP3    H273943   5.643   5.151   1.642  0.0571 -0.2173 -0.4204
17510TIP3   OH273944   3.754   3.245  14.185  0.2556 -0.0751 -0.3902
17510TIP3    H173945   3.730   3.284  14.101  1.2757 -0.8446 -1.0681
17510TIP3    H273946   3.699   3.168  14.194  0.4188 -0.2110 -0.5468
17511TIP3   OH273947   4.279   5.999   1.660  0.2310 -0.4052 -0.1732
17511TIP3    H173948   4.205   5.949   1.696 -0.3176  0.2897 -0.3093
17511TIP3    H273949   4.326   6.031   1.738  0.5726 -1.0981 -0.0855
17512TIP3   OH273950   5.485   0.913   0.429 -0.3226 -0.9214  0.2780
17512TIP3    H173951   5.514   1.002   0.446 -2.3028 -0.5943  2.5705
17512TIP3    H273952   5.541   0.859   0.485  0.6419 -1.1280 -0.8460
17513TIP3   OH273953   6.541   4.551  15.467 -0.4782  0.2021 -0.2723
17513TIP3    H173954   6.570   4.465  15.497 -0.3460  0.0674 -0.7738
17513TIP3    H273955   6.571   4.556  15.376  0.1723  1.0843 -0.0118
17514TIP3   OH273956   5.132   5.370   3.754  0.3371  0.3143 -0.8457
17514TIP3    H173957   5.130   5.332   3.666 -0.1930 -1.3992 -0.1341
17514TIP3    H273958   5.047   5.346   3.792  1.3376 -0.7674  0.8211
17515TIP3   OH273959   4.334   0.738   5.803 -0.2025 -0.2749  0.6902
17515TIP3    H173960   4.356   0.815   5.750  1.1406  0.0996  1.7526
17515TIP3    H273961   4.381   0.750   5.885  2.7705 -3.7753 -0.2485
17516TIP3   OH273962   3.877   5.039   2.911 -0.3806  0.0117  0.2322
17516TIP3    H173963   3.929   5.116   2.930 -0.3336  0.1421 -0.3883
17516TIP3    H273964   3.908   5.010   2.825 -1.2099  0.0010 -0.0729
17517TIP3   OH273965   3.793   4.792   6.851 -0.4443 -0.4335  0.2339
17517TIP3    H173966   3.698   4.785   6.840 -0.4764 -0.8650  0.7540
17517TIP3    H273967   3.824   4.827   6.767 -1.2613  1.6317  0.7414
17518TIP3   OH273968   6.157   5.608   0.983 -0.3578  0.0993 -0.4413
17518TIP3    H173969   6.076   5.558   0.980 -0.7837  0.6247  1.0765
17518TIP3    H273970   6.136   5.685   1.036  0.6616  1.1732 -1.5256
17519TIP3   OH273971   3.549   0.008   6.612 -0.0837  0.1885 -0.3376
17519TIP3    H173972   3.578  -0.082   6.594 -0.5246 -0.3111  1.2180
17519TIP3    H273973   3.616   0.064   6.572  0.3761 -0.8317 -1.0458
17520TIP3   OH273974   4.066   1.131  10.864  0.5288 -0.0790 -0.6551
17520TIP3    H173975   4.145   1.133  10.811 -0.1358  0.7282 -1.6430
17520TIP3    H273976   4.081   1.196  10.933  2.3328 -2.6784  1.6454
17521TIP3   OH273977   2.345   3.504  13.930 -0.0880  0.3192 -0.1034
17521TIP3    H173978   2.377   3.473  14.015  1.7871  0.8469 -0.5611
17521TIP3    H273979   2.324   3.596  13.944 -0.4967  0.2169 -0.0367
17522TIP3   OH273980   0.621   1.773  11.784 -0.1542  0.1155 -0.1877
17522TIP3    H173981   0.611   1.722  11.703 -1.8710  1.6921 -1.0267
17522TIP3    H273982   0.542   1.826  11.789  0.8103  1.4822  1.5256
17523TIP3   OH273983   6.504   6.059  15.723  0.1115  0.1084 -0.0519
17523TIP3    H173984   6.502   6.026  15.813 -2.4099 -1.1748 -0.4842
17523TIP3    H273985   6.445   6.134  15.724  0.6946  0.5785 -0.4855
17524TIP3   OH273986   0.426   0.749  17.277  0.0786 -0.2036  0.4368
17524TIP3    H173987   0.360   0.735  17.209 -0.2844 -1.3821  1.0087
17524TIP3    H273988   0.505   0.705  17.244 -0.2025 -1.0857  0.9299
17525TIP3   OH273989   2.825   0.150   3.731  0.7936  0.4106 -0.3348
17525TIP3    H173990   2.770   0.184   3.801 -0.1762 -0.9542 -0.3989
17525TIP3    H273991   2.897   0.106   3.777 -0.2739 -1.2021 -0.1220
17526TIP3   OH273992   0.976   5.623  15.924  0.0925  0.5558  0.5998
17526TIP3    H173993   1.071   5.626  15.913 -0.0119  1.4402 -0.1455
17526TIP3    H273994   0.960   5.669  16.006  0.3042  0.4381  0.7083
17527TIP3   OH273995   1.679   1.962   2.360 -0.3650  0.1300 -0.5466
17527TIP3    H173996   1.633   1.899   2.305 -1.6394  0.8380 -0.3471
17527TIP3    H273997   1.703   2.033   2.300  1.1607 -0.5563 -0.7924
17528TIP3   OH273998   2.765   1.582  13.339  0.0675  0.4298 -0.3518
17528TIP3    H173999   2.709   1.522  13.388 -0.7738  0.2897 -1.4635
17528TIP3    H274000   2.853   1.545  13.347 -0.3560 -0.6404 -0.5474
17529TIP3   OH274001   2.257   5.404  12.124 -0.3492 -0.3480  0.4759
17529TIP3    H174002   2.311   5.333  12.089 -1.0840 -1.9937  2.4981
17529TIP3    H274003   2.262   5.473  12.058  1.7893 -1.6008 -0.7693
17530TIP3   OH274004   5.803   4.478  11.100 -0.5328 -0.4499 -1.1087
17530TIP3    H174005   5.796   4.558  11.048  0.3377  1.3709  1.3981
17530TIP3    H274006   5.896   4.455  11.097 -0.1915  0.5088  0.6875
17531TIP3   OH274007   1.334   3.117  11.052 -0.3166 -0.3831 -0.3268
17531TIP3    H174008   1.295   3.179  10.990  0.3536  1.4053  0.9649
17531TIP3    H274009   1.275   3.119  11.128  0.7873  0.2789  0.5511
17532TIP3   OH274010   5.873   5.409   1.591  0.2432 -0.1108  0.5870
17532TIP3    H174011   5.922   5.361   1.658  1.5935  0.2309 -0.1128
17532TIP3    H274012   5.912   5.497   1.591 -1.0899  0.4962  0.7224
17533TIP3   OH274013   5.488   0.661  16.793 -0.1037 -0.4641 -0.0527
17533TIP3    H174014   5.441   0.586  16.827 -0.6288 -0.7418 -1.3361
17533TIP3    H274015   5.480   0.654  16.698  0.2533  0.9426 -0.2172
17534TIP3   OH274016   4.625   5.540   0.514  0.4055 -0.0836 -0.6847
17534TIP3    H174017   4.530   5.533   0.526  0.4423  0.2936 -0.1381
17534TIP3    H274018   4.659   5.454   0.540  0.3880  0.4018  1.0648
17535TIP3   OH274019   6.235   3.125   1.375  0.0046  0.3999  0.1549
17535TIP3    H174020   6.241   3.111   1.281 -0.9415 -0.5083  0.2199
17535TIP3    H274021   6.175   3.199   1.384  2.1161  2.2312 -0.0308
17536TIP3   OH274022   0.378   2.364  15.955  0.4696  0.3409  0.3974
17536TIP3    H174023   0.369   2.323  16.041  0.9860 -0.8312 -0.0955
17536TIP3    H274024   0.454   2.421  15.963  0.6180  0.1050  0.6715
17537TIP3   OH274025   5.113   5.057   2.867 -0.8458  0.4218  0.1189
17537TIP3    H174026   5.200   5.029   2.895 -0.5979  0.5053 -0.5422
17537TIP3    H274027   5.060   4.977   2.869 -1.0251  0.5621  1.5007
17538TIP3   OH274028   2.179   6.270  15.587 -0.2341 -0.2227 -0.7936
17538TIP3    H174029   2.113   6.336  15.565  0.4199  0.0239 -2.1627
17538TIP3    H274030   2.257   6.321  15.609 -0.3629 -0.5178  0.3778
17539TIP3   OH274031   5.528   0.031   2.477  0.1596 -0.0652  0.2987
17539TIP3    H174032   5.584   0.068   2.544 -0.4279  0.0893  0.7101
17539TIP3    H274033   5.512   0.102   2.415  1.2413 -0.3860 -0.3777
17540TIP3   OH274034   6.590   6.083   1.014  0.0197 -0.2801  0.3035
17540TIP3    H174035   6.600   6.016   0.946  0.1746 -0.5521  0.5939
17540TIP3    H274036   6.636   6.047   1.090 -0.4332 -0.1231  0.6533
17541TIP3   OH274037   6.348   6.314  17.138 -0.4050 -0.1709 -0.8115
17541TIP3    H174038   6.430   6.357  17.162  0.0581 -1.2083 -0.4944
17541TIP3    H274039   6.291   6.386  17.112  0.5569  0.5821 -0.9164
17542TIP3   OH274040   2.217   1.891   3.169 -0.0749 -0.3388 -0.4353
17542TIP3    H174041   2.258   1.953   3.229  0.5807 -0.4194 -0.7923
17542TIP3    H274042   2.123   1.899   3.187  0.0235  0.5194 -0.2532
17543TIP3   OH274043   2.767   4.623  11.884 -0.2716  0.3891  0.6074
17543TIP3    H174044   2.691   4.576  11.851  1.2073 -0.5409 -1.7448
17543TIP3    H274045   2.786   4.582  11.968 -0.1997 -1.9884 -0.4820
17544TIP3   OH274046   0.365   3.195   2.813 -0.1362  0.2807 -0.5853
17544TIP3    H174047   0.377   3.260   2.882 -2.2095 -0.4073  0.5111
17544TIP3    H274048   0.449   3.150   2.806  0.1128  0.3587  1.5074
17545TIP3   OH274049   1.700   4.208   3.456 -0.6406  0.4405  0.5000
17545TIP3    H174050   1.752   4.204   3.376  0.0314 -3.9274  0.8975
17545TIP3    H274051   1.611   4.228   3.426  0.2653  2.9172 -0.7660
17546TIP3   OH274052   0.912   2.143   5.668 -0.4818  0.2031  0.4950
17546TIP3    H174053   0.861   2.068   5.636  1.0793 -0.1186 -1.4558
17546TIP3    H274054   0.993   2.104   5.700 -0.2853  0.9522  0.9230
17547TIP3   OH274055   6.585   3.639   2.174  0.4502 -0.6493  0.1221
17547TIP3    H174056   6.601   3.556   2.128  0.4138  0.8484 -2.8156
17547TIP3    H274057   6.494   3.661   2.153  0.1077 -0.3667  1.7909
17548TIP3   OH274058   1.215   1.700   5.535 -0.3582 -0.2879  0.6474
17548TIP3    H174059   1.156   1.739   5.470 -3.6349 -0.6625  3.1607
17548TIP3    H274060   1.221   1.608   5.510  1.3336  0.1988 -1.0219
17549TIP3   OH274061   2.569   1.117  15.609 -0.5377  0.2051 -0.2722
17549TIP3    H174062   2.483   1.111  15.566 -0.1994 -0.7489 -0.8473
17549TIP3    H274063   2.564   1.197  15.661 -2.3021 -0.5644  0.8555
17550TIP3   OH274064   4.552   1.284   3.291  0.1129  0.3543  0.4106
17550TIP3    H174065   4.558   1.192   3.267  0.9821  0.2702  0.9016
17550TIP3    H274066   4.510   1.326   3.216 -0.3941 -0.4558  0.2354
17551TIP3   OH274067   4.981   4.583   5.378 -0.1842  0.1829  0.4446
17551TIP3    H174068   5.013   4.508   5.427 -0.3671 -0.4305 -0.3620
17551TIP3    H274069   5.041   4.654   5.402  1.1520 -0.6830 -0.2440
17552TIP3   OH274070   1.797   4.527   5.673 -0.0265  0.5251  0.3927
17552TIP3    H174071   1.703   4.507   5.675 -0.1971  1.3412  1.0717
17552TIP3    H274072   1.818   4.538   5.580 -0.7886  1.1958  0.2960
17553TIP3   OH274073   5.947   5.216  14.837  0.3317  0.1000 -0.1047
17553TIP3    H174074   5.962   5.253  14.750 -0.3943 -0.8847 -0.6681
17553TIP3    H274075   6.003   5.139  14.840  0.0535 -0.0948  0.1541
17554TIP3   OH274076   6.644   2.734  11.640 -0.2232  0.3747  0.1999
17554TIP3    H174077   6.659   2.824  11.613 -1.3212  0.6708  0.5482
17554TIP3    H274078   6.713   2.684  11.597  0.8802  1.4827  0.6266
17555TIP3   OH274079   5.920   4.774  11.104 -0.0621  0.1919 -0.6070
17555TIP3    H174080   5.970   4.824  11.040  0.3255  0.0271 -0.4414
17555TIP3    H274081   5.828   4.788  11.081  0.0486  0.8424 -0.6590
17556TIP3   OH274082   4.731   1.094  12.806  0.1165 -0.0976  0.6133
17556TIP3    H174083   4.683   1.175  12.823  0.8322  0.2292  1.1779
17556TIP3    H274084   4.709   1.037  12.880  1.1442  0.3274  1.2721
17557TIP3   OH274085   5.405   6.411   1.708 -0.1236 -0.0552  0.1761
17557TIP3    H174086   5.414   6.434   1.616  0.4504 -1.6566 -0.2015
17557TIP3    H274087   5.376   6.320   1.707 -0.1174 -0.0938  1.5762
17558TIP3   OH274088   3.547   5.118  15.293 -1.0845 -0.0887 -0.8195
17558TIP3    H174089   3.531   5.036  15.246  1.1394 -0.5883 -0.8393
17558TIP3    H274090   3.579   5.090  15.379 -0.9994  0.7795 -0.5611
17559TIP3   OH274091   2.305   5.973   3.697 -0.3278 -0.5582  0.1198
17559TIP3    H174092   2.341   5.974   3.786 -2.5573  0.0570  1.0885
17559TIP3    H274093   2.250   6.052   3.693  0.3510 -0.1250 -2.1092
17560TIP3   OH274094   0.947   0.474   0.746  0.4825  0.2267  0.2332
17560TIP3    H174095   1.028   0.451   0.701 -1.1180 -0.7943 -2.3289
17560TIP3    H274096   0.945   0.418   0.823  2.0674  0.0830  0.1931
17561TIP3   OH274097   0.401   6.180   0.920 -0.6043  0.2292  0.4902
17561TIP3    H174098   0.318   6.133   0.914  0.9562 -2.6293 -0.8874
17561TIP3    H274099   0.440   6.171   0.832  1.4667  0.8459  1.2729
17562TIP3   OH274100   1.495   3.235   3.047  0.7091 -0.4268  1.0479
17562TIP3    H174101   1.583   3.205   3.025  1.2468 -0.1088  2.6186
17562TIP3    H274102   1.442   3.155   3.048  0.9241 -0.6022 -0.0332
17563TIP3   OH274103   6.364   0.262   1.771 -0.1564 -0.1521 -0.3052
17563TIP3    H174104   6.359   0.224   1.683  0.9530  1.4772 -1.1098
17563TIP3    H274105   6.448   0.232   1.805 -0.1703 -0.0264 -0.1614
17564TIP3   OH274106   5.148   2.390  14.544  0.4024  0.1403 -0.4794
17564TIP3    H174107   5.221   2.382  14.483  1.8615 -0.5059  1.2779
17564TIP3    H274108   5.123   2.300  14.565  1.0761  0.2993  1.1518
17565TIP3   OH274109   4.650   2.137   5.027 -0.0074  0.0493  0.2161
17565TIP3    H174110   4.689   2.208   4.975 -1.3711  0.7346  0.0843
17565TIP3    H274111   4.629   2.070   4.963 -0.3976  0.3029  0.0759
17566TIP3   OH274112   5.200   1.947  15.665  0.4214  0.0988 -0.1262
17566TIP3    H174113   5.177   1.960  15.573  1.5270 -1.8579 -0.7485
17566TIP3    H274114   5.267   2.013  15.683  1.4490 -0.5981 -1.2697
17567TIP3   OH274115   0.445   3.616   1.023  0.1907  0.1352 -0.2211
17567TIP3    H174116   0.459   3.698   1.070  0.0914 -2.2465  4.5640
17567TIP3    H274117   0.526   3.603   0.973  0.8359  2.3223  0.1534
17568TIP3   OH274118   1.263   0.826   5.762 -0.6817  0.5807 -0.1274
17568TIP3    H174119   1.348   0.848   5.801 -1.6444  1.3292  1.6333
17568TIP3    H274120   1.208   0.802   5.836 -1.9556 -0.1480 -1.2690
17569TIP3   OH274121   5.309   1.406   2.123  0.5229 -0.1545 -0.4869
17569TIP3    H174122   5.363   1.483   2.142 -0.8124  0.6045  0.4084
17569TIP3    H274123   5.301   1.404   2.028  0.9106  0.5643 -0.5391
17570TIP3   OH274124   0.862   4.061   4.669  0.1933  0.4935 -0.2730
17570TIP3    H174125   0.845   4.095   4.757 -0.3405  0.5715 -0.4017
17570TIP3    H274126   0.793   3.996   4.655  1.6985 -1.3116  0.3089
17571TIP3   OH274127   0.735   4.506  13.853  0.2030  0.1095 -0.3584
17571TIP3    H174128   0.786   4.518  13.774  2.0936 -2.2484  0.3835
17571TIP3    H274129   0.782   4.555  13.920 -1.0975  1.6620 -0.5278
17572TIP3   OH274130   4.556   3.147  13.143  0.0882  0.1202  0.0627
17572TIP3    H174131   4.618   3.081  13.174  0.9438  1.1602  0.6428
17572TIP3    H274132   4.471   3.116  13.174  0.3112 -1.2833 -0.6611
17573TIP3   OH274133   5.604   1.037   3.364  0.0396 -0.5529  0.1920
17573TIP3    H174134   5.564   1.105   3.309  0.5747 -0.6269 -0.2974
17573TIP3    H274135   5.532   1.003   3.416 -0.2043  0.5295  0.5894
17574TIP3   OH274136   1.045   0.995   4.860 -0.7259 -0.1581  0.3213
17574TIP3    H174137   0.950   1.004   4.854 -0.6082  1.1806  0.2385
17574TIP3    H274138   1.069   0.952   4.778 -1.0324  1.7434 -0.8286
17575TIP3   OH274139   5.104   5.516   4.885  0.0441 -0.6229  0.1512
17575TIP3    H174140   5.129   5.512   4.792 -1.6761 -1.5373 -0.3322
17575TIP3    H274141   5.015   5.480   4.886 -0.1829 -0.0804  2.0927
17576TIP3   OH274142   3.716   3.883  13.991 -0.1770  0.3736 -0.0717
17576TIP3    H174143   3.789   3.941  13.971 -1.7909  2.1790 -1.0240
17576TIP3    H274144   3.662   3.882  13.912 -0.4103 -2.2307  0.0080
17577TIP3   OH274145   2.072   2.931  14.696  0.7402 -0.5542 -0.5020
17577TIP3    H174146   1.998   2.889  14.740 -0.3119 -0.2948 -1.9723
17577TIP3    H274147   2.148   2.878  14.722  0.0803 -0.7670  1.1019
17578TIP3   OH274148   5.565   2.763   6.051  0.1300 -0.2178 -0.1123
17578TIP3    H174149   5.498   2.821   6.086  0.1155  0.5128 -1.3159
17578TIP3    H274150   5.535   2.675   6.074 -1.5037  0.0551 -1.0471
17579TIP3   OH274151   2.975   6.348  12.798  0.1180 -0.3306  0.1272
17579TIP3    H174152   3.022   6.376  12.877  1.1834  2.9362 -1.4922
17579TIP3    H274153   3.023   6.271  12.768  1.9806  0.5386  0.7242
17580TIP3   OH274154   6.553   0.779   3.006  0.2452 -0.3287 -0.6139
17580TIP3    H174155   6.470   0.748   2.969 -0.6148  2.0084 -0.8175
17580TIP3    H274156   6.570   0.862   2.961  1.8211  0.0936  0.6618
17581TIP3   OH274157   5.510   5.973   0.179 -0.0535  0.5639  0.2896
17581TIP3    H174158   5.604   5.987   0.164  0.0390 -0.9840 -0.8125
17581TIP3    H274159   5.484   5.914   0.109 -1.4934 -0.3878  1.5784
17582TIP3   OH274160   4.061   5.342   0.058  0.4103 -0.4235 -0.2342
17582TIP3    H174161   4.028   5.296  -0.019  1.8714 -1.1630 -0.4504
17582TIP3    H274162   4.048   5.282   0.130  1.1399 -0.6661 -0.2993
17583TIP3   OH274163   1.838   1.609  11.551  0.2751  0.5688  0.1841
17583TIP3    H174164   1.870   1.541  11.611  1.2241  2.1717  1.5883
17583TIP3    H274165   1.746   1.620  11.575  0.5681  0.9870  1.1952
17584TIP3   OH274166   6.026   0.681  13.723  0.4356 -0.7302  0.8227
17584TIP3    H174167   6.059   0.758  13.769  0.3507  1.7920 -2.8910
17584TIP3    H274168   5.931   0.693  13.721  0.5198 -0.0182 -1.0301
17585TIP3   OH274169   6.551   0.742  13.950  0.0902  0.0461  0.3042
17585TIP3    H174170   6.614   0.671  13.958 -1.4247 -1.1511  3.7776
17585TIP3    H274171   6.586   0.811  14.007 -1.1174 -0.2130  1.4202
17586TIP3   OH274172   2.991   2.393  16.420 -0.7329 -0.3430 -0.2114
17586TIP3    H174173   3.038   2.387  16.503 -1.3450 -1.1168  0.0842
17586TIP3    H274174   3.022   2.475  16.381 -1.0032  0.4064  1.1144
17587TIP3   OH274175   3.583   1.949   2.146 -0.3064 -0.1318 -0.4152
17587TIP3    H174176   3.557   1.862   2.114  0.6236  0.2263 -2.2691
17587TIP3    H274177   3.557   2.009   2.077 -0.1293  0.9766  0.4460
17588TIP3   OH274178   2.262   3.819  11.475 -0.2203  0.0276 -0.1937
17588TIP3    H174179   2.174   3.854  11.488 -0.9828 -2.5673  2.7417
17588TIP3    H274180   2.320   3.896  11.481 -2.1213  1.5846 -0.7885
17589TIP3   OH274181   1.537   4.370   3.760  0.0183  0.0531 -0.4103
17589TIP3    H174182   1.607   4.305   3.745 -0.4863 -0.8003  0.7276
17589TIP3    H274183   1.519   4.363   3.854 -1.3638  0.5006 -0.6279
17590TIP3   OH274184   5.289   4.204  16.202 -0.2846 -0.0088 -0.0720
17590TIP3    H174185   5.371   4.230  16.245 -0.4765  0.8540 -0.2145
17590TIP3    H274186   5.313   4.125  16.153  0.2725 -0.2065  0.5039
17591TIP3   OH274187   1.162   1.464   6.208  0.8216 -0.8108 -0.0585
17591TIP3    H174188   1.076   1.436   6.239  1.0880 -0.4676  1.0366
17591TIP3    H274189   1.221   1.449   6.281  1.6844 -0.9263 -0.7531
17592TIP3   OH274190   4.503   2.397   2.052  0.1361 -0.2549  0.5260
17592TIP3    H174191   4.538   2.466   2.109 -0.6921 -0.0518  0.8001
17592TIP3    H274192   4.567   2.326   2.060  0.0218 -0.2510  1.7598
17593TIP3   OH274193   5.102   4.487   1.637  0.1029  0.1429 -0.4190
17593TIP3    H174194   5.145   4.409   1.673 -0.1037  0.3526  0.3099
17593TIP3    H274195   5.039   4.513   1.705 -0.6130  0.3049 -1.1214
17594TIP3   OH274196   6.480   1.065   2.055  0.9620  0.2528 -0.1623
17594TIP3    H174197   6.474   1.150   2.097  1.0610 -0.7547  2.0171
17594TIP3    H274198   6.559   1.070   2.001  1.2581  1.3502  0.3585
17595TIP3   OH274199   3.796   2.056   3.096  0.2108 -0.3357  0.3073
17595TIP3    H174200   3.714   2.019   3.128  0.2341  0.0736  0.8786
17595TIP3    H274201   3.809   2.019   3.009 -0.5039 -0.5166  0.2803
17596TIP3   OH274202   5.688   0.576   1.097  0.0513  0.1533 -0.1825
17596TIP3    H174203   5.654   0.637   1.032 -0.2712 -0.4393 -0.5741
17596TIP3    H274204   5.776   0.555   1.067  1.1058  2.2401  1.2059
17597TIP3   OH274205   3.266   5.431  10.966  0.0929 -0.2204 -0.2815
17597TIP3    H174206   3.222   5.506  10.928  1.0866 -0.3169 -1.7167
17597TIP3    H274207   3.208   5.357  10.948  0.5064 -0.2476 -1.5790
17598TIP3   OH274208   3.218   6.559  16.210  0.0946 -0.3786  0.0906
17598TIP3    H174209   3.150   6.626  16.209 -0.0760 -0.5456 -1.6505
17598TIP3    H274210   3.250   6.555  16.120  1.8633 -0.8701  0.6951
17599TIP3   OH274211   1.919   3.535   0.387 -0.1670  0.7948  0.5772
17599TIP3    H174212   1.827   3.513   0.401  0.0683 -2.1186 -1.6098
17599TIP3    H274213   1.927   3.545   0.292  1.1590  4.6590  0.9151
17600TIP3   OH274214   5.399   4.060   0.071 -0.2656 -0.5477  0.3253
17600TIP3    H174215   5.346   4.056   0.150  1.1508 -0.3506  1.3224
17600TIP3    H274216   5.489   4.050   0.101  0.4075  0.6277 -1.1310
17601TIP3   OH274217   0.766   3.813  13.900 -0.0478  0.2146 -0.3989
17601TIP3    H174218   0.776   3.827  13.994  0.8428  0.0700 -0.4668
17601TIP3    H274219   0.777   3.719  13.888 -1.2962  0.0614 -0.5245
17602TIP3   OH274220   1.405   4.853   6.357  0.1061  0.6175 -0.1943
17602TIP3    H174221   1.366   4.809   6.281  0.6179  1.0608 -0.7306
17602TIP3    H274222   1.435   4.937   6.323  3.8521 -0.6313 -0.5417
17603TIP3   OH274223   1.637   4.329   1.198  0.3731  0.0880  0.1827
17603TIP3    H174224   1.543   4.312   1.211  0.3265 -0.4561 -0.7979
17603TIP3    H274225   1.680   4.249   1.230  0.3145 -0.8445 -1.8974
17604TIP3   OH274226   0.182   1.962   4.582  0.0197  0.2535 -0.1589
17604TIP3    H174227   0.098   1.932   4.548  0.0530 -0.6269  0.4939
17604TIP3    H274228   0.243   1.949   4.509 -0.1926 -0.2136 -0.2598
17605TIP3   OH274229   3.725   3.525  14.666 -0.2401  0.4362  0.5679
17605TIP3    H174230   3.706   3.559  14.579 -0.9740 -1.1989  0.0487
17605TIP3    H274231   3.662   3.570  14.723 -2.3765 -1.1906 -0.3662
17606TIP3   OH274232   5.182   6.697  11.219 -0.1451  0.4149  0.4053
17606TIP3    H174233   5.168   6.773  11.163 -3.8479 -0.6563 -0.4004
17606TIP3    H274234   5.144   6.721  11.303 -1.4976 -0.4851  0.0944
17607TIP3   OH274235   2.913   6.203  16.132 -0.0352  0.2473 -0.1728
17607TIP3    H174236   2.926   6.295  16.155  1.8221  0.0277 -0.2390
17607TIP3    H274237   2.948   6.194  16.044  1.2311 -0.8268  0.4017
17608TIP3   OH274238   3.819   0.375  14.669  0.5148 -0.1186  0.2735
17608TIP3    H174239   3.835   0.294  14.621  0.9757  0.0299  0.1758
17608TIP3    H274240   3.824   0.444  14.604 -0.9567 -0.0802  0.1477
17609TIP3   OH274241   5.952   0.336  11.522  0.4421 -0.1388 -0.4951
17609TIP3    H174242   5.873   0.388  11.505  0.9197 -0.2239 -3.5167
17609TIP3    H274243   5.981   0.307  11.436  2.5633 -1.9846  0.7157
17610TIP3   OH274244   3.762   4.474   6.789  0.0011 -0.0011 -0.0449
17610TIP3    H174245   3.809   4.556   6.803 -0.5756  0.4433 -0.6610
17610TIP3    H274246   3.672   4.494   6.814 -0.0808 -0.5337  0.0877
17611TIP3   OH274247   3.469   6.073  14.625 -0.2614  0.6907 -0.1790
17611TIP3    H174248   3.469   5.991  14.576  0.6878 -0.7530  2.0790
17611TIP3    H274249   3.554   6.112  14.605 -0.2016  0.5107 -0.2781
17612TIP3   OH274250   2.973   3.537  11.423 -0.3678  0.8370 -0.4354
17612TIP3    H174251   2.908   3.555  11.355  0.2937  2.4092 -0.6970
17612TIP3    H274252   2.924   3.495  11.493 -1.3168  0.3898 -1.3261
17613TIP3   OH274253   3.476   1.563  14.195  0.0283  0.6073  0.2056
17613TIP3    H174254   3.384   1.590  14.207 -0.0944 -0.1686  1.1425
17613TIP3    H274255   3.510   1.625  14.131 -1.2973  0.5771 -0.5674
17614TIP3   OH274256   3.332   1.524   1.144  0.2879 -0.2128 -0.0511
17614TIP3    H174257   3.286   1.604   1.168  0.1459  0.0148 -1.0375
17614TIP3    H274258   3.320   1.516   1.050  2.3445 -0.0936 -0.3731
17615TIP3   OH274259   1.372   2.452   6.822 -0.0668  0.4647 -0.0047
17615TIP3    H174260   1.462   2.436   6.849  0.9456  1.4910 -2.5322
17615TIP3    H274261   1.360   2.546   6.829 -0.5788  0.4652 -0.6953
17616TIP3   OH274262   6.402   5.808  13.318  0.7449  0.5721 -0.8216
17616TIP3    H174263   6.398   5.776  13.408  0.5984  0.1720 -0.9697
17616TIP3    H274264   6.381   5.902  13.325  1.0162  0.6065 -0.4099
17617TIP3   OH274265   5.455   6.375   0.894  0.0370  0.0636 -0.1769
17617TIP3    H174266   5.493   6.308   0.837 -2.0316  0.2531 -1.8779
17617TIP3    H274267   5.462   6.456   0.843  2.2931  1.2161  1.7514
17618TIP3   OH274268   0.265   5.988  12.742  0.3693  0.4940 -0.1149
17618TIP3    H174269   0.270   6.049  12.668  0.8421  2.1411  1.2216
17618TIP3    H274270   0.282   6.042  12.819  0.1572 -1.2264  1.1949
17619TIP3   OH274271   4.502   4.080  12.860 -0.1750 -0.0131 -0.5550
17619TIP3    H174272   4.412   4.091  12.830 -0.6285 -0.0294  0.7514
17619TIP3    H274273   4.533   4.170  12.876 -0.7003 -0.0899  1.0481
17620TIP3   OH274274   6.406   1.178  15.312 -0.2065 -0.2211  0.4745
17620TIP3    H174275   6.329   1.167  15.256 -1.7502 -1.2948  2.6283
17620TIP3    H274276   6.372   1.225  15.389  0.6752 -2.6613  2.4881
17621TIP3   OH274277   0.741   0.552  15.013  0.2404 -0.0502 -0.0931
17621TIP3    H174278   0.757   0.573  14.920  1.6153  1.6037  0.4672
17621TIP3    H274279   0.812   0.494  15.038  0.9345  0.9737  0.3710
17622TIP3   OH274280   2.939   2.791  12.785  0.3384  0.0620  0.1929
17622TIP3    H174281   2.982   2.870  12.819  1.7087 -0.8908  0.7591
17622TIP3    H274282   2.866   2.776  12.845  0.7172  0.2951  0.7219
17623TIP3   OH274283   5.992   4.067   4.757 -0.2611  0.0169  0.0672
17623TIP3    H174284   5.899   4.051   4.773 -0.6831  0.5431 -1.6163
17623TIP3    H274285   6.031   4.074   4.844 -1.9637  0.7379  0.8213
17624TIP3   OH274286   4.716   6.533  17.048 -0.3600 -0.2402  0.2744
17624TIP3    H174287   4.783   6.561  17.111  1.1886 -0.4531 -1.2132
17624TIP3    H274288   4.743   6.573  16.965 -2.0479 -0.4175 -0.3960
17625TIP3   OH274289   1.712   1.382   0.954  0.0872 -0.3476  0.1910
17625TIP3    H174290   1.741   1.327   1.026 -0.1277  0.7473  1.1416
17625TIP3    H274291   1.629   1.343   0.926 -0.2334 -0.3142  1.0787
17626TIP3   OH274292   0.390   3.660  16.738 -0.1004  0.8475  0.6156
17626TIP3    H174293   0.440   3.688  16.661 -0.4509  2.0029  0.7945
17626TIP3    H274294   0.344   3.581  16.710  0.1524  0.9902 -0.2116
17627TIP3   OH274295   0.384   2.809  12.798 -0.1116 -0.1386 -0.5257
17627TIP3    H174296   0.456   2.799  12.860  0.5648  0.6134 -1.1649
17627TIP3    H274297   0.320   2.864  12.844  0.3020  0.2665 -0.4322
17628TIP3   OH274298   6.301   3.866  13.654  0.4892  0.3047 -0.1022
17628TIP3    H174299   6.384   3.876  13.700 -0.4256  0.2404  1.6753
17628TIP3    H274300   6.274   3.955  13.633  0.8306  0.3459 -0.3773
17629TIP3   OH274301   1.672   1.638  12.714 -0.7667 -0.7398 -0.1631
17629TIP3    H174302   1.624   1.557  12.730  0.4006 -1.4738 -0.2630
17629TIP3    H274303   1.669   1.649  12.619 -0.4709 -0.9738 -0.2036
17630TIP3   OH274304   4.553   5.740  12.949  0.0892 -0.0851 -0.0065
17630TIP3    H174305   4.625   5.803  12.955  0.2952 -0.2651 -0.5629
17630TIP3    H274306   4.547   5.703  13.037  2.0511 -1.5975 -0.4381
17631TIP3   OH274307   0.593   4.265   5.011 -0.2748 -0.2588 -0.3651
17631TIP3    H174308   0.643   4.196   4.967 -0.4657 -0.2693 -0.5674
17631TIP3    H274309   0.515   4.222   5.043 -0.2550 -0.1975 -0.2348
17632TIP3   OH274310   1.705   3.982  10.341  0.1315  0.1683  0.3271
17632TIP3    H174311   1.734   3.891  10.336 -1.8284 -0.5817  1.4677
17632TIP3    H274312   1.776   4.028  10.386  1.1969 -0.7304 -0.3832
17633TIP3   OH274313   4.943   4.162  14.777  0.2420 -0.5170 -0.2731
17633TIP3    H174314   5.004   4.089  14.785 -1.9102 -2.8119 -2.7169
17633TIP3    H274315   4.937   4.178  14.683  0.1088  2.4637  0.1265
17634TIP3   OH274316   5.081   4.364  15.225 -0.1418 -0.1582  0.4430
17634TIP3    H174317   5.010   4.397  15.280 -0.1445  1.5295 -0.5024
17634TIP3    H274318   5.038   4.306  15.162 -0.9061  1.5624 -0.7130
17635TIP3   OH274319   3.404   5.467   5.531 -0.0394  0.5498  0.1024
17635TIP3    H174320   3.327   5.518   5.556 -1.0882 -0.2273 -1.3863
17635TIP3    H274321   3.441   5.513   5.456  0.1855  0.2114  0.0027
17636TIP3   OH274322   6.341   0.643  12.734  0.7336 -0.0365 -0.2290
17636TIP3    H174323   6.359   0.552  12.757 -2.7178 -0.4713  1.3709
17636TIP3    H274324   6.332   0.689  12.818 -1.1701  0.8972 -0.8708
17637TIP3   OH274325   0.056   3.729  11.772  0.3336  0.2421  0.3386
17637TIP3    H174326   0.130   3.674  11.745 -0.4928 -0.5114 -0.4709
17637TIP3    H274327   0.054   3.800  11.709 -0.1119 -0.1755 -0.1211
17638TIP3   OH274328   1.659   5.813  11.577 -0.8058 -0.1811 -0.2964
17638TIP3    H174329   1.564   5.812  11.586 -0.8500  2.0128  0.0721
17638TIP3    H274330   1.677   5.887  11.519  0.7226  0.6158  1.0935
17639TIP3   OH274331   3.651   3.849   1.303  0.4950 -0.1542  0.1580
17639TIP3    H174332   3.664   3.940   1.329  2.5976  0.6770 -3.2024
17639TIP3    H274333   3.720   3.800   1.348  1.6283  0.5608 -0.7759
17640TIP3   OH274334   1.151   0.241   3.310 -0.1318 -0.2580  0.4178
17640TIP3    H174335   1.101   0.309   3.356 -1.0664 -1.5626  1.4045
17640TIP3    H274336   1.140   0.262   3.217 -1.9290 -0.0741  0.6322
17641TIP3   OH274337   1.013   4.510   2.036  0.1181  0.2615  0.1908
17641TIP3    H174338   0.961   4.556   2.102 -0.8121  0.2483 -0.5034
17641TIP3    H274339   1.083   4.571   2.013 -1.3332  1.5534 -1.0222
17642TIP3   OH274340   2.549   5.629   5.284  0.1526  0.1315 -0.2760
17642TIP3    H174341   2.510   5.712   5.254  0.3907  0.4300  0.2393
17642TIP3    H274342   2.589   5.650   5.368 -0.0686 -0.5858  0.0165
17643TIP3   OH274343   3.928   0.744  12.019  0.1601  0.0282  0.4148
17643TIP3    H174344   3.985   0.809  11.977  0.6262 -0.8666 -0.3904
17643TIP3    H274345   3.968   0.730  12.105  0.1674  0.6499  0.5219
17644TIP3   OH274346   6.697   5.713  12.349 -0.0272 -0.9328  0.1118
17644TIP3    H174347   6.680   5.807  12.335  0.3707 -0.7614  0.7363
17644TIP3    H274348   6.619   5.681  12.393  0.0687 -0.7706  0.4033
17645TIP3   OH274349   2.822   0.512  15.454 -0.4625  0.5593 -0.3719
17645TIP3    H174350   2.868   0.593  15.474 -1.3733  0.6503  1.5941
17645TIP3    H274351   2.809   0.470  15.540 -2.5904 -0.2261 -1.0152
17646TIP3   OH274352   3.025   5.975  11.582 -0.1702  1.0271 -0.2066
17646TIP3    H174353   2.957   6.041  11.593 -0.5535  0.5107  0.6315
17646TIP3    H274354   2.978   5.896  11.557 -0.0763  0.2930  1.7460
17647TIP3   OH274355   5.243   5.782  14.315 -0.3476 -0.2985 -0.3032
17647TIP3    H174356   5.315   5.732  14.275 -0.8010 -0.3166 -1.1141
17647TIP3    H274357   5.266   5.785  14.408  1.6124  1.1949 -0.7729
17648TIP3   OH274358   0.707   6.458   0.331 -0.1714  0.1438 -0.4714
17648TIP3    H174359   0.715   6.523   0.401 -0.3908  0.5308 -0.7976
17648TIP3    H274360   0.770   6.487   0.265 -0.4518  0.1779 -0.7291
17649TIP3   OH274361   2.143   6.480   2.983 -0.0283 -0.2958 -0.1608
17649TIP3    H174362   2.121   6.485   2.890  0.3414  0.4193 -0.2172
17649TIP3    H274363   2.236   6.455   2.984  0.5315  1.6066 -0.0502
17650TIP3   OH274364   0.826   4.491  17.246  0.1848  0.8623  0.6372
17650TIP3    H174365   0.731   4.487  17.264  0.5233 -1.6619  2.5669
17650TIP3    H274366   0.846   4.405  17.208  2.0961  0.0460  3.1679
17651TIP3   OH274367   1.866   3.290  12.423  0.0392 -0.2071  0.3502
17651TIP3    H174368   1.937   3.227  12.435  0.1362 -0.0114  0.8280
17651TIP3    H274369   1.909   3.367  12.386 -0.4926 -1.3538 -2.9372
17652TIP3   OH274370   6.375   2.049   0.420  0.4780  0.4071  0.3181
17652TIP3    H174371   6.374   2.123   0.360 -1.4127 -0.1112 -0.3731
17652TIP3    H274372   6.339   2.083   0.502  1.1020  0.6173  0.5091
17653TIP3   OH274373   1.499   6.444   0.343  1.3272 -0.1875  0.3429
17653TIP3    H174374   1.525   6.536   0.350 -0.3397  0.8575 -3.9931
17653TIP3    H274375   1.577   6.399   0.311  1.6114  0.1074  0.6147
17654TIP3   OH274376   2.087   2.940  13.623  0.1010  0.1984  0.0544
17654TIP3    H174377   2.056   2.963  13.711 -0.1867  0.4950 -0.1200
17654TIP3    H274378   2.025   2.983  13.564 -0.1953 -0.6648 -0.2869
17655TIP3   OH274379   0.137   2.933  15.522  0.1298 -0.3145  0.0411
17655TIP3    H174380   0.101   2.991  15.589 -0.9325 -0.8399 -0.0424
17655TIP3    H274381   0.107   2.845  15.549 -0.5112 -0.5115 -1.2228
17656TIP3   OH274382   3.844   6.085   4.586 -0.0562  0.0906 -0.0035
17656TIP3    H174383   3.904   6.044   4.523  1.3559  0.3162  1.1406
17656TIP3    H274384   3.875   6.175   4.593 -1.3031  0.5616 -0.2686
17657TIP3   OH274385   2.183   5.967   1.304  0.1985  0.0070 -0.1473
17657TIP3    H174386   2.275   5.954   1.281  0.2457  0.4127 -0.1877
17657TIP3    H274387   2.173   6.061   1.312 -0.3639  0.0049 -0.7537
17658TIP3   OH274388   0.044   4.861  16.375  0.3423  0.1301  0.3592
17658TIP3    H174389  -0.018   4.827  16.440  2.2164 -1.3259  1.4925
17658TIP3    H274390   0.129   4.830  16.405  1.3931  0.0488 -2.4223
17659TIP3   OH274391   3.417   2.634   5.607  0.4959 -0.2242 -0.2742
17659TIP3    H174392   3.341   2.588   5.644 -0.7441  1.2838 -0.8023
17659TIP3    H274393   3.390   2.726   5.605  2.1721  0.2923 -0.9503
17660TIP3   OH274394   5.144   5.443   0.865 -0.0463  0.5227  0.2235
17660TIP3    H174395   5.205   5.488   0.923 -0.6543  0.7294  0.7266
17660TIP3    H274396   5.074   5.506   0.850  0.4903  0.7718 -1.4409
17661TIP3   OH274397   4.041   6.286   1.734 -0.3017 -0.1358  0.4430
17661TIP3    H174398   4.089   6.208   1.761 -0.2323  0.1306  1.1085
17661TIP3    H274399   4.103   6.358   1.746 -0.4574  0.0549  0.1040
17662TIP3   OH274400   3.184   2.719  12.601 -0.1079  0.8999 -0.1646
17662TIP3    H174401   3.148   2.807  12.585 -1.8987  0.2467  0.0885
17662TIP3    H274402   3.110   2.669  12.635  1.2986 -0.2827  1.2711
17663TIP3   OH274403   3.762   4.443   0.519  0.7866 -0.0258 -0.4915
17663TIP3    H174404   3.785   4.508   0.452 -1.1393  0.9372 -0.2821
17663TIP3    H274405   3.716   4.493   0.586 -1.5187 -1.7204 -0.7107
17664TIP3   OH274406   0.973   6.088   2.013 -0.6334  0.0068 -0.4024
17664TIP3    H174407   0.886   6.100   2.051 -0.4324  1.4728 -0.3109
17664TIP3    H274408   1.030   6.073   2.089 -0.3781  2.0049 -0.1427
17665TIP3   OH274409   0.707   4.183   2.137 -0.1858  0.1471 -0.5986
17665TIP3    H174410   0.753   4.127   2.075  0.2950 -0.8939  0.6565
17665TIP3    H274411   0.663   4.123   2.197 -3.4454  1.0602 -1.8251
17666TIP3   OH274412   4.425   4.854   5.748 -0.2639 -0.0487  0.1258
17666TIP3    H174413   4.393   4.881   5.834 -1.1067  0.2498 -0.2705
17666TIP3    H274414   4.478   4.928   5.718 -2.5784  1.3063 -0.9623
17667TIP3   OH274415   4.043   0.876  14.340  1.2809 -0.3032  0.3282
17667TIP3    H174416   4.094   0.795  14.347  1.2933 -0.3784 -0.5638
17667TIP3    H274417   4.035   0.892  14.246 -0.0357 -0.0867  0.4601
17668TIP3   OH274418   6.207   3.118   5.744  0.1025 -0.0047  0.0505
17668TIP3    H174419   6.183   3.127   5.836 -0.2040  1.2049 -0.1361
17668TIP3    H274420   6.194   3.205   5.706  2.1950  0.0493 -0.6915
17669TIP3   OH274421   4.495   2.473  14.830  0.5228 -0.2831  0.1590
17669TIP3    H174422   4.423   2.497  14.772  0.8494  0.1502 -0.0812
17669TIP3    H274423   4.527   2.557  14.864 -0.7824 -0.6018  2.3789
17670TIP3   OH274424   1.479   5.323  12.596  0.0776  0.2409 -0.0961
17670TIP3    H174425   1.530   5.272  12.533 -0.1860 -1.8113  1.2755
17670TIP3    H274426   1.544   5.378  12.640  0.2560  1.7852 -2.1295
17671TIP3   OH274427   4.176   4.658  12.833  0.6891 -0.2351 -0.0396
17671TIP3    H174428   4.216   4.691  12.914 -1.0277  0.3510  0.6271
17671TIP3    H274429   4.245   4.666  12.767  2.0940 -0.6162  1.3278
17672TIP3   OH274430   4.622   0.214   5.986  0.1271  0.9491 -0.0432
17672TIP3    H174431   4.696   0.183   6.038  0.5956  0.6136 -0.8873
17672TIP3    H274432   4.547   0.164   6.018  0.3133  1.0692  0.6039
17673TIP3   OH274433   4.747   3.784   2.281  0.2070  0.2306 -0.2243
17673TIP3    H174434   4.817   3.817   2.336 -0.3771  0.4772  0.3797
17673TIP3    H274435   4.695   3.861   2.259 -0.9588 -0.1939  0.9076
17674TIP3   OH274436   1.550   4.246  15.558  0.2709 -0.8037 -0.6786
17674TIP3    H174437   1.624   4.282  15.607 -0.7552 -0.1987  0.4763
17674TIP3    H274438   1.518   4.319  15.506  0.3270 -1.0024 -0.9973
17675TIP3   OH274439   3.942   4.952  14.872 -0.1770 -0.0886  0.3087
17675TIP3    H174440   3.857   4.993  14.858  0.7279  1.9851  0.6089
17675TIP3    H274441   4.004   5.024  14.873  1.4503 -1.4252  1.3742
17676TIP3   OH274442   4.440   4.609   5.978 -0.6111  0.6291 -0.5382
17676TIP3    H174443   4.397   4.604   6.063 -1.6496  0.8012 -1.0378
17676TIP3    H274444   4.507   4.677   5.989  0.1328 -0.2384  0.4955
17677TIP3   OH274445   1.032   3.472  17.073  0.1815 -0.0683 -1.1135
17677TIP3    H174446   0.947   3.488  17.116  0.2451 -0.3869 -0.8713
17677TIP3    H274447   1.059   3.386  17.104  0.9708  0.3632 -0.5774
17678TIP3   OH274448   4.004   5.563   2.835  0.1310  0.1853  0.4584
17678TIP3    H174449   3.955   5.593   2.912  0.7631 -0.6696  1.2089
17678TIP3    H274450   3.974   5.473   2.821  2.4910 -0.9245  1.8559
17679TIP3   OH274451   4.504   0.807   6.041  0.2339 -0.0252 -0.3288
17679TIP3    H174452   4.449   0.811   6.119 -1.9644 -0.5702 -1.7636
17679TIP3    H274453   4.581   0.859   6.063 -0.5246  0.1901  2.0266
17680TIP3   OH274454   6.324   0.848  14.471  0.1571  0.2635  0.0585
17680TIP3    H174455   6.362   0.817  14.389 -0.2370 -1.6440  0.5589
17680TIP3    H274456   6.234   0.871  14.449  0.4595  1.1170 -0.3229
17681TIP3   OH274457   2.379   6.400   2.864 -0.2485 -0.0823 -0.4625
17681TIP3    H174458   2.382   6.492   2.837  0.6902  0.0011 -0.1104
17681TIP3    H274459   2.452   6.390   2.925 -1.5091 -0.5861  1.0490
17682TIP3   OH274460   1.159   4.285   4.149 -0.2893 -0.2421 -0.3214
17682TIP3    H174461   1.166   4.261   4.056 -0.0980  0.1265 -0.4024
17682TIP3    H274462   1.195   4.373   4.154 -1.2620  0.1588 -0.0774
17683TIP3   OH274463   3.116   5.976  16.028 -0.7922 -0.2666 -0.2057
17683TIP3    H174464   3.033   6.010  15.995 -1.6245 -1.6831  0.2991
17683TIP3    H274465   3.100   5.882  16.039  1.0816 -0.6726 -0.6590
17684TIP3   OH274466   6.402   4.192   4.524  0.1198  0.3758  0.1329
17684TIP3    H174467   6.487   4.156   4.499 -1.0103 -1.4516 -1.4848
17684TIP3    H274468   6.388   4.163   4.614  0.3758 -1.0649 -0.2711
17685TIP3   OH274469   5.615   0.032   5.060  0.1695  0.1529  0.5392
17685TIP3    H174470   5.568  -0.048   5.080  0.2721  0.0493  0.3772
17685TIP3    H274471   5.551   0.088   5.015  0.1732  0.0493  0.4022
17686TIP3   OH274472   0.741   1.477   4.347  0.2515  0.2928  0.2520
17686TIP3    H174473   0.728   1.539   4.418 -3.2996 -0.1579  0.1516
17686TIP3    H274474   0.755   1.393   4.391  0.1317  0.3521  0.4033
17687TIP3   OH274475   3.246   2.808  11.175 -0.0793 -0.6459  0.1463
17687TIP3    H174476   3.342   2.801  11.170  0.0163  0.4398  0.0204
17687TIP3    H274477   3.217   2.724  11.210  0.8142 -1.4509 -0.9804
17688TIP3   OH274478   4.739   3.087   0.351  0.0514 -0.0065  0.3089
17688TIP3    H174479   4.678   3.157   0.327  0.4270  0.1821 -0.1138
17688TIP3    H274480   4.825   3.120   0.326  0.3553 -0.2020  1.0495
17689TIP3   OH274481   2.165   4.081   0.723 -0.4141 -0.5817 -0.2950
17689TIP3    H174482   2.205   3.994   0.716 -0.6825 -0.5968 -2.2576
17689TIP3    H274483   2.178   4.106   0.814  0.9039 -2.0848 -0.0232
17690TIP3   OH274484   0.279   4.917   0.566 -0.3679 -0.2787  0.3299
17690TIP3    H174485   0.263   4.906   0.472 -0.6711  0.1082  0.3305
17690TIP3    H274486   0.331   4.998   0.572 -0.2849 -0.3435  0.4912
17691TIP3   OH274487   6.450   1.958  16.554  0.2266  0.0762  0.6622
17691TIP3    H174488   6.465   2.046  16.589 -3.9087  1.2265  0.0655
17691TIP3    H274489   6.426   1.905  16.630  4.0019 -1.1098  1.2411
17692TIP3   OH274490   6.552   5.699   0.945 -0.1534  0.2289  0.4743
17692TIP3    H174491   6.594   5.765   0.890  1.0867  0.6877  1.9026
17692TIP3    H274492   6.506   5.749   1.013 -0.8212 -0.3381  0.4529
17693TIP3   OH274493   3.945   1.718  12.047  0.3272 -0.1374  0.3235
17693TIP3    H174494   4.038   1.697  12.061  0.4006 -1.1964 -1.4262
17693TIP3    H274495   3.947   1.805  12.006  0.3380  1.0279  2.6110
17694TIP3   OH274496   2.605   1.348   6.316  0.5743  0.0804  0.2992
17694TIP3    H174497   2.565   1.294   6.247  0.8450 -0.8159  0.8254
17694TIP3    H274498   2.632   1.285   6.383  1.2360  0.8420  0.7667
17695TIP3   OH274499   2.964   1.561  14.650 -0.8093 -0.3296  0.4486
17695TIP3    H174500   2.961   1.593  14.740 -0.5868  0.9316  0.0243
17695TIP3    H274501   3.053   1.526  14.640 -0.4988  0.4664  0.4088
17696TIP3   OH274502   4.887   4.899  11.553 -0.2371  0.0747 -0.1803
17696TIP3    H174503   4.848   4.972  11.505  0.2012 -0.7799 -1.9179
17696TIP3    H274504   4.907   4.834  11.486  2.2762 -0.3713  0.8778
17697TIP3   OH274505   4.936   4.137   5.141  0.8299 -0.3774  0.8019
17697TIP3    H174506   5.011   4.083   5.115 -1.1042 -2.5001 -0.7844
17697TIP3    H274507   4.963   4.227   5.120  3.2731 -0.9477  1.2660
17698TIP3   OH274508   4.154   3.226   1.822  0.2409 -0.4012 -0.4166
17698TIP3    H174509   4.169   3.161   1.891  2.2131  1.1347  0.7333
17698TIP3    H274510   4.068   3.263   1.841 -0.1102 -1.4135 -0.0117
17699TIP3   OH274511   1.182   4.069   6.069  0.5017  0.3936  0.5641
17699TIP3    H174512   1.095   4.107   6.057  0.3407 -0.3811 -0.8792
17699TIP3    H274513   1.177   4.028   6.155  0.0868  1.9860  1.3470
17700TIP3   OH274514   2.474   1.995   3.939  0.2478  0.4112 -0.4914
17700TIP3    H174515   2.512   1.997   3.851  0.3504 -0.6594 -0.4794
17700TIP3    H274516   2.485   1.905   3.969 -0.9907  0.4254  0.0962
17701TIP3   OH274517   4.432   0.549  16.418 -0.2765  0.8031 -0.4403
17701TIP3    H174518   4.511   0.538  16.471  0.6031 -0.5284 -1.9551
17701TIP3    H274519   4.446   0.628  16.367 -0.6370  1.4534  0.4417
17702TIP3   OH274520   2.782   6.590  14.967  0.3785  0.7635  0.1726
17702TIP3    H174521   2.862   6.617  15.013 -0.0974  1.0596  0.8485
17702TIP3    H274522   2.784   6.495  14.969  1.2489  0.7538 -0.7677
17703TIP3   OH274523   0.979   4.815   4.728  0.2890  0.0224 -0.3210
17703TIP3    H174524   0.946   4.726   4.714  0.9435 -0.6207  1.8022
17703TIP3    H274525   1.073   4.810   4.710  0.7542 -0.3295  1.8732
17704TIP3   OH274526   0.906   5.479   5.477 -0.5164 -0.4251 -0.3943
17704TIP3    H174527   0.851   5.401   5.490  0.4633 -1.2183 -0.8859
17704TIP3    H274528   0.992   5.454   5.510 -0.3164  0.6562 -0.0426
17705TIP3   OH274529   5.066   3.475  16.880  0.3908  0.0279  0.2743
17705TIP3    H174530   5.152   3.513  16.861  0.6290  0.0505  1.3343
17705TIP3    H274531   5.084   3.383  16.898  0.4023  0.3201  1.8717
17706TIP3   OH274532   0.402   4.245  12.435  0.3005 -0.6487  0.1528
17706TIP3    H174533   0.320   4.289  12.413  0.7197  0.2353  0.3036
17706TIP3    H274534   0.377   4.155  12.455 -0.8405 -0.0636  1.5728
17707TIP3   OH274535   1.789   2.588  15.880  0.0336  0.2933 -0.3517
17707TIP3    H174536   1.824   2.671  15.848 -2.0779  2.3406  2.1225
17707TIP3    H274537   1.764   2.540  15.801  0.4008  2.4649 -1.8803
17708TIP3   OH274538   1.131   4.052  17.077 -0.0537 -0.0383 -0.0340
17708TIP3    H174539   1.045   4.022  17.047  0.1645 -1.5015  0.7075
17708TIP3    H274540   1.163   4.108  17.006 -1.1158 -0.4287 -0.8507
17709TIP3   OH274541   2.889   0.914   3.755  0.5686 -0.6240 -0.0522
17709TIP3    H174542   2.917   0.947   3.670  0.5957 -1.2367 -0.2821
17709TIP3    H274543   2.801   0.878   3.739  0.7950 -1.2365  0.0530
17710TIP3   OH274544   0.906   4.584   5.483 -0.2362 -0.3418  0.3640
17710TIP3    H174545   0.957   4.600   5.403 -0.8673  2.0019  0.3676
17710TIP3    H274546   0.971   4.586   5.553  0.3766 -2.7600 -0.0473
17711TIP3   OH274547   0.444   3.283  15.305  0.0890  0.3118  0.0193
17711TIP3    H174548   0.510   3.223  15.340 -2.4370 -2.8306 -0.1124
17711TIP3    H274549   0.477   3.308  15.219  2.8698  2.1352  1.4845
17712TIP3   OH274550   1.779   4.855   1.900 -0.1301  0.2296  0.4385
17712TIP3    H174551   1.694   4.810   1.899 -0.1087  0.1824  0.6544
17712TIP3    H274552   1.832   4.805   1.962 -0.5567  1.3446  1.7744
17713TIP3   OH274553   1.910   2.924  11.038  0.5665 -0.0494  0.1042
17713TIP3    H174554   1.888   2.843  11.086  1.4787 -0.4740 -0.1740
17713TIP3    H274555   1.968   2.972  11.098  0.4435  0.1579  0.0576
17714TIP3   OH274556   4.221   4.411  14.517 -0.5269 -0.5619 -0.2576
17714TIP3    H174557   4.253   4.501  14.520 -1.4935 -0.1346 -1.8316
17714TIP3    H274558   4.189   4.395  14.606  1.7497 -0.1950  0.7122
17715TIP3   OH274559   1.304   6.592  13.784  0.2386 -0.6559 -0.0142
17715TIP3    H174560   1.373   6.535  13.751  1.8203  1.8358 -1.2793
17715TIP3    H274561   1.324   6.678  13.748 -1.3878  0.9953  2.6865
17716TIP3   OH274562   4.069   6.011   2.268  0.4652 -0.0925  0.4625
17716TIP3    H174563   4.083   6.106   2.272  3.2704 -0.4364  0.6357
17716TIP3    H274564   4.067   5.991   2.174 -0.9289  0.1944  0.4105
17717TIP3   OH274565   5.073   0.623  11.901 -0.6687  0.3082 -0.1746
17717TIP3    H174566   5.095   0.543  11.948 -1.4275 -0.2462 -0.7214
17717TIP3    H274567   5.154   0.647  11.855 -0.5329 -0.3440 -0.2835
17718TIP3   OH274568   3.507   4.851  14.952  0.0469  0.0620 -0.3354
17718TIP3    H174569   3.476   4.768  14.916 -1.6946  0.3629  0.3670
17718TIP3    H274570   3.484   4.848  15.045  0.7692  0.9693 -0.1088
17719TIP3   OH274571   0.208   2.101   5.186  0.4626  0.9534 -0.0619
17719TIP3    H174572   0.268   2.152   5.132 -0.5565  0.4654 -1.7480
17719TIP3    H274573   0.123   2.111   5.142  0.3249 -2.6762 -0.9104
17720TIP3   OH274574   3.097   5.657   2.449  0.2368  0.3510 -0.4503
17720TIP3    H174575   3.160   5.715   2.404  2.5256 -0.6196  1.2984
17720TIP3    H274576   3.067   5.708   2.524  0.3297  0.1743 -0.2917
17721TIP3   OH274577   6.068   3.092  12.928 -0.6527  0.0921 -0.3511
17721TIP3    H174578   6.035   3.173  12.890  0.9921  0.5438 -0.9339
17721TIP3    H274579   6.088   3.037  12.852  0.7390  0.2058 -0.1081
17722TIP3   OH274580   5.680   3.941  17.356 -0.2846 -0.3533 -0.0590
17722TIP3    H174581   5.644   3.853  17.343  0.2262 -0.7705  1.1477
17722TIP3    H274582   5.705   3.942  17.449  2.5987 -0.0129 -0.7621
17723TIP3   OH274583   4.106   3.081  13.640  0.4049  0.0309  0.2330
17723TIP3    H174584   4.134   3.000  13.683 -0.5022  0.7348  2.2730
17723TIP3    H274585   4.184   3.136  13.640  0.7265 -0.4157 -0.1221
17724TIP3   OH274586   6.711   6.463   1.410 -0.4599  0.0552 -0.0493
17724TIP3    H174587   6.803   6.483   1.391 -0.7787  2.1925  0.3931
17724TIP3    H274588   6.708   6.367   1.415  1.5872 -0.0974 -0.7870
17725TIP3   OH274589   2.547   5.723  15.015  0.4018 -0.6325 -0.2313
17725TIP3    H174590   2.603   5.663  15.065  0.7597  0.5526  0.8460
17725TIP3    H274591   2.534   5.798  15.074 -1.4590 -0.4133 -0.8682
17726TIP3   OH274592   4.949   6.250   4.836  0.2812  0.1838 -0.5279
17726TIP3    H174593   4.957   6.344   4.856  1.9800 -0.2390  1.0410
17726TIP3    H274594   5.039   6.217   4.839 -0.2938 -1.5196 -0.9879
17727TIP3   OH274595   6.700   1.378   2.973  0.0681  0.1277  0.3542
17727TIP3    H174596   6.750   1.367   2.893 -1.7674 -2.8931 -0.5269
17727TIP3    H274597   6.621   1.426   2.947 -0.5952 -0.9757  0.2922
17728TIP3   OH274598   3.127   0.429  10.584 -0.1182  0.3313  0.0234
17728TIP3    H174599   3.115   0.493  10.514  3.6017  0.8898 -0.3207
17728TIP3    H274600   3.164   0.352  10.541 -0.0320 -0.2232  1.0453
17729TIP3   OH274601   3.001   2.322  13.308  0.0195  0.0207  0.4206
17729TIP3    H174602   3.043   2.248  13.264  0.1041 -1.2169  2.4327
17729TIP3    H274603   3.046   2.328  13.392 -2.6148 -0.2455  1.9583
17730TIP3   OH274604   6.714   2.561   0.377  0.4152 -0.1161 -0.0846
17730TIP3    H174605   6.724   2.555   0.282 -2.0914 -0.5080 -0.4044
17730TIP3    H274606   6.636   2.616   0.389  0.7183 -0.0297  1.7515
17731TIP3   OH274607   5.526   1.203   4.595 -0.2703 -0.2719  0.3086
17731TIP3    H174608   5.561   1.255   4.667 -0.9411  0.2427  0.2719
17731TIP3    H274609   5.441   1.172   4.626  0.5610 -2.2355  0.7288
17732TIP3   OH274610   3.616   3.476   0.821 -0.4367 -0.3502  0.1876
17732TIP3    H174611   3.639   3.482   0.914 -0.7220 -0.5138  0.2694
17732TIP3    H274612   3.687   3.424   0.782  0.3604  0.7845  0.0719
17733TIP3   OH274613   4.321   3.040  16.396 -0.4767 -0.2849  0.4351
17733TIP3    H174614   4.367   3.033  16.479  0.7136 -1.4054 -0.2828
17733TIP3    H274615   4.316   2.950  16.363 -0.8034  0.1488 -0.7694
17734TIP3   OH274616   3.481   5.670  14.628  0.1617  0.1369  0.6415
17734TIP3    H174617   3.443   5.758  14.634 -0.8833 -0.0294 -2.2953
17734TIP3    H274618   3.406   5.611  14.628  0.5290 -0.4250 -1.7996
17735TIP3   OH274619   4.242   5.723   1.952  0.1121  0.0159  0.1655
17735TIP3    H174620   4.210   5.686   1.870 -0.3747  0.3279  0.2037
17735TIP3    H274621   4.322   5.770   1.928  0.5620 -0.7839  0.0662
17736TIP3   OH274622   0.089   4.122  16.509  0.2140 -0.6402 -0.2191
17736TIP3    H174623   0.097   4.217  16.497 -2.3029 -0.1618  1.1800
17736TIP3    H274624   0.110   4.108  16.601 -1.5024 -1.0976  0.1294
17737TIP3   OH274625   3.296   1.805  16.316  0.0936 -0.3214 -0.5336
17737TIP3    H174626   3.240   1.843  16.249 -3.0253 -0.5150  1.7435
17737TIP3    H274627   3.366   1.869  16.328 -1.3710  1.5423 -1.3637
17738TIP3   OH274628   1.579   2.994  11.122  0.3353 -0.1327  0.1515
17738TIP3    H174629   1.484   2.999  11.113  0.0193 -0.0516  2.8405
17738TIP3    H274630   1.606   2.935  11.051 -1.6275  0.2137 -0.9640
17739TIP3   OH274631   6.153   4.671  13.290 -0.1071  0.8377  0.2155
17739TIP3    H174632   6.202   4.591  13.312  1.5071  2.1202  1.5000
17739TIP3    H274633   6.082   4.640  13.233 -0.2103 -1.6780  1.5502
17740TIP3   OH274634   0.804   6.334   1.005  0.7207  0.0631 -0.7080
17740TIP3    H174635   0.811   6.240   1.025  1.0610 -0.4643 -3.0599
17740TIP3    H274636   0.894   6.366   1.006  0.6058  0.3808  0.0796
17741TIP3   OH274637   3.779   1.451   4.971 -0.3778 -0.3769 -0.6242
17741TIP3    H174638   3.833   1.486   5.042  0.1552 -1.8793 -0.2619
17741TIP3    H274639   3.836   1.389   4.926 -1.3181 -0.8372 -1.2064
17742TIP3   OH274640   0.725   3.680  12.484  0.2011  0.3026  0.2187
17742TIP3    H174641   0.699   3.654  12.572 -0.4225  2.0310  0.5963
17742TIP3    H274642   0.688   3.768  12.473 -0.8180 -0.3307 -2.2447
17743TIP3   OH274643   5.935   5.682   3.125 -0.4738  0.0676 -0.3873
17743TIP3    H174644   6.010   5.686   3.065  0.5597  0.9225  0.9040
17743TIP3    H274645   5.965   5.627   3.197 -0.1410  2.3244  1.3145
17744TIP3   OH274646   4.437   0.823  16.334 -0.1341 -0.1599  0.2463
17744TIP3    H174647   4.361   0.876  16.310  2.1141  4.0454  1.5220
17744TIP3    H274648   4.496   0.828  16.259  0.6193  0.1720  0.8523
17745TIP3   OH274649   3.855   3.446   0.664 -0.0828 -0.2570 -0.5510
17745TIP3    H174650   3.915   3.471   0.735 -0.5655 -0.0477 -0.2085
17745TIP3    H274651   3.850   3.524   0.609 -0.4105 -0.1115 -0.3165
17746TIP3   OH274652   6.649   4.779  12.164 -0.5092  1.0115 -0.3263
17746TIP3    H174653   6.692   4.752  12.083  1.5114 -1.3513  1.3789
17746TIP3    H274654   6.561   4.740  12.158 -0.1340  0.2445 -1.0607
17747TIP3   OH274655   5.140   0.549   3.446 -0.2921 -0.2561  0.3216
17747TIP3    H174656   5.219   0.510   3.484 -0.9311 -2.1278 -0.1192
17747TIP3    H274657   5.107   0.608   3.514  1.9263  1.2961  0.1640
17748TIP3   OH274658   2.142   5.214  15.683 -0.1005 -0.2456  0.4832
17748TIP3    H174659   2.168   5.150  15.616 -0.5553 -0.5810  0.6241
17748TIP3    H274660   2.225   5.249  15.716  0.1169  0.2593 -0.5698
17749TIP3   OH274661   4.960   1.341   3.051 -0.1171  0.4176  0.1966
17749TIP3    H174662   4.912   1.328   2.969 -0.8315  2.6736  0.1949
17749TIP3    H274663   4.929   1.271   3.108 -1.0244 -0.0519 -0.8349
17750TIP3   OH274664   0.929   6.035   5.105  0.5379  0.0568  0.5168
17750TIP3    H174665   0.923   6.130   5.101 -1.7261 -0.0821 -2.0425
17750TIP3    H274666   1.014   6.014   5.067  0.5353  1.0366 -0.0462
17751TIP3   OH274667   0.758   2.596   4.164 -0.3816  0.2557 -0.1688
17751TIP3    H174668   0.801   2.680   4.148  2.9937 -1.0532  1.1403
17751TIP3    H274669   0.712   2.609   4.248 -1.2320  1.1801 -0.7432
17752TIP3   OH274670   0.179   0.882  13.690  0.0684  0.1464  0.2150
17752TIP3    H174671   0.090   0.871  13.724  0.5259 -2.1686  0.7792
17752TIP3    H274672   0.230   0.812  13.731  2.1129  1.2338 -0.3184
17753TIP3   OH274673   5.270   2.106  11.117  0.3543 -0.0336  0.0436
17753TIP3    H174674   5.365   2.112  11.128  0.1587  1.3789  1.3211
17753TIP3    H274675   5.257   2.106  11.022  1.5002  4.1697 -0.3364
17754TIP3   OH274676   6.264   0.996   5.584  0.3165  0.3153  0.1525
17754TIP3    H174677   6.192   0.938   5.608 -0.0587  0.1557 -1.2942
17754TIP3    H274678   6.343   0.948   5.610  0.0576 -1.3106 -1.8768
17755TIP3   OH274679   3.724   5.139  16.390  0.5123 -0.2538  0.4668
17755TIP3    H174680   3.669   5.197  16.444 -0.0869 -1.5917  1.3530
17755TIP3    H274681   3.724   5.056  16.437  1.9931 -0.7633 -0.3726
17756TIP3   OH274682   3.457   2.391   1.306  0.0367  0.4487  0.2795
17756TIP3    H174683   3.468   2.401   1.400  2.4240  1.2366 -0.0176
17756TIP3    H274684   3.391   2.322   1.296  0.3291 -0.2150  2.5115
17757TIP3   OH274685   0.984   3.765   0.378 -0.6031  0.3075  0.2765
17757TIP3    H174686   0.981   3.824   0.453  1.1724  2.4535 -1.2160
17757TIP3    H274687   0.909   3.789   0.324 -0.5728  0.3504  0.2537
17758TIP3   OH274688   0.538   0.253   2.998  0.3088  0.3680 -0.6602
17758TIP3    H174689   0.625   0.290   2.984  0.3303  0.1529 -1.1052
17758TIP3    H274690   0.493   0.263   2.914 -0.6454  1.8838 -0.0028
17759TIP3   OH274691   2.729   4.392   6.402  0.0176  0.4922 -0.4528
17759TIP3    H174692   2.760   4.352   6.321  2.4588  0.3459  0.4538
17759TIP3    H274693   2.792   4.363   6.468 -1.5175  1.1436  1.3678
17760TIP3   OH274694   4.793   3.815   4.547 -0.0687 -0.3139  0.0512
17760TIP3    H174695   4.871   3.763   4.531 -0.6985 -1.0106 -0.8602
17760TIP3    H274696   4.806   3.894   4.494 -0.1389 -0.5896 -0.3801
17761TIP3   OH274697   1.783   3.869  12.865 -0.3650 -0.1020  0.1215
17761TIP3    H174698   1.704   3.815  12.860  1.0360 -2.3153  0.3011
17761TIP3    H274699   1.782   3.921  12.784 -1.0936 -1.4591 -0.7765
17762TIP3   OH274700   0.162   2.727  14.852  0.4613 -0.4031  0.0639
17762TIP3    H174701   0.113   2.713  14.933  0.8436  0.4313  0.4516
17762TIP3    H274702   0.179   2.821  14.850  0.4089 -0.4035 -1.0224
17763TIP3   OH274703   1.689   0.421   1.549 -0.2662  0.3650 -0.3717
17763TIP3    H174704   1.725   0.441   1.463 -0.0501  2.1638  0.0993
17763TIP3    H274705   1.594   0.425   1.537 -0.2458  0.1251 -0.6254
17764TIP3   OH274706   1.553   3.094   2.315  0.6359 -0.2346  0.6190
17764TIP3    H174707   1.495   3.151   2.365  0.5236 -0.6015  0.9093
17764TIP3    H274708   1.573   3.145   2.236 -2.5729 -1.2579 -1.0210
17765TIP3   OH274709   6.368   3.076   0.731 -0.7031  0.2112 -0.2685
17765TIP3    H174710   6.368   3.106   0.641 -0.0968  0.2661 -0.2499
17765TIP3    H274711   6.460   3.060   0.752 -0.8066  0.5003  0.4382
17766TIP3   OH274712   3.840   6.547  16.497 -0.2395 -0.1234  0.2637
17766TIP3    H174713   3.800   6.489  16.433  0.0882 -1.6259  1.3717
17766TIP3    H274714   3.924   6.506  16.517 -1.1060 -0.7537  3.0228
17767TIP3   OH274715   1.284   3.253   5.622  0.5161 -0.6054  0.2854
17767TIP3    H174716   1.268   3.328   5.679  1.7908  1.6838 -2.1221
17767TIP3    H274717   1.295   3.179   5.681 -1.1534  0.9932  2.7816
17768TIP3   OH274718   3.626   3.417  15.718 -0.2016 -0.0502  0.6551
17768TIP3    H174719   3.712   3.447  15.687 -0.1433  0.2880  1.1276
17768TIP3    H274720   3.598   3.353  15.653  1.0201 -1.1904  1.1938
17769TIP3   OH274721   2.758   2.886   2.408 -0.7105 -0.0394 -0.7122
17769TIP3    H174722   2.738   2.816   2.346  0.5587 -1.1195  0.0366
17769TIP3    H274723   2.766   2.842   2.492 -0.4106  1.0962 -0.1183
17770TIP3   OH274724   1.228   1.925  12.516 -0.2686  1.1656  0.5563
17770TIP3    H174725   1.196   1.909  12.604 -0.8991 -0.0279  0.1215
17770TIP3    H274726   1.166   1.988  12.479 -0.4409  1.0751  0.6940
17771TIP3   OH274727   0.131   1.880   6.415  0.0725 -0.2539  0.0911
17771TIP3    H174728   0.203   1.885   6.352  1.3973 -1.4391  1.4325
17771TIP3    H274729   0.171   1.903   6.499 -1.2576 -0.3305  0.7778
17772TIP3   OH274730   5.716   5.625   5.445  0.1170  0.1903 -0.4331
17772TIP3    H174731   5.721   5.548   5.389 -0.8647  0.9986 -1.6887
17772TIP3    H274732   5.686   5.592   5.529 -0.8480 -0.7391 -1.1133
17773TIP3   OH274733   6.443   4.712  14.105  0.0761 -0.2699 -0.3958
17773TIP3    H174734   6.350   4.699  14.087 -0.4514  1.6878  0.5511
17773TIP3    H274735   6.456   4.678  14.193  0.3924 -1.0047 -0.7189
17774TIP3   OH274736   0.733   1.002   4.271 -0.2366 -0.1188 -0.4986
17774TIP3    H174737   0.797   0.937   4.243  0.0725 -0.2644  0.4991
17774TIP3    H274738   0.739   1.003   4.367 -1.2866  0.3121 -0.4128
17775TIP3   OH274739   2.384   6.476  14.026  0.2317 -0.0952 -0.3542
17775TIP3    H174740   2.401   6.514  14.112  1.4267  0.3399 -0.7608
17775TIP3    H274741   2.378   6.382  14.043 -0.9906  0.0940  0.3990
17776TIP3   OH274742   2.248   2.291   1.926  0.0712 -0.1199 -0.6511
17776TIP3    H174743   2.329   2.332   1.895  0.1820 -0.0081 -0.2189
17776TIP3    H274744   2.272   2.199   1.939 -0.4389 -0.5798 -2.5979
17777TIP3   OH274745   5.550   0.728   0.907 -0.8176 -0.0747  0.0958
17777TIP3    H174746   5.470   0.779   0.921 -1.0658 -0.4205 -0.0484
17777TIP3    H274747   5.596   0.776   0.837 -0.0145  1.1325  1.4073
17778TIP3   OH274748   6.050   4.015   0.305  0.1196  0.7955 -0.2174
17778TIP3    H174749   5.991   4.021   0.380  0.5846 -1.7886  0.4570
17778TIP3    H274750   6.119   3.955   0.333  1.4840  1.4287 -1.9985
17779TIP3   OH274751   1.050   6.718  14.991 -0.5709  0.2813 -0.1893
17779TIP3    H174752   1.002   6.789  15.035 -1.1028  0.9990 -1.8530
17779TIP3    H274753   1.115   6.762  14.937  0.8568 -0.6339  0.7079
17780TIP3   OH274754   3.921   6.546   5.567 -0.3509 -0.8755  0.0228
17780TIP3    H174755   3.953   6.573   5.653 -1.1510  0.9185 -0.1947
17780TIP3    H274756   3.988   6.578   5.506  0.3296 -2.3465 -0.0287
17781TIP3   OH274757   0.436   0.003   4.675  0.2096 -0.3373 -0.4333
17781TIP3    H174758   0.342  -0.007   4.690  0.2534 -1.2467 -0.6793
17781TIP3    H274759   0.453  -0.046   4.595  0.9448 -0.4581 -0.2127
17782TIP3   OH274760   4.238   1.231   1.683  0.1496  0.1916 -0.1629
17782TIP3    H174761   4.317   1.269   1.645 -0.7695  2.7375  0.2551
17782TIP3    H274762   4.169   1.253   1.620 -0.5374 -0.2660  0.4199
17783TIP3   OH274763   0.377   2.448  14.511  0.0067 -0.4815  0.2101
17783TIP3    H174764   0.394   2.470  14.602 -0.1240 -1.5417  0.5014
17783TIP3    H274765   0.285   2.421  14.509 -1.1097  2.8750 -0.9019
17784TIP3   OH274766   1.778   4.516  16.381 -0.1223 -0.6429  0.5485
17784TIP3    H174767   1.834   4.588  16.408 -1.5944  0.4508  0.8313
17784TIP3    H274768   1.748   4.541  16.293 -0.9040 -0.7256  0.7841
17785TIP3   OH274769   4.599   3.564  15.542 -0.3193 -0.1193  0.0139
17785TIP3    H174770   4.504   3.559  15.556 -0.6088  1.5252 -1.0145
17785TIP3    H274771   4.631   3.621  15.612 -0.1750 -0.1887  0.0065
17786TIP3   OH274772   0.557   3.014   3.254  0.5374  0.1871 -0.0629
17786TIP3    H174773   0.621   3.027   3.325 -0.4773 -0.9423  1.1232
17786TIP3    H274774   0.589   2.937   3.207  0.7900  0.4685 -0.3586
17787TIP3   OH274775   6.113   5.988  14.247 -0.4171 -0.2899  0.4375
17787TIP3    H174776   6.030   5.973  14.202 -1.4988 -1.3349  2.6189
17787TIP3    H274777   6.127   5.909  14.298  0.8085  0.7197  1.7560
17788TIP3   OH274778   1.470   2.965   2.939 -0.3906  0.7126 -0.0942
17788TIP3    H174779   1.516   2.925   3.012 -1.3141 -1.7128 -0.7536
17788TIP3    H274780   1.514   2.932   2.861 -2.3991 -0.7663 -0.7061
17789TIP3   OH274781   0.759   6.556  12.280 -0.0950  0.2662 -0.4440
17789TIP3    H174782   0.761   6.647  12.249 -0.0250  0.3121 -0.3088
17789TIP3    H274783   0.764   6.503  12.201  1.6120  0.3746 -0.4589
17790TIP3   OH274784   2.755   6.506   0.256 -0.1721  0.1910 -0.1332
17790TIP3    H174785   2.823   6.559   0.299  0.7418  0.3389 -1.6877
17790TIP3    H274786   2.696   6.570   0.217 -1.2305  0.0606  1.1582
17791TIP3   OH274787   2.691   6.206   5.390 -0.0873 -0.9354  0.1360
17791TIP3    H174788   2.688   6.160   5.474 -1.1337 -0.3678  0.4321
17791TIP3    H274789   2.781   6.237   5.382  0.6417 -2.9455 -0.0395
17792TIP3   OH274790   3.344   2.732  13.239  0.1458 -0.0726 -0.1406
17792TIP3    H174791   3.346   2.778  13.323 -0.7618 -0.7319  0.2507
17792TIP3    H274792   3.275   2.775  13.189 -0.1136 -0.4461 -0.1041
17793TIP3   OH274793   0.863   0.604  13.049  0.0476  0.0843 -0.0495
17793TIP3    H174794   0.774   0.630  13.027  0.0032  0.0706  0.1127
17793TIP3    H274795   0.864   0.509  13.040  0.1670  0.1204 -0.4838
17794TIP3   OH274796   5.980   3.657  11.183  0.0293 -0.6048  0.3332
17794TIP3    H174797   5.972   3.749  11.157 -0.7021 -0.7323  0.0944
17794TIP3    H274798   5.936   3.652  11.268 -0.1496 -0.7863  0.2306
17795TIP3   OH274799   2.141   0.379   6.217  0.1646  0.2758  0.1998
17795TIP3    H174800   2.131   0.355   6.309  0.7465 -0.5744  0.0477
17795TIP3    H274801   2.213   0.443   6.217 -0.1987  0.6893  0.3930
17796TIP3   OH274802   6.506   2.884  14.360 -0.0144  0.1587 -0.7910
17796TIP3    H174803   6.419   2.870  14.397  1.1614 -1.3541  1.6254
17796TIP3    H274804   6.536   2.798  14.332  2.5769 -0.4470  3.0935
17797TIP3   OH274805   3.936   1.692   2.790 -0.1911  0.4331 -0.2770
17797TIP3    H174806   3.976   1.619   2.836  0.1038  1.3611  0.9905
17797TIP3    H274807   3.879   1.651   2.725 -0.5493 -0.9281  0.8504
17798TIP3   OH274808   5.157   6.412   2.490 -0.3200  0.3040 -0.0898
17798TIP3    H174809   5.177   6.352   2.419 -0.5361 -0.6433  0.6300
17798TIP3    H274810   5.229   6.475   2.489 -0.0444 -0.0086 -0.7999
17799TIP3   OH274811   6.072   6.552  12.325 -0.5616 -0.3705 -0.2653
17799TIP3    H174812   6.121   6.634  12.334 -0.7611 -0.3464  0.6907
17799TIP3    H274813   6.001   6.573  12.263 -2.2829  1.0028  2.0272
17800TIP3   OH274814   2.664   6.624  16.080  0.0852  0.1593 -0.0090
17800TIP3    H174815   2.681   6.614  16.173  0.3804  3.1174  0.3467
17800TIP3    H274816   2.574   6.594  16.069 -0.0764  0.1153  1.2893
17801TIP3   OH274817   6.599   0.307  15.272  0.2297 -0.0888 -0.2340
17801TIP3    H174818   6.629   0.318  15.182  0.9639 -2.5033 -0.3409
17801TIP3    H274819   6.511   0.346  15.273  0.6741  1.0168 -1.6553
17802TIP3   OH274820   6.191   6.388  12.141  0.2285  0.2508 -0.1912
17802TIP3    H174821   6.107   6.365  12.101  0.4448 -2.3102  0.6415
17802TIP3    H274822   6.168   6.441  12.217 -0.5547  0.4103 -0.5264
17803TIP3   OH274823   2.808   1.213  10.964  0.2187  0.2258 -0.1414
17803TIP3    H174824   2.846   1.299  10.979 -2.6555  1.3310  1.6719
17803TIP3    H274825   2.807   1.172  11.051 -0.8808 -0.5022 -0.4750
17804TIP3   OH274826   2.513   5.911  10.331 -0.2870  0.0160  0.7028
17804TIP3    H174827   2.556   5.833  10.296  1.3363  1.3573 -0.4195
17804TIP3    H274828   2.465   5.880  10.408  1.4466 -1.8229  1.0959
17805TIP3   OH274829   4.676   1.277   5.367  0.2468  0.0321 -0.3776
17805TIP3    H174830   4.627   1.305   5.290  0.7396  1.1730 -0.2940
17805TIP3    H274831   4.760   1.322   5.359  0.7125 -0.7088  0.2647
17806TIP3   OH274832   4.153   4.473  12.546  0.4130  0.2098  0.1440
17806TIP3    H174833   4.127   4.416  12.474 -1.6340  2.5968 -1.1753
17806TIP3    H274834   4.236   4.511  12.519  1.1368 -1.0901  0.4542
17807TIP3   OH274835   5.658   1.921   5.873  0.2169  0.4100  0.3131
17807TIP3    H174836   5.739   1.879   5.844  0.4443 -0.2578  1.8430
17807TIP3    H274837   5.678   1.956   5.959 -0.6796  1.6215  0.0583
17808TIP3   OH274838   6.049   4.303   5.480  0.1508  0.7530  0.6005
17808TIP3    H174839   6.089   4.349   5.553  2.2299  2.0210 -1.1892
17808TIP3    H274840   6.036   4.370   5.413 -1.7662 -0.3309 -0.2038
17809TIP3   OH274841   4.123   3.848   2.620 -0.0180  0.1953 -0.3017
17809TIP3    H174842   4.204   3.815   2.580 -0.8878 -1.9053 -0.4814
17809TIP3    H274843   4.082   3.900   2.551  0.2002 -0.4682 -0.9524
17810TIP3   OH274844   6.526   0.177   4.690  0.0860 -0.2196  0.3460
17810TIP3    H174845   6.488   0.150   4.606 -0.5516 -1.5802  1.0483
17810TIP3    H274846   6.507   0.105   4.749  2.9270 -0.5381  0.9907
17811TIP3   OH274847   6.236   5.424   0.704  0.2289  0.0459  0.5777
17811TIP3    H174848   6.327   5.426   0.734  0.5638 -0.9306 -0.2787
17811TIP3    H274849   6.209   5.333   0.716  0.2092 -0.2775 -1.4577
17812TIP3   OH274850   2.257   4.491   4.449 -0.6682  0.1323  0.7650
17812TIP3    H174851   2.182   4.544   4.475 -0.4306  0.4196  0.8748
17812TIP3    H274852   2.321   4.503   4.520 -0.6799 -0.4434  0.8764
17813TIP3   OH274853   2.147   1.089  13.765  0.0108 -0.3201  0.0493
17813TIP3    H174854   2.183   1.095  13.854 -1.2386  0.6542  0.5251
17813TIP3    H274855   2.061   1.048  13.777  0.2844 -1.1942 -0.8590
17814TIP3   OH274856   0.822   1.839  11.349 -0.2534  0.4851 -0.4475
17814TIP3    H174857   0.810   1.756  11.396  1.4197 -0.1678 -1.1045
17814TIP3    H274858   0.799   1.819  11.258 -0.5030  0.9311 -0.4872
17815TIP3   OH274859   1.701   0.127   6.821 -0.4258  0.3476  0.6295
17815TIP3    H174860   1.633   0.172   6.770  2.0303  1.9299 -1.5162
17815TIP3    H274861   1.713   0.044   6.775 -1.1063 -0.0875  1.2199
17816TIP3   OH274862   0.774   5.873   1.614  0.6162  0.0471 -0.3014
17816TIP3    H174863   0.817   5.789   1.609 -2.7134 -1.8777  0.1763
17816TIP3    H274864   0.778   5.909   1.525 -0.8311 -2.3043 -1.4061
17817TIP3   OH274865   5.288   5.377   3.286 -0.0898 -0.6207  0.0916
17817TIP3    H174866   5.360   5.379   3.348  0.2717 -1.1365 -0.2999
17817TIP3    H274867   5.330   5.376   3.200 -0.5628 -0.8784 -0.1416
17818TIP3   OH274868   3.774   6.691  17.015 -0.0264 -0.4818  0.5356
17818TIP3    H174869   3.835   6.723  16.948  1.0682 -1.5547  0.9928
17818TIP3    H274870   3.783   6.752  17.088 -0.7541  0.3212 -0.0188
17819TIP3   OH274871   2.852   0.317  10.539  0.5947  0.0182 -0.9213
17819TIP3    H174872   2.785   0.379  10.566  2.2181  0.6827  1.9706
17819TIP3    H274873   2.934   0.355  10.570  1.6642 -3.6154  1.2813
17820TIP3   OH274874   1.561   2.090   0.226 -0.2489  0.1673 -0.1699
17820TIP3    H174875   1.629   2.040   0.181 -0.4395 -0.3667  0.1195
17820TIP3    H274876   1.563   2.177   0.185  1.0796  0.3863  0.3265
17821TIP3   OH274877   3.675   4.456  15.716  0.3970  0.2897  0.1545
17821TIP3    H174878   3.751   4.403  15.693 -1.5900 -2.4080 -0.8151
17821TIP3    H274879   3.678   4.529  15.654  2.9767  1.1698  1.1939
17822TIP3   OH274880   0.201   1.179  16.169 -0.1902  0.3569 -0.0474
17822TIP3    H174881   0.187   1.272  16.188 -2.0387  0.3191 -1.0693
17822TIP3    H274882   0.176   1.134  16.250  1.0477  0.7401  0.5719
17823TIP3   OH274883   0.955   5.710  14.945 -0.7822 -0.1627 -0.0062
17823TIP3    H174884   0.930   5.752  15.027 -0.2185 -0.1400  0.1593
17823TIP3    H274885   0.985   5.623  14.972  1.1140  0.4580  0.0420
17824TIP3   OH274886   4.666   3.112  11.595  0.9236 -0.3825  0.0834
17824TIP3    H174887   4.716   3.129  11.675 -1.0408  0.3933  1.2263
17824TIP3    H274888   4.596   3.178  11.596 -0.2357 -1.5262 -1.3240
17825TIP3   OH274889   0.374   0.958  14.003 -0.4457  0.0986 -0.6877
17825TIP3    H174890   0.446   0.944  13.941 -0.4802  0.7461 -0.8742
17825TIP3    H274891   0.323   1.029  13.965 -0.7542  0.1604 -0.1647
17826TIP3   OH274892   3.020   1.717  17.207  0.0054  0.8044 -0.1002
17826TIP3    H174893   2.976   1.675  17.281 -0.1138 -1.3138 -1.2958
17826TIP3    H274894   2.980   1.804  17.202 -1.8608  0.0583  0.7228
17827TIP3   OH274895   0.649   4.492   1.406  0.3778  0.2236  0.3504
17827TIP3    H174896   0.717   4.502   1.472 -1.0689 -0.7055  2.0806
17827TIP3    H274897   0.636   4.580   1.371  1.8197  0.5649  0.6283
17828TIP3   OH274898   3.870   4.858  16.673 -0.6213  0.1366  0.1189
17828TIP3    H174899   3.889   4.951  16.663  1.9525 -0.4468 -1.2360
17828TIP3    H274900   3.841   4.831  16.586  1.1167 -0.7673 -0.2284
17829TIP3   OH274901   1.209   1.049   0.258  0.1322 -0.0700 -0.1606
17829TIP3    H174902   1.190   1.096   0.176 -1.6443  1.4225  1.0410
17829TIP3    H274903   1.301   1.070   0.276  0.2422  0.4516 -1.2016
17830TIP3   OH274904   1.037   1.601  15.303 -0.1508  0.2776  0.2730
17830TIP3    H174905   1.115   1.598  15.359 -1.2697 -0.0068  1.8865
17830TIP3    H274906   1.052   1.533  15.238  0.9959  0.2949  0.4976
17831TIP3   OH274907   5.380   5.210  12.528  0.3482  0.2642  0.1759
17831TIP3    H174908   5.428   5.274  12.475 -0.4022 -0.0908 -0.9629
17831TIP3    H274909   5.292   5.248  12.537 -0.4345 -1.0500 -1.4166
17832TIP3   OH274910   5.033   0.917   4.773  0.6975  0.6966  0.3038
17832TIP3    H174911   4.965   0.970   4.815 -0.4655 -0.7451  0.3095
17832TIP3    H274912   5.076   0.977   4.712 -0.6397  1.6157  0.2381
17833TIP3   OH274913   2.202   3.859  14.856 -0.0747 -0.1193  0.0746
17833TIP3    H174914   2.112   3.829  14.853 -0.6865  1.6170 -0.6822
17833TIP3    H274915   2.211   3.902  14.941 -0.7053  1.7077 -0.7377
17834TIP3   OH274916   2.449   1.480   1.281 -0.4892  0.0167 -0.2543
17834TIP3    H174917   2.365   1.477   1.236  0.5779  0.3877 -2.4220
17834TIP3    H274918   2.477   1.389   1.286  0.5400  0.1198 -2.8100
17835TIP3   OH274919   1.944   1.062  16.667 -0.8383  0.1577 -0.3640
17835TIP3    H174920   1.899   1.031  16.746  1.0419  0.2274  0.7922
17835TIP3    H274921   1.982   0.984  16.628 -0.8278  0.2697 -0.5802
17836TIP3   OH274922   2.856   3.655   1.329  0.3474 -0.2086 -0.4769
17836TIP3    H174923   2.795   3.582   1.332 -1.5581  1.3358  0.3988
17836TIP3    H274924   2.836   3.700   1.247  0.3859  0.2344 -0.2485
17837TIP3   OH274925   5.076   6.125  17.121 -0.3635 -0.1920  0.0858
17837TIP3    H174926   5.035   6.051  17.166 -2.1217  0.8976  0.3553
17837TIP3    H274927   5.090   6.190  17.191  0.8120 -0.0945 -0.2177
17838TIP3   OH274928   0.159   2.728   0.591  0.3835 -0.0965 -0.1130
17838TIP3    H174929   0.098   2.696   0.524 -0.0100 -0.7150  0.5255
17838TIP3    H274930   0.244   2.692   0.565  0.2029 -0.4617 -0.2004
17839TIP3   OH274931   1.752   3.292  14.665  0.1373  0.4139  0.2021
17839TIP3    H174932   1.751   3.229  14.593 -0.0619  0.5289  0.1031
17839TIP3    H274933   1.759   3.239  14.744  0.0974  0.2745  0.1131
17840TIP3   OH274934   0.690   2.308  14.812  0.4054 -0.8011 -0.6642
17840TIP3    H174935   0.775   2.311  14.768  0.5429 -0.1955 -0.3705
17840TIP3    H274936   0.710   2.291  14.903  0.3958  1.3977 -0.1899
17841TIP3   OH274937   2.845   2.963   5.986  0.3001  0.4097  0.7145
17841TIP3    H174938   2.763   2.919   5.964  1.0798 -0.0962 -1.4255
17841TIP3    H274939   2.844   2.969   6.082 -1.5046 -0.9749  0.8394
17842TIP3   OH274940   2.061   3.994  15.639 -0.1408 -0.7290 -0.1617
17842TIP3    H174941   2.029   3.936  15.708  0.6013 -1.5631 -0.5060
17842TIP3    H274942   2.138   4.036  15.677 -1.5254  1.2419  0.6495
17843TIP3   OH274943   5.147   2.995  17.167  0.0265  0.2969 -0.5101
17843TIP3    H174944   5.090   3.008  17.091 -0.8779 -0.5827 -0.0205
17843TIP3    H274945   5.089   3.010  17.242  1.4160  3.3892  0.0974
17844TIP3   OH274946   6.045   3.453  15.792  0.5199  0.1533  0.3370
17844TIP3    H174947   5.964   3.504  15.798  0.2758 -0.3835  2.1948
17844TIP3    H274948   6.017   3.363  15.810  0.8627 -0.8349 -3.2764
17845TIP3   OH274949   5.628   0.890   0.703 -0.2069 -0.3124 -0.2416
17845TIP3    H174950   5.631   0.978   0.665 -3.3482  0.5005  1.1112
17845TIP3    H274951   5.704   0.888   0.763  0.5224  1.0590 -1.0587
17846TIP3   OH274952   0.295   0.736   3.473 -0.5346 -0.0634  0.2625
17846TIP3    H174953   0.252   0.801   3.417  0.6135 -1.1265 -1.9855
17846TIP3    H274954   0.271   0.652   3.435  0.2180 -0.8327  1.4487
17847TIP3   OH274955   1.845   5.745   2.119 -1.2008 -0.8481 -0.0025
17847TIP3    H174956   1.905   5.820   2.121  0.7015 -2.2855 -0.0132
17847TIP3    H274957   1.761   5.780   2.148  0.0548  0.9001  1.7703
17848TIP3   OH274958   1.363   5.823   5.164 -0.3244 -0.0500  0.1272
17848TIP3    H174959   1.437   5.781   5.207 -0.5415 -0.4606  0.1097
17848TIP3    H274960   1.330   5.887   5.228  1.4678  1.8360 -0.7224
17849TIP3   OH274961   4.841   6.698   6.010 -0.0095 -0.2003 -0.0792
17849TIP3    H174962   4.863   6.773   6.065 -0.5941  1.0387 -1.4509
17849TIP3    H274963   4.926   6.667   5.978  0.2423 -0.1335  0.5138
17850TIP3   OH274964   0.881   3.314  11.122 -0.5218 -0.0181  0.7274
17850TIP3    H174965   0.809   3.372  11.095 -1.3804 -0.5165  1.9035
17850TIP3    H274966   0.959   3.352  11.079 -1.1368  1.7140  1.0577
17851TIP3   OH274967   0.850   4.849   6.312 -0.2857 -0.8322 -0.4594
17851TIP3    H174968   0.792   4.783   6.350 -0.2757 -0.3342  0.4632
17851TIP3    H274969   0.937   4.823   6.341 -0.5155  1.0455  2.2774
17852TIP3   OH274970   6.489   5.401   0.501 -0.4659  0.7640 -0.2082
17852TIP3    H174971   6.490   5.395   0.597 -2.4224  1.3711 -0.1139
17852TIP3    H274972   6.569   5.355   0.474  0.0548  0.4442  1.6945
17853TIP3   OH274973   1.080   1.139  15.055 -0.3138  0.4838  0.5777
17853TIP3    H174974   1.136   1.146  14.977  1.3759 -0.2762  1.6630
17853TIP3    H274975   1.005   1.088  15.025  0.3445  0.1230 -0.5428
17854TIP3   OH274976   2.977   2.340   0.861 -0.3482  0.4242 -0.6812
17854TIP3    H174977   2.946   2.331   0.771 -2.1001 -0.3967 -0.0386
17854TIP3    H274978   2.902   2.373   0.910  0.3938  0.3152  0.5843
17855TIP3   OH274979   5.937   5.305  14.575  0.0357  0.4253 -0.1497
17855TIP3    H174980   5.910   5.340  14.490  2.4019  2.1075 -0.3114
17855TIP3    H274981   6.015   5.253  14.556 -0.8093 -1.2530  0.7302
17856TIP3   OH274982   0.546   6.637  16.494  0.7942  0.4922  0.1782
17856TIP3    H174983   0.627   6.603  16.531  0.5875  1.6160  1.7742
17856TIP3    H274984   0.571   6.672  16.408  1.7152 -0.3491  0.0847
17857TIP3   OH274985   2.184   0.236  16.364  0.5030 -0.5574  0.0383
17857TIP3    H174986   2.272   0.245  16.401  1.3161 -2.1148 -1.3559
17857TIP3    H274987   2.138   0.177  16.424  1.6754 -2.7273 -1.0368
17858TIP3   OH274988   4.046   5.427  15.527  0.8049  0.0343  0.4659
17858TIP3    H174989   4.044   5.341  15.569  1.3970  1.2025  3.0450
17858TIP3    H274990   3.968   5.472  15.561 -0.6699 -0.0910 -2.4367
17859TIP3   OH274991   5.816   6.414  12.227 -0.6584 -0.0664 -0.3322
17859TIP3    H174992   5.728   6.436  12.258 -0.9984 -0.3160 -1.0947
17859TIP3    H274993   5.831   6.473  12.153  0.3736  0.9179  0.6376
17860TIP3   OH274994   6.530   4.903  10.391  0.0913 -0.0994 -0.6655
17860TIP3    H174995   6.597   4.864  10.334  1.0812 -0.9023  0.9914
17860TIP3    H274996   6.508   4.834  10.454  0.2279  1.2715  0.9560
17861TIP3   OH274997   4.133   4.759  16.486  0.1630 -0.2433  0.3229
17861TIP3    H174998   4.046   4.748  16.447 -0.8678 -0.2322  2.4689
17861TIP3    H274999   4.170   4.836  16.443 -0.7078 -0.5127 -0.9366
17862TIP3   OH275000   0.307   3.433   5.851  0.0618  0.0980  0.0773
17862TIP3    H175001   0.269   3.371   5.914 -0.7715  0.2977 -0.2164
17862TIP3    H275002   0.279   3.519   5.883  1.5697  0.3791  0.7234
17863TIP3   OH275003   0.207   2.202   1.360 -0.4541 -0.3671 -0.2263
17863TIP3    H175004   0.204   2.285   1.312  0.2552  0.5537  1.2421
17863TIP3    H275005   0.293   2.166   1.341 -0.8426 -0.8880 -1.0337
17864TIP3   OH275006   4.719   4.475  16.178  0.0279 -0.2967 -0.2938
17864TIP3    H175007   4.778   4.426  16.234 -0.3170  1.2103  1.4978
17864TIP3    H275008   4.744   4.450  16.089  0.5898 -2.7776  0.4797
17865TIP3   OH275009   1.771   2.019  16.925 -0.1765  0.3277 -0.0875
17865TIP3    H175010   1.676   2.015  16.917 -0.1205 -0.4924 -0.3606
17865TIP3    H275011   1.797   1.933  16.958  0.3309  1.0610  1.5475
17866TIP3   OH275012   0.715   4.608  15.782  0.3777  0.1621 -0.2490
17866TIP3    H175013   0.724   4.675  15.715  0.8106  0.9634  0.5839
17866TIP3    H275014   0.801   4.565  15.786  0.1901 -0.2490 -0.5760
17867TIP3   OH275015   6.076   0.375  14.289  0.2612 -0.5448 -0.0887
17867TIP3    H175016   6.029   0.459  14.280 -1.0558 -1.0520  1.4539
17867TIP3    H275017   6.081   0.341  14.200 -1.7292 -0.1049 -0.4370
17868TIP3   OH275018   6.245   4.200  10.766  0.2103 -0.3157  0.5443
17868TIP3    H175019   6.246   4.165  10.677 -0.3721  0.7458  0.0943
17868TIP3    H275020   6.216   4.127  10.821 -0.0938 -0.7855 -0.2299
17869TIP3   OH275021   0.530   3.361   1.931 -0.3548 -0.1663 -0.0850
17869TIP3    H175022   0.616   3.374   1.971 -0.0042 -1.2883 -0.4288
17869TIP3    H275023   0.489   3.448   1.932  0.2889  0.1400  1.1958
17870TIP3   OH275024   6.582   6.111   1.998 -0.1622 -0.0381  0.0699
17870TIP3    H175025   6.643   6.068   1.937 -1.3713 -0.6123 -0.7944
17870TIP3    H275026   6.540   6.179   1.945 -0.2409  0.3797  0.6657
17871TIP3   OH275027   0.917   5.466   2.788  0.1530 -0.6535  0.3416
17871TIP3    H175028   0.832   5.435   2.822 -0.1454  0.2344  0.4211
17871TIP3    H275029   0.969   5.484   2.866 -0.1265  0.2702  0.3238
17872TIP3   OH275030   4.313   0.644  13.568  0.3344 -0.1601 -0.7439
17872TIP3    H175031   4.249   0.590  13.522  0.3113  0.3394 -1.3205
17872TIP3    H275032   4.361   0.583  13.624  1.1919 -1.0245 -2.3476
17873TIP3   OH275033   6.091   6.039  16.172 -0.0798 -0.5246 -0.1156
17873TIP3    H175034   6.146   6.082  16.237 -0.6896 -0.9131  0.6751
17873TIP3    H275035   6.132   6.060  16.088 -0.8800  2.4757  0.1225
17874TIP3   OH275036   1.336   1.459  14.056 -0.9474 -0.0956 -0.0237
17874TIP3    H175037   1.276   1.418  13.995 -1.8651 -0.1344  0.8790
17874TIP3    H275038   1.334   1.403  14.134 -1.3741  1.0239  0.8060
17875TIP3   OH275039   2.765   2.046   6.104  0.0484 -0.2102  0.4669
17875TIP3    H175040   2.670   2.044   6.113 -0.2278  0.7078 -1.5877
17875TIP3    H275041   2.796   2.088   6.184 -1.4240  0.9513  0.4677
17876TIP3   OH275042   4.282   0.130  11.952 -0.0299 -0.0444 -0.4065
17876TIP3    H175043   4.216   0.197  11.962  0.8535  0.6031  1.7621
17876TIP3    H275044   4.239   0.049  11.978 -0.7468 -0.1444 -1.8299
17877TIP3   OH275045   2.220   3.897  11.828 -0.3965 -0.8822 -0.6317
17877TIP3    H175046   2.277   3.972  11.814 -1.4905 -0.1544 -1.3624
17877TIP3    H275047   2.246   3.862  11.913 -0.8463  1.2167  0.4166
17878TIP3   OH275048   5.680   2.031   3.524 -0.0051  0.1144 -0.3901
17878TIP3    H175049   5.668   1.967   3.454  0.1293 -1.2662  0.8062
17878TIP3    H275050   5.651   2.114   3.485 -1.0684 -0.8110 -1.6880
17879TIP3   OH275051   4.215   0.431  14.675  0.2034 -0.1899  0.2552
17879TIP3    H175052   4.214   0.507  14.617  1.2783 -0.1653  0.2428
17879TIP3    H275053   4.193   0.357  14.617  1.2551 -0.1641 -0.2092
17880TIP3   OH275054   1.077   3.717  11.492  0.5149 -0.2927  0.3467
17880TIP3    H175055   1.036   3.739  11.575 -1.1479  1.7104 -0.9103
17880TIP3    H275056   1.009   3.671  11.442  1.6237 -1.8559  0.1784
17881TIP3   OH275057   0.230   1.738  16.609 -0.1445  0.2406 -0.2160
17881TIP3    H175058   0.252   1.698  16.693  0.2687 -1.0412 -0.9193
17881TIP3    H275059   0.311   1.780  16.581 -0.7014  2.1209  0.7584
17882TIP3   OH275060   1.701   3.201  16.591 -0.0911 -0.2465  1.4426
17882TIP3    H175061   1.622   3.202  16.537  0.7769  0.1711  0.1327
17882TIP3    H275062   1.726   3.109  16.594  0.1858 -0.2131  0.5885
17883TIP3   OH275063   0.390   5.100  13.402 -0.2913 -0.0552  0.4252
17883TIP3    H175064   0.396   5.144  13.486 -2.1998 -0.4113  0.7960
17883TIP3    H275065   0.348   5.016  13.421  0.4251 -0.7018 -0.7037
17884TIP3   OH275066   6.001   2.229  15.543 -0.4063  0.2883  0.8341
17884TIP3    H175067   5.967   2.173  15.613  1.0938 -1.8034 -0.0013
17884TIP3    H275068   5.927   2.240  15.484 -1.0005 -0.0285  1.5038
17885TIP3   OH275069   5.937   2.164  12.270 -0.0634  0.4222  0.2621
17885TIP3    H175070   5.961   2.113  12.348 -1.5231  0.8778  1.0397
17885TIP3    H275071   5.876   2.107  12.223  0.2850  0.4313 -0.2105
17886TIP3   OH275072   1.412   3.367   3.838  0.0761 -0.2928 -0.0109
17886TIP3    H175073   1.402   3.452   3.881  0.0117  0.0087 -0.6048
17886TIP3    H275074   1.396   3.386   3.745  1.2814 -0.7069 -0.3248
17887TIP3   OH275075   4.404   5.214   2.784  0.2776  0.4012  0.5338
17887TIP3    H175076   4.332   5.271   2.756 -0.7937 -0.1086  2.0556
17887TIP3    H275077   4.399   5.138   2.726 -0.6114  0.2597  0.7688
17888TIP3   OH275078   4.943   3.001   0.894  0.5167 -0.4935  0.3444
17888TIP3    H175079   5.007   3.042   0.835 -1.1580 -2.4965 -3.2095
17888TIP3    H275080   4.863   3.054   0.883  0.1618 -0.9261  0.7886
17889TIP3   OH275081   0.018   3.148  16.502  0.0375  0.1949  0.3982
17889TIP3    H175082   0.082   3.215  16.528  0.0472  0.1591  0.4662
17889TIP3    H275083   0.000   3.099  16.582  1.4774 -1.1209 -0.0463
17890TIP3   OH275084   3.670   6.203   3.646  0.1788 -0.4968 -0.4678
17890TIP3    H175085   3.685   6.171   3.735  2.4388 -0.7158 -0.8790
17890TIP3    H275086   3.586   6.250   3.651  0.3645 -0.3091  1.8044
17891TIP3   OH275087   2.398   0.622  11.549  0.0197 -0.9172 -0.5252
17891TIP3    H175088   2.455   0.572  11.491  0.2866 -0.5245 -0.6013
17891TIP3    H275089   2.424   0.713  11.537  0.3594 -0.8620  0.5254
17892TIP3   OH275090   0.924   4.613  16.457  0.4591 -0.7166 -0.4688
17892TIP3    H175091   0.916   4.692  16.511  1.2154 -0.8104 -0.2188
17892TIP3    H275092   1.008   4.574  16.482  0.7465 -0.8516 -1.5842
17893TIP3   OH275093   2.782   5.555  14.715  0.0126  0.6015 -0.1776
17893TIP3    H175094   2.784   5.459  14.717 -1.6602  0.5505 -0.1253
17893TIP3    H275095   2.776   5.577  14.622  0.5205  0.6669 -0.1979
17894TIP3   OH275096   4.206   0.605  12.519 -0.1944  0.2839  0.3841
17894TIP3    H175097   4.110   0.601  12.520 -0.1526 -1.1375  0.6975
17894TIP3    H275098   4.232   0.575  12.605  0.5451  0.3517  0.1889
17895TIP3   OH275099   5.970   2.312  13.676 -0.4226  0.4820  0.2427
17895TIP3    H175100   5.893   2.314  13.618  1.0092 -0.3560 -1.7901
17895TIP3    H275101   5.998   2.221  13.676  0.5005  0.7458  1.0878
17896TIP3   OH275102   3.999   0.304  17.118  0.4327  0.3423 -0.5822
17896TIP3    H175103   4.001   0.237  17.050  0.2753 -1.8972  1.4602
17896TIP3    H275104   4.091   0.322  17.136  0.5053 -0.1671 -0.4095
17897TIP3   OH275105   0.610   6.275   1.585  0.4225  0.2166  0.5320
17897TIP3    H175106   0.521   6.269   1.551  0.9210 -1.0542 -0.6508
17897TIP3    H275107   0.621   6.195   1.636  1.4030 -0.4496 -0.6806
17898TIP3   OH275108   6.010   2.047   4.084  0.0654  0.3207 -0.4184
17898TIP3    H175109   6.032   2.045   4.177  0.6018  1.2116 -0.5164
17898TIP3    H275110   5.921   2.081   4.080  0.6691  2.0110 -0.3058
17899TIP3   OH275111   1.139   5.577  12.004 -0.1644  0.0952 -0.0891
17899TIP3    H175112   1.046   5.554  12.003  0.2896 -1.8840 -0.4876
17899TIP3    H275113   1.150   5.638  11.931 -1.3070  1.1461  0.5798
17900TIP3   OH275114   4.042   5.840   1.733  0.0743  0.5097  0.0766
17900TIP3    H175115   3.973   5.825   1.668 -0.8377  0.6371  0.9862
17900TIP3    H275116   4.086   5.756   1.741  0.3250  0.5391 -0.8305
17901TIP3   OH275117   0.028   3.966  13.908 -0.3644  0.5536  0.0619
17901TIP3    H175118   0.042   4.011  13.825 -4.5898  0.7370 -0.7833
17901TIP3    H275119   0.026   4.037  13.973 -0.6099  0.8366 -0.2533
17902TIP3   OH275120   5.444   5.227  13.900 -0.2146 -0.4470  0.7482
17902TIP3    H175121   5.448   5.318  13.870 -3.1317 -0.4000  0.1219
17902TIP3    H275122   5.488   5.177  13.831  2.6932  0.5040  1.7734
17903TIP3   OH275123   1.651   5.036  12.131 -0.2294 -0.2941  0.2079
17903TIP3    H175124   1.716   5.020  12.063  0.0446  0.1914  0.3501
17903TIP3    H275125   1.676   4.977  12.203  1.0129  1.0034  0.8868
17904TIP3   OH275126   1.358   1.670   5.113 -0.2101  0.0825 -0.2121
17904TIP3    H175127   1.416   1.746   5.107  0.5668 -0.4029  0.8461
17904TIP3    H275128   1.365   1.628   5.027  1.3125 -0.1622  0.0036
17905TIP3   OH275129   6.271   5.694   5.958  0.2753  0.2632 -0.7453
17905TIP3    H175130   6.243   5.720   6.046 -1.6428  0.1359 -1.2826
17905TIP3    H275131   6.364   5.718   5.955 -0.2113  2.6601  0.4341
17906TIP3   OH275132   0.034   2.042   2.982  0.5797 -0.2783 -0.0816
17906TIP3    H175133  -0.023   2.023   3.056 -1.3760  1.3493 -1.0461
17906TIP3    H275134   0.016   1.972   2.920  0.4316 -0.3785  0.0737
17907TIP3   OH275135   2.175   0.894   6.023  0.1037  0.6769  0.0092
17907TIP3    H175136   2.258   0.864   6.061 -0.5669  0.2596  1.1861
17907TIP3    H275137   2.195   0.906   5.930  1.4530  0.4819  0.2460
17908TIP3   OH275138   1.670   3.772  16.147 -0.7335  0.3897 -0.3419
17908TIP3    H175139   1.687   3.783  16.053  0.7725  0.7654 -0.0453
17908TIP3    H275140   1.688   3.858  16.185 -0.3894 -0.0085  0.4161
17909TIP3   OH275141   2.136   1.699  14.054 -0.4643 -0.2333 -0.2407
17909TIP3    H175142   2.102   1.617  14.017 -0.7542  0.1162 -0.7622
17909TIP3    H275143   2.082   1.715  14.131 -2.0607  0.7296 -1.4901
17910TIP3   OH275144   3.550   4.009  11.269  0.2449 -0.5053  0.3016
17910TIP3    H175145   3.534   3.939  11.205  1.6175 -0.8282  0.2872
17910TIP3    H275146   3.643   4.029  11.260 -0.1600  1.4671  0.1888
17911TIP3   OH275147   2.666   6.450  13.618  0.4768 -0.2330 -0.3977
17911TIP3    H175148   2.733   6.387  13.593  2.7067  1.3505  1.1994
17911TIP3    H275149   2.692   6.480  13.705 -0.3465  3.0024 -1.1290
17912TIP3   OH275150   3.173   6.414   5.412 -0.4161 -0.0788  0.1032
17912TIP3    H175151   3.260   6.443   5.386  0.7975 -1.3998  2.3990
17912TIP3    H275152   3.143   6.480   5.475 -1.5317  0.8466 -1.3134
17913TIP3   OH275153   1.372   2.499   1.575 -0.2072  0.5217  0.8591
17913TIP3    H175154   1.305   2.555   1.538 -0.5092 -0.0518  0.5295
17913TIP3    H275155   1.455   2.538   1.547 -0.4272  0.3092 -0.1060
17914TIP3   OH275156   5.760   0.259  14.844  0.0039  0.1687 -0.0873
17914TIP3    H175157   5.764   0.226  14.934  1.0913  0.1984 -0.1170
17914TIP3    H275158   5.780   0.182  14.790  0.4662  0.3969 -0.2465
17915TIP3   OH275159   3.164   1.724   4.504 -0.3100 -0.1970  0.0227
17915TIP3    H175160   3.124   1.656   4.558 -0.3293  1.3950  2.1296
17915TIP3    H275161   3.122   1.805   4.532  0.5783  0.8637 -1.5578
17916TIP3   OH275162   1.592   3.480   2.357  0.0363  0.0956  0.0644
17916TIP3    H175163   1.525   3.487   2.290  0.5619  1.5649 -0.3512
17916TIP3    H275164   1.663   3.430   2.316  0.0522  0.3541 -0.2274
17917TIP3   OH275165   4.530   3.068  11.276 -0.6557  0.3730 -0.2977
17917TIP3    H175166   4.438   3.046  11.266 -1.3514  2.2010  1.2884
17917TIP3    H275167   4.530   3.162  11.296  1.8035  1.2098 -3.4591
17918TIP3   OH275168   1.122   1.985  15.932 -0.3000 -0.4501  0.5537
17918TIP3    H175169   1.176   2.027  15.865 -0.2490 -0.6078  0.4946
17918TIP3    H275170   1.165   2.006  16.014 -1.9966  2.2972  0.8471
17919TIP3   OH275171   5.917   6.459  13.266  0.1503  0.0310  0.1167
17919TIP3    H175172   5.925   6.380  13.319  0.4421 -0.1843 -0.2518
17919TIP3    H275173   5.830   6.453  13.226  0.8276 -0.9234 -1.2412
17920TIP3   OH275174   5.212   2.562   3.620  0.3394  0.0284 -0.3101
17920TIP3    H175175   5.298   2.580   3.583 -0.0531  0.1492 -1.2005
17920TIP3    H275176   5.181   2.647   3.652  0.5502 -0.0181  0.0242
17921TIP3   OH275177   4.952   2.432   2.954 -0.8701  0.1458  0.4777
17921TIP3    H175178   5.036   2.467   2.923 -0.7911  0.3300  0.8917
17921TIP3    H275179   4.938   2.353   2.903  0.2744 -0.7037  1.4331
17922TIP3   OH275180   1.986   4.204  14.457  0.4175 -0.2505 -1.0122
17922TIP3    H175181   1.976   4.111  14.435  0.1624 -0.4799  0.0235
17922TIP3    H275182   1.901   4.230  14.492  0.8389  0.0707 -0.2213
17923TIP3   OH275183   4.866   0.307   1.510  0.5696 -0.2537  0.2508
17923TIP3    H175184   4.858   0.226   1.560  0.2671  0.5249  1.5180
17923TIP3    H275185   4.929   0.360   1.560 -0.4645  0.9251  0.3588
17924TIP3   OH275186   3.163   5.318  12.917 -0.5391  0.1534 -0.0427
17924TIP3    H175187   3.105   5.355  12.851 -0.6689  1.3690  0.7353
17924TIP3    H275188   3.121   5.338  13.000 -0.9008 -2.2221  0.4394
17925TIP3   OH275189   5.360   6.035  13.875 -0.0167 -0.3287 -0.1657
17925TIP3    H175190   5.300   5.974  13.916  0.9008 -2.2577 -1.5582
17925TIP3    H275191   5.308   6.114  13.859 -1.9395 -1.6636 -0.6722
17926TIP3   OH275192   4.862   0.551   6.049 -0.0535 -0.2716  0.4957
17926TIP3    H175193   4.785   0.582   6.001  0.3484 -1.5286 -1.0745
17926TIP3    H275194   4.840   0.564   6.141 -1.8329  0.0910  0.0566
17927TIP3   OH275195   1.307   0.519  11.545  0.9271  0.4882  1.5263
17927TIP3    H175196   1.336   0.432  11.573  3.2715  1.3862  2.1764
17927TIP3    H275197   1.258   0.503  11.465  1.0343 -1.4587  1.7921
17928TIP3   OH275198   6.070   5.818  11.575 -0.0959  0.3050  0.1908
17928TIP3    H175199   6.149   5.871  11.579 -0.3475  0.6777  0.2575
17928TIP3    H275200   5.998   5.880  11.583 -0.3866 -0.1037  0.8871
17929TIP3   OH275201   1.366   1.038   1.595 -0.1947 -0.0525 -0.4763
17929TIP3    H175202   1.300   0.998   1.652  0.3541 -0.9045 -0.4286
17929TIP3    H275203   1.392   1.118   1.641  0.8047 -1.1165  0.8825
17930TIP3   OH275204   3.613   5.583   0.036  0.4423  0.3221  0.5339
17930TIP3    H175205   3.575   5.614  -0.047  2.5812  1.2391 -0.1712
17930TIP3    H275206   3.707   5.574   0.018  0.9308  0.2638  2.7901
17931TIP3   OH275207   3.903   4.480  12.920  0.3302 -0.3795 -0.8917
17931TIP3    H175208   3.955   4.520  12.850  1.4725  1.8801  1.1186
17931TIP3    H275209   3.845   4.549  12.950 -0.4191 -1.4193  0.1529
17932TIP3   OH275210   2.949   0.144   4.491  0.2238  0.4749  0.1454
17932TIP3    H175211   3.026   0.141   4.547 -0.1731  2.1041  0.8426
17932TIP3    H275212   2.968   0.215   4.429  0.1679 -0.5373 -1.0638
17933TIP3   OH275213   1.676   4.106  12.284 -0.4351  0.2946 -0.8078
17933TIP3    H175214   1.619   4.181  12.298 -0.0962  0.5133 -0.5905
17933TIP3    H275215   1.656   4.047  12.358 -0.8173  0.0952 -1.0676
17934TIP3   OH275216   2.443   0.887   2.382  0.4419 -0.4048 -0.9489
17934TIP3    H175217   2.351   0.911   2.396  1.0939  1.1234  1.4099
17934TIP3    H275218   2.456   0.895   2.288 -1.1354  2.3108 -1.0465
17935TIP3   OH275219   0.949   6.051  15.399 -0.7594 -0.6322 -0.2821
17935TIP3    H175220   0.937   5.957  15.392 -2.3775 -0.3815 -1.6539
17935TIP3    H275221   0.890   6.078  15.469 -2.3790 -0.3725 -1.6692
17936TIP3   OH275222   4.823   3.995  16.983  0.6378  0.0350  0.3638
17936TIP3    H175223   4.750   3.933  16.979 -0.1754  1.0018 -0.2869
17936TIP3    H275224   4.898   3.946  16.947  0.0965 -0.6822  0.1901
17937TIP3   OH275225   6.682   6.113  13.434  0.2326 -0.2429 -0.3793
17937TIP3    H175226   6.746   6.159  13.488 -0.3704  0.2378 -0.0543
17937TIP3    H275227   6.729   6.037  13.400  1.3823  0.8260 -1.2645
17938TIP3   OH275228   2.342   1.602   5.241  0.2989 -0.3723 -0.5249
17938TIP3    H175229   2.349   1.642   5.328  1.5628 -2.7039  0.5408
17938TIP3    H275230   2.376   1.668   5.182  1.1886  0.5955  0.9925
17939TIP3   OH275231   4.444   3.852  11.516 -0.0563  0.1117  0.5007
17939TIP3    H175232   4.369   3.803  11.481 -1.8522  2.7045  0.4831
17939TIP3    H275233   4.513   3.839  11.452 -0.6921 -1.7308  0.1198
17940TIP3   OH275234   5.351   4.554  12.290  0.0731 -0.3722 -0.2712
17940TIP3    H175235   5.379   4.595  12.372 -2.1259 -1.7240  1.2526
17940TIP3    H275236   5.362   4.460  12.305 -0.6711 -0.6649 -1.4327
17941TIP3   OH275237   5.154   1.152  17.053 -0.8547 -0.2654  0.1478
17941TIP3    H175238   5.194   1.082  17.104  0.2890 -1.5255 -2.2919
17941TIP3    H275239   5.077   1.112  17.012 -2.7097  1.1694  2.0011
17942TIP3   OH275240   4.861   2.487  17.181 -0.5192  0.4595 -0.2387
17942TIP3    H175241   4.909   2.418  17.227 -0.7646 -0.0811 -0.7806
17942TIP3    H275242   4.840   2.551  17.249 -1.3600 -0.5886  0.5101
17943TIP3   OH275243   5.441   1.195   4.113 -0.3388  0.0003  0.5185
17943TIP3    H175244   5.466   1.268   4.057  0.5921 -0.1481  0.7214
17943TIP3    H275245   5.521   1.143   4.123 -0.8937 -0.8561  0.6694
17944TIP3   OH275246   5.273   0.809  14.887  0.5279  0.1593  0.5638
17944TIP3    H175247   5.261   0.726  14.842  0.8368  1.4874 -2.2029
17944TIP3    H275248   5.196   0.861  14.863  0.3030  0.6976  2.2982
17945TIP3   OH275249   3.019   0.201   3.489  0.1151 -0.1858 -0.0263
17945TIP3    H175250   2.986   0.128   3.540 -0.2449 -0.2687 -0.3661
17945TIP3    H275251   2.940   0.242   3.452  0.1390  1.5713  1.7255
17946TIP3   OH275252   0.651   5.879   2.085  0.0189  0.1391 -0.0652
17946TIP3    H175253   0.697   5.963   2.082  1.2309 -0.5128 -0.2645
17946TIP3    H275254   0.597   5.884   2.164 -0.5919  1.4353 -0.5398
17947TIP3   OH275255   3.426   4.189  14.215 -0.1602 -0.1183 -0.3861
17947TIP3    H175256   3.379   4.118  14.170  0.5475 -0.6310 -0.3392
17947TIP3    H275257   3.514   4.154  14.228 -0.3232  0.0416  1.3496
17948TIP3   OH275258   1.224   2.201   0.729 -0.6039  0.6096 -0.0919
17948TIP3    H175259   1.163   2.137   0.693  0.1964  0.7618 -1.8601
17948TIP3    H275260   1.182   2.286   0.711 -0.5962  0.6560  0.1133
17949TIP3   OH275261   4.374   0.909  13.532 -0.3678 -0.5573 -0.0188
17949TIP3    H175262   4.376   0.814  13.517 -0.1729 -0.4932 -0.4023
17949TIP3    H275263   4.281   0.929  13.546 -0.3461 -0.8867  0.6077
17950TIP3   OH275264   1.737   2.401   1.061  0.5857  0.6357 -0.1756
17950TIP3    H175265   1.676   2.328   1.049  1.6704 -0.2876 -0.2388
17950TIP3    H275266   1.723   2.456   0.985 -0.2302  0.4767 -0.1465
17951TIP3   OH275267   1.705   0.259  14.845  0.2005  0.3212  0.3311
17951TIP3    H175268   1.677   0.185  14.899  0.4157  0.2928  0.4055
17951TIP3    H275269   1.784   0.227  14.800 -1.0840 -0.3494 -1.5498
17952TIP3   OH275270   5.126   0.622   4.609 -0.5539 -0.4698  0.2587
17952TIP3    H175271   5.102   0.531   4.592  2.3473 -1.2928  0.0131
17952TIP3    H275272   5.137   0.627   4.704 -0.7404 -0.3592  0.2755
17953TIP3   OH275273   4.709   4.145  14.886  0.0890 -0.5865  0.1781
17953TIP3    H175274   4.791   4.151  14.838 -0.1283  0.9836 -0.0560
17953TIP3    H275275   4.732   4.166  14.977 -0.0208 -0.2921  0.1398
17954TIP3   OH275276   6.679   0.776  11.098  0.2456  0.1742  0.3028
17954TIP3    H175277   6.688   0.870  11.084  1.5641  0.0313  0.1285
17954TIP3    H275278   6.621   0.747  11.027 -0.6129  0.9225  0.6758
17955TIP3   OH275279   6.385   2.550   1.310 -0.5690 -0.3394 -0.8303
17955TIP3    H175280   6.423   2.596   1.385  0.2417 -0.7236 -0.9911
17955TIP3    H275281   6.460   2.530   1.254 -0.7288 -2.8733 -0.2217
17956TIP3   OH275282   6.684   3.380   1.555  0.4609 -0.0121 -0.7215
17956TIP3    H175283   6.713   3.307   1.610 -0.7128 -0.3349 -0.5159
17956TIP3    H275284   6.604   3.349   1.514 -1.3868  1.9192  1.1369
17957TIP3   OH275285   4.406   3.213  11.900  0.0423  0.2679  0.2730
17957TIP3    H175286   4.339   3.154  11.868  0.9394 -2.2277  2.6198
17957TIP3    H275287   4.364   3.260  11.972 -0.4583  2.1099 -1.1481
17958TIP3   OH275288   2.381   5.507  12.900  0.3083  0.1425  0.6683
17958TIP3    H175289   2.373   5.581  12.841  0.2388 -0.7444 -0.4651
17958TIP3    H275290   2.430   5.441  12.851  2.0396  0.1145  2.3308
17959TIP3   OH275291   4.877   2.690   3.306  0.0915  0.1846 -0.1666
17959TIP3    H175292   4.965   2.700   3.343 -0.0637  0.5447  0.1197
17959TIP3    H275293   4.888   2.706   3.213  0.4665 -0.5986 -0.2597
17960TIP3   OH275294   1.812   2.678  16.781 -0.4852 -0.1564  0.1563
17960TIP3    H175295   1.833   2.636  16.698  0.7164 -0.9021  0.8141
17960TIP3    H275296   1.873   2.751  16.787 -0.7020  0.0164  0.2977
17961TIP3   OH275297   5.495   1.020   5.510 -0.0345 -0.1977  0.9507
17961TIP3    H175298   5.476   0.927   5.519  2.4051 -0.9471 -0.6699
17961TIP3    H275299   5.522   1.031   5.419  0.4067  1.9587  1.2794
17962TIP3   OH275300   1.308   2.507   2.473  0.1230 -0.3786  1.2525
17962TIP3    H175301   1.304   2.517   2.568  2.2850  2.0555  1.1961
17962TIP3    H275302   1.238   2.563   2.440  1.5211  1.5509  1.4018
17963TIP3   OH275303   2.355   0.901   0.649  0.4554  0.4897 -0.4417
17963TIP3    H175304   2.390   0.966   0.588  1.8996  0.6628  0.5309
17963TIP3    H275305   2.401   0.918   0.731 -1.4830  0.3017  0.7486
17964TIP3   OH275306   5.932   4.361  15.312 -0.8746 -0.9734  0.1236
17964TIP3    H175307   5.878   4.288  15.346 -0.1018 -1.7526 -0.2838
17964TIP3    H275308   6.003   4.318  15.265 -0.0467  0.0513  0.4071
17965TIP3   OH275309   0.499   2.646   5.441 -0.4167 -0.6150  0.2321
17965TIP3    H175310   0.502   2.629   5.347 -0.0779  0.8497 -0.0331
17965TIP3    H275311   0.551   2.725   5.453 -1.8392  0.1850  1.4259
17966TIP3   OH275312   1.275   5.075  14.432  0.1223  0.1989  0.1149
17966TIP3    H175313   1.341   5.143  14.440 -0.3273  0.9576 -2.0714
17966TIP3    H275314   1.293   5.033  14.348 -0.6900 -1.2404  0.6183
17967TIP3   OH275315   0.695   4.433   2.280  0.4501  0.0351 -0.4777
17967TIP3    H175316   0.733   4.419   2.367  0.2746 -1.0001 -0.5537
17967TIP3    H275317   0.690   4.345   2.242 -0.1708  0.3916 -1.2403
17968TIP3   OH275318   3.617   3.114   5.425  0.0882 -0.3674  0.6771
17968TIP3    H175319   3.610   3.021   5.402 -0.2834 -1.0027  3.0751
17968TIP3    H275320   3.681   3.116   5.496  1.4644  1.4843 -0.5382
17969TIP3   OH275321   1.982   2.289  11.453  0.3626  0.0366 -0.1918
17969TIP3    H175322   2.001   2.242  11.372  2.8894  1.0521 -0.3034
17969TIP3    H275323   1.951   2.375  11.423 -1.2082 -0.4380 -0.0127
17970TIP3   OH275324   2.959   2.991   5.653 -0.0310  0.4723  0.0125
17970TIP3    H175325   3.006   2.927   5.599 -1.6920 -1.2957  0.5498
17970TIP3    H275326   3.006   2.993   5.736  2.4094  3.0398 -1.2727
17971TIP3   OH275327   6.259   4.019  11.187  0.0487  0.0953 -0.3155
17971TIP3    H175328   6.305   4.102  11.189  0.1355  0.0624 -0.9399
17971TIP3    H275329   6.204   4.023  11.109  0.4364 -0.6304 -0.6362
17972TIP3   OH275330   1.657   2.739   6.249 -0.0833 -0.4062 -0.1417
17972TIP3    H175331   1.697   2.730   6.162 -0.6332 -1.9296 -0.2663
17972TIP3    H275332   1.725   2.708   6.309  0.4676  1.0803  0.0432
17973TIP3   OH275333   6.055   3.215  12.219 -0.3114  0.2182  0.3271
17973TIP3    H175334   6.011   3.291  12.180 -1.5374 -1.5311 -1.9258
17973TIP3    H275335   6.001   3.192  12.295  0.5371  1.9994  1.5512
17974TIP3   OH275336   1.152   6.486   2.756  0.0503  0.2554 -0.0652
17974TIP3    H175337   1.065   6.509   2.724 -0.9361 -1.5387  1.1738
17974TIP3    H275338   1.141   6.475   2.850  1.3035 -1.2181 -0.0485
17975TIP3   OH275339   6.148   6.229   0.142 -0.4022  0.0504  0.5388
17975TIP3    H175340   6.172   6.143   0.107 -0.9881 -0.3597  1.1199
17975TIP3    H275341   6.058   6.217   0.174 -0.6401  0.9970  0.2376
17976TIP3   OH275342   3.191   4.213   3.076  0.0692 -0.7948 -0.6240
17976TIP3    H175343   3.260   4.159   3.115  0.3665  1.1758  1.7803
17976TIP3    H275344   3.232   4.251   2.998  1.3165 -0.6181  0.0931
17977TIP3   OH275345   3.359   2.458  16.395 -0.5221 -0.0050  0.1455
17977TIP3    H175346   3.292   2.506  16.442 -0.8014 -1.4601  1.3150
17977TIP3    H275347   3.434   2.455  16.454 -0.0145  0.1638 -0.4688
17978TIP3   OH275348   2.075   5.222  16.190 -0.6048 -0.0251  0.1817
17978TIP3    H175349   2.132   5.291  16.157  1.5103 -1.7978 -0.0692
17978TIP3    H275350   2.132   5.166  16.242 -2.1438 -1.8100  0.0613
17979TIP3   OH275351   1.059   5.267   2.965 -0.2384  0.1055  0.3464
17979TIP3    H175352   1.122   5.249   3.035 -1.0955  1.8053  1.6240
17979TIP3    H275353   0.986   5.207   2.983 -0.1924  0.1029  0.5285
17980TIP3   OH275354   5.228   3.017   2.137  0.2186 -0.0930  0.3368
17980TIP3    H175355   5.157   3.024   2.073 -1.9654  0.3063  2.6451
17980TIP3    H275356   5.278   3.098   2.127 -0.0386 -0.0637 -0.8549
17981TIP3   OH275357   2.216   4.167  13.685 -0.0133 -0.5896  0.7817
17981TIP3    H175358   2.135   4.116  13.687 -0.1675 -0.5663 -1.9072
17981TIP3    H275359   2.191   4.254  13.716 -1.6649  0.1030 -2.1036
17982TIP3   OH275360   4.565   4.069  11.324 -0.6383 -0.1674  0.3467
17982TIP3    H175361   4.517   4.114  11.255  0.1854  1.3608  0.7145
17982TIP3    H275362   4.543   4.118  11.404 -0.6347 -1.1602  0.9688
17983TIP3   OH275363   2.573   1.792  14.270  0.0714 -0.3602  0.4016
17983TIP3    H175364   2.530   1.728  14.327 -0.3064 -0.8737 -0.4553
17983TIP3    H275365   2.599   1.743  14.193 -0.4162  0.5533 -0.3697
17984TIP3   OH275366   3.670   2.624  11.347 -0.6306  0.1307 -0.0114
17984TIP3    H175367   3.662   2.595  11.256  0.7143  1.4091 -0.5716
17984TIP3    H275368   3.604   2.693  11.355 -0.6976  0.0698 -0.0344
17985TIP3   OH275369   1.342   0.443  12.279  0.2577 -0.3928 -0.5808
17985TIP3    H175370   1.330   0.415  12.370  1.3798  1.3840  0.1658
17985TIP3    H275371   1.424   0.492  12.279  0.9369 -1.3816 -2.8358
17986TIP3   OH275372   2.880   3.724   1.050  0.0781 -0.0423  0.3022
17986TIP3    H175373   2.882   3.712   0.955  1.5360 -1.6815  0.4941
17986TIP3    H275374   2.961   3.771   1.070 -1.2189  2.2369  0.5703
17987TIP3   OH275375   2.088   6.692   0.371 -0.1246  0.0928 -0.3757
17987TIP3    H175376   2.177   6.665   0.350 -0.4135 -2.0339  0.8748
17987TIP3    H275377   2.054   6.729   0.290  1.7071  0.4940 -1.0092
17988TIP3   OH275378   5.025   5.253   0.557 -0.4566  0.0297  0.0490
17988TIP3    H175379   5.103   5.215   0.518 -0.9513 -2.0500  0.9508
17988TIP3    H275380   5.052   5.341   0.584  1.5321 -0.5673  0.1887
17989TIP3   OH275381   5.812   1.801  11.443  0.1756  0.1941 -0.5620
17989TIP3    H175382   5.839   1.730  11.500  0.3031  0.0397 -0.8112
17989TIP3    H275383   5.871   1.873  11.463  1.7966 -0.6104 -2.1505
17990TIP3   OH275384   4.226   3.317   3.899  0.1883 -0.5537 -0.4045
17990TIP3    H175385   4.182   3.256   3.839 -0.2146 -0.7712  0.1114
17990TIP3    H275386   4.317   3.319   3.867 -0.1158 -0.3325 -1.2903
17991TIP3   OH275387   5.751   5.580   2.728  0.4809  0.6570  0.4621
17991TIP3    H175388   5.677   5.520   2.724  0.8236  0.1528  1.3943
17991TIP3    H275389   5.760   5.614   2.639 -1.5286  1.5376  0.5376
17992TIP3   OH275390   2.723   5.765   3.582 -0.8364 -0.1660  0.2835
17992TIP3    H175391   2.769   5.789   3.663  0.4718  1.7482 -0.9264
17992TIP3    H275392   2.664   5.839   3.566 -1.1153 -0.5486 -0.4739
17993TIP3   OH275393   5.179   2.319  14.216 -0.1317  0.1104 -0.2040
17993TIP3    H175394   5.138   2.354  14.137  0.6213  0.0271 -0.6360
17993TIP3    H275395   5.263   2.365  14.222 -0.3626  0.4432  0.7970
17994TIP3   OH275396   1.369   1.127   1.334 -0.3911 -0.3663  0.3562
17994TIP3    H175397   1.364   1.039   1.295  1.1412 -0.3481  0.0553
17994TIP3    H275398   1.331   1.117   1.421 -1.3468 -1.0474 -0.1264
17995TIP3   OH275399   4.110   4.125   1.088 -0.1351 -0.1465 -0.1802
17995TIP3    H175400   4.184   4.080   1.129 -1.2058 -0.2485  1.7617
17995TIP3    H275401   4.033   4.089   1.132 -1.1465  2.4069  0.3185
17996TIP3   OH275402   1.203   0.666   3.887 -0.0315 -0.1573 -0.4025
17996TIP3    H175403   1.264   0.603   3.849  1.0858  2.0320 -2.4651
17996TIP3    H275404   1.147   0.692   3.814 -2.7513 -1.1600  1.1500
17997TIP3   OH275405   0.630   0.033   4.243  0.2001  0.0449 -0.2335
17997TIP3    H175406   0.601   0.074   4.161  1.2811  1.1034 -0.1135
17997TIP3    H275407   0.708  -0.017   4.218  0.4426  0.2486  0.1185
17998TIP3   OH275408   4.691   2.373  13.244 -0.3639  0.1498  0.2853
17998TIP3    H175409   4.777   2.366  13.287 -0.1533 -0.8943 -0.2767
17998TIP3    H275410   4.628   2.354  13.314 -0.0239 -1.5485  0.1733
17999TIP3   OH275411   1.867   6.141   6.203  0.6712 -0.3490  0.5878
17999TIP3    H175412   1.918   6.062   6.187 -0.1288 -0.9662  0.9853
17999TIP3    H275413   1.827   6.126   6.289 -0.0744  0.1659  0.3364
18000TIP3   OH275414   0.951   3.868   1.407 -0.8588  0.4301  0.9558
18000TIP3    H175415   0.945   3.953   1.450  0.8354  1.3769 -0.5648
18000TIP3    H275416   1.044   3.858   1.385 -1.3241 -0.9306 -0.6284
18001TIP3   OH275417   2.697   2.760   3.278 -0.2493  0.8824 -0.2577
18001TIP3    H175418   2.719   2.695   3.344 -1.0107  1.0414  0.1646
18001TIP3    H275419   2.740   2.729   3.198  1.1571  0.9944  0.4344
18002TIP3   OH275420   3.679   5.135  15.531 -0.0006 -0.1206 -0.4173
18002TIP3    H175421   3.771   5.115  15.547 -0.6180 -2.3249  0.6925
18002TIP3    H275422   3.649   5.176  15.612 -0.1271  0.1197 -0.5832
18003TIP3   OH275423   0.843   4.681  12.120 -0.2946  0.3142  0.3213
18003TIP3    H175424   0.904   4.739  12.074 -0.6349  1.2004  0.9655
18003TIP3    H275425   0.759   4.694  12.075 -0.7264  1.5012  1.4255
18004TIP3   OH275426   3.760   6.553  13.275 -0.6135 -0.2755  0.0449
18004TIP3    H175427   3.674   6.593  13.277 -0.0421  1.0207 -0.3592
18004TIP3    H275428   3.743   6.458  13.278 -1.9713 -0.0343  1.7243
18005TIP3   OH275429   2.865   6.029   4.146  0.3419  0.4263  0.0753
18005TIP3    H175430   2.942   5.975   4.131 -1.6798 -2.7582  0.2470
18005TIP3    H275431   2.814   5.981   4.211 -2.1931  1.9262 -0.6655
18006TIP3   OH275432   3.928   1.603  17.264  0.2486  0.0540  0.3273
18006TIP3    H175433   3.851   1.588  17.318  0.5466  0.1667  0.7896
18006TIP3    H275434   3.969   1.517  17.257  0.8680  0.2452  1.3082
18007TIP3   OH275435   4.286   0.422   2.077 -0.3109  0.0477 -0.1778
18007TIP3    H175436   4.351   0.446   2.011  0.7029 -1.0169  0.4114
18007TIP3    H275437   4.335   0.412   2.158 -1.2738 -0.3568  0.3769
18008TIP3   OH275438   1.076   0.251   3.059  0.1416  0.1114 -0.2886
18008TIP3    H175439   1.139   0.271   2.989  4.4355  1.1688  3.3676
18008TIP3    H275440   1.076   0.155   3.064  2.1594  0.0971  0.0984
18009TIP3   OH275441   1.845   1.961   4.636 -0.2888 -0.0779  0.1180
18009TIP3    H175442   1.765   1.956   4.689 -1.2305  0.0806 -1.2238
18009TIP3    H275443   1.813   1.971   4.546  1.2451 -0.6878 -0.5301
18010TIP3   OH275444   4.782   3.201   1.184  0.6308 -0.0207  0.4267
18010TIP3    H175445   4.759   3.124   1.133 -0.5474  0.8666 -0.4416
18010TIP3    H275446   4.869   3.181   1.219  0.7228 -1.3776 -0.4821
18011TIP3   OH275447   0.179   2.505  13.003  0.1116  0.1529 -0.5788
18011TIP3    H175448   0.211   2.415  12.996 -0.5949 -0.3205  1.6067
18011TIP3    H275449   0.138   2.522  12.918 -1.3273 -2.2395 -0.4617
18012TIP3   OH275450   2.713   1.771   5.104 -0.5393  0.2892  0.2275
18012TIP3    H175451   2.668   1.729   5.031  0.0315 -0.8956  0.5327
18012TIP3    H275452   2.645   1.786   5.169 -0.5617 -1.4343  0.6626
18013TIP3   OH275453   0.507   5.435  12.832  0.1299  0.6139  0.0612
18013TIP3    H175454   0.496   5.521  12.791  0.7110  0.5971 -0.1429
18013TIP3    H275455   0.421   5.394  12.825  0.1652  0.6927 -0.9728
18014TIP3   OH275456   5.447   3.070  11.316  0.2412 -0.2524 -0.1305
18014TIP3    H175457   5.456   3.063  11.221 -0.3556 -1.0040 -0.1425
18014TIP3    H275458   5.397   3.151  11.329  0.7490  0.1123 -0.4227
18015TIP3   OH275459   1.817   0.689  15.118 -0.9850  0.2086  0.0197
18015TIP3    H175460   1.751   0.730  15.174 -0.4831 -0.5607  1.2065
18015TIP3    H275461   1.796   0.595  15.121 -1.0777  0.1652 -1.2709
18016TIP3   OH275462   5.457   1.517  12.193  0.4980  0.1676 -0.1275
18016TIP3    H175463   5.508   1.466  12.255 -0.4602 -0.3309  0.2661
18016TIP3    H275464   5.453   1.605  12.232  1.2464  0.2839 -0.2878
18017TIP3   OH275465   3.069   1.636  12.420  0.4153 -0.3887  0.2189
18017TIP3    H175466   3.093   1.637  12.512 -1.3039  3.7614  0.8275
18017TIP3    H275467   3.094   1.722  12.387  1.2815 -1.8185 -3.3741
18018TIP3   OH275468   4.444   4.789   5.064  0.0513  0.3486  0.5942
18018TIP3    H175469   4.431   4.863   5.005 -0.9652 -1.5010 -1.6569
18018TIP3    H275470   4.539   4.778   5.068  0.1418  0.1278 -1.2871
18019TIP3   OH275471   2.781   2.094  11.269  0.0672  0.3220  0.4103
18019TIP3    H175472   2.757   2.004  11.287  1.0313  0.1359  0.7852
18019TIP3    H275473   2.769   2.103  11.174  2.9989 -1.1778 -0.2395
18020TIP3   OH275474   0.963   5.503  11.707 -0.7343 -0.4089  0.2594
18020TIP3    H175475   0.928   5.456  11.782  0.7007  0.2423  1.4078
18020TIP3    H275476   1.037   5.450  11.678 -0.5248 -0.0372  0.1045
18021TIP3   OH275477   5.948   4.769   4.935  0.3738  0.6129 -0.0259
18021TIP3    H175478   6.021   4.775   4.873  2.3753 -1.5086  1.8646
18021TIP3    H275479   5.975   4.824   5.009 -0.3300  0.4699  0.3464
18022TIP3   OH275480   1.524   0.498   2.745  0.2706 -0.4864  0.0366
18022TIP3    H175481   1.600   0.457   2.786  0.4555 -1.0648 -0.8485
18022TIP3    H275482   1.559   0.539   2.665 -0.4730 -1.5196 -0.8499
18023TIP3   OH275483   4.627   3.704   2.729 -0.9821  0.8134 -0.0373
18023TIP3    H175484   4.701   3.659   2.688 -1.1864  1.0060 -0.6286
18023TIP3    H275485   4.631   3.677   2.821  0.4630  1.6944  0.1801
18024TIP3   OH275486   4.416   4.780   4.692 -0.1780  0.1155  0.3360
18024TIP3    H175487   4.428   4.686   4.686 -0.1499  0.1427 -0.1114
18024TIP3    H275488   4.462   4.815   4.615 -0.0650  0.5033  0.5760
18025TIP3   OH275489   4.841   1.600  16.238 -0.0628 -0.2493 -0.6990
18025TIP3    H175490   4.813   1.628  16.325 -0.4961 -1.7272 -0.3318
18025TIP3    H275491   4.889   1.675  16.203  0.1926  0.3464  0.8446
18026TIP3   OH275492   1.269   5.846   4.110  0.1796 -0.4408 -0.3129
18026TIP3    H175493   1.300   5.764   4.072  1.0762 -0.3289  0.1462
18026TIP3    H275494   1.338   5.909   4.090  0.2626 -0.1815  0.7051
18027TIP3   OH275495   1.713   4.571  16.135 -0.5019 -0.1843 -0.2068
18027TIP3    H175496   1.712   4.513  16.058 -0.9432 -0.1943 -0.1958
18027TIP3    H275497   1.629   4.617  16.132  0.4071  1.5573 -1.0479
18028TIP3   OH275498   6.319   3.099   1.117  0.0223  0.1586  0.1604
18028TIP3    H175499   6.330   3.009   1.086 -3.9901 -0.2774 -0.5322
18028TIP3    H275500   6.325   3.152   1.038  0.4920  0.3187  0.2979
18029TIP3   OH275501   0.595   0.471  14.416 -0.4486  0.3322 -0.0415
18029TIP3    H175502   0.575   0.377  14.425 -1.5566  0.0856 -3.5700
18029TIP3    H275503   0.516   0.515  14.447 -0.1234  0.1145  1.1464
18030TIP3   OH275504   6.694   0.764  12.260 -0.1043 -0.0475  0.3394
18030TIP3    H175505   6.601   0.783  12.245 -0.3692 -1.0318  0.6514
18030TIP3    H275506   6.724   0.727  12.177 -0.2394 -0.6049  0.5329
18031TIP3   OH275507   5.229   4.058   5.717  0.3808 -0.0718 -0.3613
18031TIP3    H175508   5.191   4.144   5.737 -0.0502 -0.2814 -0.2845
18031TIP3    H275509   5.261   4.026   5.802  1.1075  0.2792 -0.4887
18032TIP3   OH275510   2.336   1.198  15.296 -0.2850 -0.3865 -0.2662
18032TIP3    H175511   2.293   1.119  15.328 -1.5642  0.0408 -0.8725
18032TIP3    H275512   2.276   1.233  15.231  0.6745  0.6193 -0.6322
18033TIP3   OH275513   3.763   6.047  12.944 -0.4647  0.0657 -0.2945
18033TIP3    H175514   3.766   5.981  12.875  0.3564 -0.0561 -0.1471
18033TIP3    H275515   3.683   6.027  12.993 -0.9088 -0.0136 -1.0394
18034TIP3   OH275516   1.067   5.662  13.453  0.4901  0.6066 -0.1955
18034TIP3    H175517   1.059   5.712  13.372  0.3089  0.8408 -0.0363
18034TIP3    H275518   1.016   5.712  13.517  1.8242  1.2172  0.4373
18035TIP3   OH275519   6.205   4.076  16.301  0.2906  0.1743 -0.2729
18035TIP3    H175520   6.199   4.100  16.208  1.0804  1.5169  0.0125
18035TIP3    H275521   6.282   4.020  16.306  0.3633  0.2639 -0.3915
18036TIP3   OH275522   2.947   0.623   5.496  0.2523  0.1861 -0.7628
18036TIP3    H175523   2.885   0.624   5.570  1.2549 -2.9906  0.2856
18036TIP3    H275524   3.033   0.629   5.538  0.8387  4.1345 -2.1718
18037TIP3   OH275525   1.290   6.387  13.002  0.1912  0.6112 -0.1905
18037TIP3    H175526   1.255   6.344  13.080 -0.0707 -0.9802 -1.1423
18037TIP3    H275527   1.216   6.433  12.964 -0.6886 -1.7258 -1.5145
18038TIP3   OH275528   4.624   1.261   2.896  0.1332  0.3555  0.1980
18038TIP3    H175529   4.538   1.236   2.863  0.8555 -0.8424 -0.8572
18038TIP3    H275530   4.634   1.352   2.869 -0.5897  0.3517 -0.1149
18039TIP3   OH275531   3.904   5.025  13.437  0.0835  0.4110 -0.2470
18039TIP3    H175532   3.930   5.014  13.528 -0.9708  2.8275  0.4158
18039TIP3    H275533   3.851   4.948  13.417  2.1114 -1.2523  0.4245
18040TIP3   OH275534   3.947   1.488   2.020  0.0230  0.1063  0.8077
18040TIP3    H175535   4.033   1.527   2.004 -0.0223 -0.6100 -1.5296
18040TIP3    H275536   3.886   1.561   2.015  0.3480  0.3900  0.9213
18041TIP3   OH275537   5.062   6.712   3.234  0.1064  0.4272 -0.6808
18041TIP3    H175538   5.069   6.803   3.264 -2.5689 -0.3433  2.8373
18041TIP3    H275539   5.143   6.671   3.265  0.6776  1.2718 -1.0112
18042TIP3   OH275540   6.536   5.864  15.218 -0.2076 -0.2819 -0.0696
18042TIP3    H175541   6.578   5.943  15.183  0.4376 -0.9808 -0.9183
18042TIP3    H275542   6.589   5.841  15.295 -0.7230  0.4057  0.5024
18043TIP3   OH275543   4.187   6.024  16.906  0.2855 -0.2354 -0.4538
18043TIP3    H175544   4.120   6.027  16.975  0.1419 -0.2036 -0.5936
18043TIP3    H275545   4.265   6.061  16.947  0.4236 -0.9484 -0.0623
18044TIP3   OH275546   1.111   6.127   5.940  0.1983  0.8271  0.0588
18044TIP3    H175547   1.047   6.194   5.963 -2.4181 -1.0903 -0.9988
18044TIP3    H275548   1.077   6.090   5.858  0.9201 -2.3774  1.0679
18045TIP3   OH275549   0.198   5.988  12.291  0.0980 -0.0360 -0.2034
18045TIP3    H175550   0.120   6.017  12.242 -0.0972 -0.1684  0.0250
18045TIP3    H275551   0.265   5.974  12.224  1.5153  4.7225 -0.1554
18046TIP3   OH275552   0.315   0.988  15.164 -0.7701 -0.4827 -0.0392
18046TIP3    H175553   0.407   1.008  15.178 -0.8556 -1.3181  2.0319
18046TIP3    H275554   0.269   1.043  15.228 -1.4969 -2.0381  0.8097
18047TIP3   OH275555   0.360   5.371   3.516 -0.1359 -0.0602  0.3827
18047TIP3    H175556   0.322   5.285   3.534 -1.4698  0.3143 -0.5541
18047TIP3    H275557   0.414   5.357   3.438 -1.1295  0.1516 -0.3521
18048TIP3   OH275558   5.394   3.582  11.491 -0.3327  0.5552 -0.5480
18048TIP3    H175559   5.385   3.677  11.497 -0.6582  0.5926 -1.4824
18048TIP3    H275560   5.377   3.551  11.580 -3.7770  1.0878 -0.8817
18049TIP3   OH275561   0.803   4.630  15.063 -0.5288  0.0806 -0.0342
18049TIP3    H175562   0.775   4.705  15.115  0.4704  0.2686  0.2457
18049TIP3    H275563   0.743   4.560  15.088  1.4640 -0.6395  3.4144
18050TIP3   OH275564   2.792   6.513   3.765 -0.6100 -0.6092 -0.6779
18050TIP3    H175565   2.834   6.555   3.690  1.7521 -0.5301  0.5989
18050TIP3    H275566   2.864   6.470   3.812 -2.1403 -1.3908  1.0805
18051TIP3   OH275567   1.326   0.685  13.600 -0.4509  0.0075  0.2575
18051TIP3    H175568   1.290   0.660  13.515  1.2713 -0.0525 -0.4843
18051TIP3    H275569   1.304   0.778  13.609 -1.0003 -0.0848 -0.0505
18052TIP3   OH275570   5.798   4.860   5.272  0.3457  0.5238  0.2924
18052TIP3    H175571   5.827   4.893   5.357  1.3202 -0.2520  0.2784
18052TIP3    H275572   5.720   4.808   5.292 -0.6028  1.9360  0.4400
18053TIP3   OH275573   1.794   6.060  16.235  0.0730  0.1154  0.0739
18053TIP3    H175574   1.736   6.064  16.159 -0.9653 -0.6656  0.8007
18053TIP3    H275575   1.851   5.984  16.217 -0.4588 -0.3338  0.2664
18054TIP3   OH275576   5.965   6.087   5.862 -0.0607  0.4784 -0.2189
18054TIP3    H175577   5.884   6.131   5.837 -1.2641  0.1897  2.7562
18054TIP3    H275578   6.022   6.156   5.895 -0.7077  0.2405  1.4617
18055TIP3   OH275579   0.908   6.175   3.265  0.4918  0.3880  0.6134
18055TIP3    H175580   0.873   6.255   3.224  0.3652  0.3018  0.5524
18055TIP3    H275581   0.961   6.207   3.338  0.6249  0.5392  0.4518
18056TIP3   OH275582   5.126   2.157   5.481 -0.3060 -0.1261 -0.5266
18056TIP3    H175583   5.155   2.177   5.392  2.9020  1.6354  0.7286
18056TIP3    H275584   5.160   2.069   5.498 -0.1349 -0.1058 -0.7570
18057TIP3   OH275585   5.499   0.310   5.437  0.1541  0.0652 -0.1322
18057TIP3    H175586   5.482   0.302   5.344  4.1823  0.4777 -1.1002
18057TIP3    H275587   5.516   0.221   5.467 -0.2111  0.0347 -0.0153
18058TIP3   OH275588   1.369   6.376  11.636 -0.4981 -0.6062 -0.0367
18058TIP3    H175589   1.432   6.433  11.682  0.9501 -0.4705 -2.0431
18058TIP3    H275590   1.366   6.296  11.689  0.6742 -0.2590  0.6022
18059TIP3   OH275591   3.401   1.917  11.361 -0.3187 -0.0570 -0.3344
18059TIP3    H175592   3.452   1.839  11.381 -0.8941 -0.5042 -0.5760
18059TIP3    H275593   3.413   1.929  11.267 -0.5400 -0.0791 -0.3649
18060TIP3   OH275594   1.652   1.950  15.552  0.0887 -0.5918 -0.0314
18060TIP3    H175595   1.599   1.961  15.473 -0.5142  0.2397  0.4751
18060TIP3    H275596   1.656   2.038  15.590 -0.5027 -1.1698  1.4146
18061TIP3   OH275597   5.254   0.134   2.587 -0.1711  0.2385 -0.0248
18061TIP3    H175598   5.341   0.102   2.611 -0.4160 -0.5369 -0.1517
18061TIP3    H275599   5.241   0.103   2.497  0.0494  1.6712 -0.5786
18062TIP3   OH275600   0.840   1.137   3.645 -0.4490 -0.3165 -0.2514
18062TIP3    H175601   0.871   1.125   3.735 -4.7816  1.0711  1.7127
18062TIP3    H275602   0.774   1.069   3.633 -2.6998  1.8157 -0.7832
18063TIP3   OH275603   0.306   3.076  11.646  0.0433 -0.2572  0.2704
18063TIP3    H175604   0.376   3.134  11.676 -0.9376  0.2080  1.7461
18063TIP3    H275605   0.273   3.035  11.726 -1.1149 -0.7614 -0.4406
18064TIP3   OH275606   3.155   3.519   4.302  0.2646  0.3436  0.0975
18064TIP3    H175607   3.147   3.456   4.230  1.4033  0.8934 -0.5381
18064TIP3    H275608   3.070   3.562   4.306 -1.2189 -2.4770  1.7873
18065TIP3   OH275609   2.561   2.510   3.072 -0.4127 -0.0672 -0.1757
18065TIP3    H175610   2.626   2.446   3.100 -0.5339  0.0184  0.3166
18065TIP3    H275611   2.599   2.595   3.097 -0.1446  0.0771 -1.0385
18066TIP3   OH275612   5.139   0.968  15.177  0.7303 -0.4480 -0.0992
18066TIP3    H175613   5.074   0.898  15.171 -0.6174  0.5125  2.0712
18066TIP3    H275614   5.216   0.925  15.214 -0.0549 -0.8255  1.1522
18067TIP3   OH275615   2.015   1.888   3.598 -0.6928  0.4631  0.1624
18067TIP3    H175616   1.971   1.825   3.541  0.3076 -0.5132  0.4489
18067TIP3    H275617   2.086   1.923   3.544  0.2095 -0.4069  0.7600
18068TIP3   OH275618   2.429   3.635   6.168  0.5775 -0.0802 -0.0738
18068TIP3    H175619   2.404   3.559   6.115 -0.2856 -0.5987  1.0295
18068TIP3    H275620   2.500   3.603   6.225  1.8181  0.5979 -1.1936
18069TIP3   OH275621   5.288   2.561  15.614  0.5043  0.2274 -0.5235
18069TIP3    H175622   5.232   2.553  15.537  0.1663  0.2117 -0.2792
18069TIP3    H275623   5.334   2.644  15.601  0.6748  0.0810 -0.8854
18070TIP3   OH275624   5.029   1.693   1.888  0.7843 -0.2821 -0.0754
18070TIP3    H175625   5.031   1.789   1.888 -0.1882 -0.2526  0.1412
18070TIP3    H275626   5.122   1.667   1.884  1.0892  0.6604  0.6033
18071TIP3   OH275627   3.693   3.929  15.521 -0.0463  0.1530 -0.0916
18071TIP3    H175628   3.763   3.910  15.458 -0.2228  1.1039 -0.5885
18071TIP3    H275629   3.625   3.973  15.469  0.2805  2.0051  0.9604
18072TIP3   OH275630   3.039   4.804   2.925  0.2633 -0.2773  0.2634
18072TIP3    H175631   3.087   4.856   2.989  0.1751  1.6684 -1.1409
18072TIP3    H275632   3.084   4.821   2.842  0.5655 -2.9550 -0.2046
18073TIP3   OH275633   0.418   2.334   3.795  0.6048  0.7933  0.4775
18073TIP3    H175634   0.442   2.255   3.844  2.6985  1.0947  0.0242
18073TIP3    H275635   0.354   2.378   3.850 -0.3231 -1.0224  0.9086
18074TIP3   OH275636   0.194   4.141   6.020 -0.3073  0.4114 -0.1229
18074TIP3    H175637   0.284   4.172   6.031  0.0482 -0.3038 -0.9155
18074TIP3    H275638   0.151   4.164   6.102  1.1741 -1.2272  1.1968
18075TIP3   OH275639   3.426   0.572   1.061  0.0656 -0.0309 -0.5137
18075TIP3    H175640   3.447   0.482   1.087  0.4147  0.6993  2.0362
18075TIP3    H275641   3.493   0.595   0.997  1.1737 -0.9667  0.2582
18076TIP3   OH275642   6.460   5.918   5.867 -0.0779 -0.1817  0.7303
18076TIP3    H175643   6.432   5.944   5.955  1.2146 -1.3528  1.5208
18076TIP3    H275644   6.481   5.825   5.875 -0.1984 -0.3713 -0.8917
18077TIP3   OH275645   5.027   3.240  13.239 -0.1191  0.1091 -0.4115
18077TIP3    H175646   5.045   3.174  13.172  0.3293  0.7623 -0.9432
18077TIP3    H275647   4.971   3.194  13.302 -0.6555 -0.4881 -1.2806
18078TIP3   OH275648   3.343   6.058  12.863 -0.4542  0.0068 -0.4918
18078TIP3    H175649   3.404   6.013  12.923  0.7546  1.3538 -0.6584
18078TIP3    H275650   3.354   6.012  12.780  1.4282  1.0532 -0.8952
18079TIP3   OH275651   0.122   5.819   0.302 -0.2574 -0.3004  0.3507
18079TIP3    H175652   0.123   5.805   0.396  2.1328  2.8255  0.9663
18079TIP3    H275653   0.034   5.850   0.283 -0.3676  0.4069  1.8740
18080TIP3   OH275654   1.182   2.645   5.362 -0.0614  0.3258  0.4215
18080TIP3    H175655   1.113   2.708   5.344 -0.3098 -0.0136  0.1686
18080TIP3    H275656   1.167   2.574   5.299  2.7665  1.9351 -2.3316
18081TIP3   OH275657   4.734   1.491   3.311 -0.2092 -0.2008 -0.3166
18081TIP3    H175658   4.720   1.534   3.227 -3.3483  1.3610  0.8608
18081TIP3    H275659   4.677   1.414   3.310 -0.3030 -0.1539  0.3957
18082TIP3   OH275660   0.982   1.637  15.815  0.6597 -0.5424  0.0717
18082TIP3    H175661   0.984   1.720  15.767 -1.0974 -0.5075 -0.0084
18082TIP3    H275662   1.044   1.581  15.770 -0.3754 -0.2502 -1.8038
18083TIP3   OH275663   5.769   4.802  13.301  0.1388  0.2216  0.0914
18083TIP3    H175664   5.794   4.714  13.327 -0.0429  0.2867  0.4861
18083TIP3    H275665   5.681   4.814  13.336 -0.0984  0.3218 -0.5216
18084TIP3   OH275666   5.672   4.072   0.226 -0.2564  0.4182 -0.2687
18084TIP3    H175667   5.638   4.072   0.315  0.3183  1.8960 -0.0167
18084TIP3    H275668   5.709   4.160   0.215 -1.6578  0.8283 -2.4608
18085TIP3   OH275669   3.707   1.925   3.715  0.3149  0.0399 -0.2736
18085TIP3    H175670   3.777   1.985   3.741  0.6638 -0.6899  0.4925
18085TIP3    H275671   3.651   1.978   3.658  0.1702  1.3628  1.0082
18086TIP3   OH275672   1.183   6.651  15.908 -0.0472  0.1202  0.3374
18086TIP3    H175673   1.118   6.626  15.973  0.1957  0.3100  0.6518
18086TIP3    H275674   1.169   6.590  15.835 -0.5916  0.1788  0.3944
18087TIP3   OH275675   5.084   5.653   2.869  0.0335 -0.2630 -0.3298
18087TIP3    H175676   5.121   5.594   2.803 -0.0920  0.3813 -0.9760
18087TIP3    H275677   4.995   5.670   2.839  0.5867  1.5562 -1.0213
18088TIP3   OH275678   6.569   0.201  13.722  0.2167 -0.5126  0.2714
18088TIP3    H175679   6.566   0.166  13.811 -2.2310  1.9682  1.3081
18088TIP3    H275680   6.477   0.217  13.700  0.9283  1.0887 -1.7842
18089TIP3   OH275681   0.175   4.743   3.705  0.6600  0.1710  0.7058
18089TIP3    H175682   0.224   4.700   3.775  1.2973  0.9325  0.7368
18089TIP3    H275683   0.127   4.672   3.662 -0.2221 -0.2283  2.2742
18090TIP3   OH275684   0.402   1.651  16.813 -0.4653 -0.1982  0.0212
18090TIP3    H175685   0.394   1.718  16.881  0.1887 -0.7600  0.6663
18090TIP3    H275686   0.495   1.648  16.794 -0.7850  1.0890 -2.0883
18091TIP3   OH275687   1.624   3.947  13.257 -0.1883 -0.4112 -0.0843
18091TIP3    H175688   1.679   4.002  13.312  0.3187 -0.2710 -0.7240
18091TIP3    H275689   1.645   3.972  13.168 -0.2907 -1.3161 -0.3812
18092TIP3   OH275690   0.605   6.552  15.634 -0.1427  0.4118 -0.1501
18092TIP3    H175691   0.574   6.531  15.722 -0.8578  0.9493 -0.2661
18092TIP3    H275692   0.532   6.529  15.577 -0.3496  1.6964 -0.4254
18093TIP3   OH275693   4.245   0.189   4.874 -0.5896 -0.2647 -0.5101
18093TIP3    H175694   4.230   0.147   4.789 -2.0552  1.6336 -1.2578
18093TIP3    H275695   4.330   0.155   4.902 -0.4973 -1.6718 -2.2741
18094TIP3   OH275696   5.060   1.383  14.132  0.1960 -0.0181  0.0382
18094TIP3    H175697   5.053   1.432  14.214  0.0392  0.4213 -0.2312
18094TIP3    H275698   4.975   1.340  14.122  0.1786  0.0111  0.0598
18095TIP3   OH275699   5.262   1.717   5.311  0.5989 -0.7098  0.3115
18095TIP3    H175700   5.176   1.739   5.276 -0.3487 -2.2727  1.5327
18095TIP3    H275701   5.246   1.645   5.372  2.7853 -1.0885  0.5334
18096TIP3   OH275702   4.461   0.431  17.033 -0.3359  0.1363 -0.7546
18096TIP3    H175703   4.403   0.383  17.092  1.5070  0.9343  1.8598
18096TIP3    H275704   4.498   0.363  16.976 -0.8194 -0.9499  0.1855
18097TIP3   OH275705   3.311   3.402  12.840 -0.0899  0.3616  0.0121
18097TIP3    H175706   3.296   3.325  12.785 -1.3046 -0.9078  1.9813
18097TIP3    H275707   3.398   3.433  12.816  0.2189 -1.3214 -1.1912
18098TIP3   OH275708   3.695   5.807  16.970 -0.1774 -0.3412  0.1245
18098TIP3    H175709   3.661   5.729  16.927 -0.9032 -0.3015  0.6224
18098TIP3    H275710   3.757   5.774  17.035  2.2966 -0.3501 -2.0606
18099TIP3   OH275711   1.804   3.418   2.160 -0.2685 -0.3297  0.2660
18099TIP3    H175712   1.825   3.493   2.217 -1.4041 -0.8400  1.4102
18099TIP3    H275713   1.870   3.421   2.091  0.5505  0.9124  1.0593
18100TIP3   OH275714   2.773   0.980  13.037  0.1674  0.1993  0.5414
18100TIP3    H175715   2.684   1.014  13.045 -0.0993 -0.5068  0.6670
18100TIP3    H275716   2.824   1.031  13.100  0.0824  1.3287 -0.2643
18101TIP3   OH275717   2.169   0.980  12.108  0.2314  0.1050  0.1271
18101TIP3    H175718   2.108   0.975  12.181  0.6150  1.4448  0.5714
18101TIP3    H275719   2.153   1.066  12.069  1.0817  0.0295 -0.4190
18102TIP3   OH275720   5.416   2.676   5.249  0.2865  0.3351  0.5320
18102TIP3    H175721   5.379   2.726   5.321  0.0428 -0.3297  0.8795
18102TIP3    H275722   5.470   2.609   5.291  2.2366  1.5265  0.0258
18103TIP3   OH275723   0.230   4.480  14.823 -0.1470  0.4108  0.2579
18103TIP3    H175724   0.227   4.417  14.895  0.0621  0.2234  0.1029
18103TIP3    H275725   0.139   4.508  14.812 -0.4482 -0.7484 -0.4378
18104TIP3   OH275726   2.361   5.094  13.189 -0.6311  0.3611 -0.0051
18104TIP3    H175727   2.320   5.030  13.248 -0.6907  0.2765 -0.1384
18104TIP3    H275728   2.294   5.113  13.124 -0.4485  0.1935 -0.2465
18105TIP3   OH275729   1.394   4.933   3.128 -0.3839 -0.5316  0.3683
18105TIP3    H175730   1.468   4.992   3.138 -1.2191  1.2408 -2.6383
18105TIP3    H275731   1.355   4.928   3.215  2.0650  0.0950  1.5684
18106TIP3   OH275732   5.399   3.351  13.634 -0.0793  0.0274  0.2031
18106TIP3    H175733   5.333   3.332  13.568 -0.0077 -1.0059  0.4152
18106TIP3    H275734   5.356   3.410  13.696 -0.2171  0.8267 -0.6352
18107TIP3   OH275735   1.285   6.221   1.122 -1.0458 -1.0266  0.4654
18107TIP3    H175736   1.336   6.294   1.087 -1.7806  1.4929  4.0815
18107TIP3    H275737   1.334   6.192   1.198 -1.6571 -3.2315  0.0761
18108TIP3   OH275738   2.279   0.619   2.160  0.4445  0.4220  0.6512
18108TIP3    H175739   2.200   0.665   2.186  0.3582 -0.3404  1.8275
18108TIP3    H275740   2.292   0.641   2.068 -2.0004 -0.6713 -0.0194
18109TIP3   OH275741   3.734   4.688   4.914  0.4333 -0.9004  0.3360
18109TIP3    H175742   3.720   4.686   5.008  0.9288 -0.3728  0.4290
18109TIP3    H275743   3.647   4.683   4.876  0.0170  1.1665  0.8694
18110TIP3   OH275744   2.034   1.002   2.555  0.4069 -0.2283  0.2350
18110TIP3    H175745   2.050   1.084   2.510  1.6624 -0.6922 -0.1963
18110TIP3    H275746   1.947   0.975   2.525  0.3381  0.5205 -0.2599
18111TIP3   OH275747   2.094   3.122   2.937 -0.3858 -0.1478 -0.0175
18111TIP3    H175748   2.099   3.185   3.008  1.3730  0.9661 -1.0507
18111TIP3    H275749   2.001   3.114   2.918 -0.7820  0.5618  1.4862
18112TIP3   OH275750   4.384   1.808  15.925 -0.3407  0.7918  0.6599
18112TIP3    H175751   4.390   1.867  15.849  3.5457  0.4627  0.5407
18112TIP3    H275752   4.453   1.837  15.984 -0.6811 -1.4282  2.2813
18113TIP3   OH275753   0.879   2.275   0.140 -0.1134  0.4864 -0.0024
18113TIP3    H175754   0.894   2.301   0.049 -0.2404 -2.3437 -0.9041
18113TIP3    H275755   0.792   2.234   0.139  0.1113 -0.0515  1.2966
18114TIP3   OH275756   4.894   5.648   4.151 -0.4179 -0.0879 -0.2589
18114TIP3    H175757   4.873   5.718   4.089 -1.2008  0.5854  0.7345
18114TIP3    H275758   4.979   5.673   4.188 -0.1708 -0.2476 -0.7171
18115TIP3   OH275759   5.006   3.954  13.137  0.6341 -0.0024  0.3351
18115TIP3    H175760   5.005   3.881  13.199  2.7016  0.9668  1.6052
18115TIP3    H275761   4.992   3.913  13.051 -0.1409 -1.6235  1.1898
18116TIP3   OH275762   0.919   4.278   5.961  0.1514 -0.2840  0.0262
18116TIP3    H175763   0.883   4.284   6.050  1.2094 -0.2137  0.4633
18116TIP3    H275764   1.010   4.306   5.970  0.7682 -1.9147 -0.7603
18117TIP3   OH275765   1.388   5.342   0.455  0.1943 -0.0312  0.3371
18117TIP3    H175766   1.365   5.383   0.538  1.2814  0.1631  0.5603
18117TIP3    H275767   1.321   5.275   0.442  0.3924 -0.5230  1.7145
18118TIP3   OH275768   3.283   3.821   5.024 -0.2966  0.1129  0.5782
18118TIP3    H175769   3.230   3.899   5.039 -1.5987 -0.1382 -2.1163
18118TIP3    H275770   3.371   3.854   5.006 -0.5176  0.8660  0.8463
18119TIP3   OH275771   0.900   2.159  10.877  0.4405  0.1773 -0.3231
18119TIP3    H175772   0.834   2.217  10.915 -0.0582 -0.6608  0.1319
18119TIP3    H275773   0.984   2.196  10.907  0.1419  0.7225 -0.1390
18120TIP3   OH275774   4.863   3.045  11.315 -0.5464  0.3142 -0.2340
18120TIP3    H175775   4.935   3.103  11.338  1.2401 -1.2389 -1.5926
18120TIP3    H275776   4.862   3.045  11.219 -1.0623 -1.2189 -0.2620
18121TIP3   OH275777   2.059   1.509  14.882  0.2476 -0.6852  0.7513
18121TIP3    H175778   2.142   1.472  14.852  0.3131  0.5896 -0.8091
18121TIP3    H275779   2.005   1.512  14.802 -1.3530 -1.5710  1.7431
18122TIP3   OH275780   4.446   6.339  13.817 -0.8344 -0.2161 -0.2466
18122TIP3    H175781   4.366   6.315  13.770  0.6012 -0.5890 -2.6980
18122TIP3    H275782   4.442   6.435  13.824 -0.8808 -0.0971 -1.6358
18123TIP3   OH275783   0.432   4.400  11.418 -0.3140  0.5792  0.2342
18123TIP3    H175784   0.456   4.406  11.511  1.6287 -0.1189 -0.1738
18123TIP3    H275785   0.394   4.313  11.408  1.4630 -0.2151  0.0123
18124TIP3   OH275786   2.749   0.428  11.787 -0.4893 -0.2335  0.2195
18124TIP3    H175787   2.682   0.428  11.855 -0.4286 -0.9307  0.2893
18124TIP3    H275788   2.752   0.518  11.756 -1.3344 -0.1561  0.3404
18125TIP3   OH275789   5.352   2.935  12.750 -0.6230  0.3976  0.2706
18125TIP3    H175790   5.414   2.863  12.763  0.2656  1.1052  0.0800
18125TIP3    H275791   5.295   2.906  12.679  0.7146  0.4917 -0.8931
18126TIP3   OH275792   4.085   4.985   5.124 -0.2687  0.0843  0.4208
18126TIP3    H175793   4.052   4.961   5.038 -0.7782  0.9844  0.3527
18126TIP3    H275794   4.099   5.080   5.119  1.0544 -0.0593  0.8805
18127TIP3   OH275795   6.433   5.183  12.023 -0.5992 -0.2440 -0.2607
18127TIP3    H175796   6.354   5.202  11.973 -0.5035 -0.4781 -0.5090
18127TIP3    H275797   6.483   5.264  12.021 -0.8384 -0.0937 -0.0934
18128TIP3   OH275798   6.304   2.630   3.173  0.2778  0.3391 -0.3298
18128TIP3    H175799   6.374   2.659   3.114  0.8009  1.5980  0.8411
18128TIP3    H275800   6.339   2.647   3.261 -1.0355 -0.1640  0.3137
18129TIP3   OH275801   1.618   4.167   5.658  0.3787  0.0476 -0.0746
18129TIP3    H175802   1.613   4.081   5.614  1.9041 -0.4108  0.5788
18129TIP3    H275803   1.689   4.213   5.613  0.0786  0.6727  0.0823
18130TIP3   OH275804   2.384   5.491   5.861 -0.0455  0.4087  0.2208
18130TIP3    H175805   2.368   5.563   5.801  0.4718 -0.0287 -0.4465
18130TIP3    H275806   2.425   5.532   5.937 -1.7653  1.1429  0.8118
18131TIP3   OH275807   0.664   0.095  11.878  0.0657 -0.4306 -0.0644
18131TIP3    H175808   0.627   0.014  11.842  1.1677 -0.0719 -2.2191
18131TIP3    H275809   0.598   0.162  11.859  1.0770 -0.0403 -2.6492
18132TIP3   OH275810   6.330   3.046   0.236 -0.2419 -0.4928  0.3845
18132TIP3    H175811   6.328   3.081   0.325 -0.2001 -1.0609  0.6105
18132TIP3    H275812   6.419   3.063   0.206 -0.7528  1.3378 -0.2212
18133TIP3   OH275813   4.314   1.890  16.389  0.6879 -0.3779  0.3723
18133TIP3    H175814   4.253   1.818  16.371  1.3064 -0.5256 -1.3363
18133TIP3    H275815   4.363   1.861  16.466 -0.2900 -0.9723  0.7952
18134TIP3   OH275816   0.156   4.515  15.819  0.5868  0.1716  0.0868
18134TIP3    H175817   0.171   4.609  15.831 -0.0577  0.2697  0.1915
18134TIP3    H275818   0.080   4.496  15.874 -1.6991  0.3921 -2.7458
18135TIP3   OH275819   5.399   1.533   0.360  0.0705  0.3129  0.2353
18135TIP3    H175820   5.340   1.467   0.323 -0.3987  0.6171  0.4360
18135TIP3    H275821   5.341   1.602   0.391  0.2972 -0.6809  3.1166
18136TIP3   OH275822   5.284   3.212  16.321 -0.4891 -0.3233 -0.6263
18136TIP3    H175823   5.333   3.294  16.310 -1.0665  0.1884  0.3877
18136TIP3    H275824   5.287   3.195  16.415  0.0645 -1.7748 -0.8771
18137TIP3   OH275825   3.209   4.620   4.302  0.1117  0.0245 -0.9247
18137TIP3    H175826   3.143   4.682   4.333 -0.3320  0.8569 -3.2949
18137TIP3    H275827   3.198   4.543   4.357 -0.2029  1.5286  1.2612
18138TIP3   OH275828   0.208   4.182   4.837 -0.2336 -0.5720 -0.2824
18138TIP3    H175829   0.117   4.171   4.864 -0.3078 -3.7305 -1.4041
18138TIP3    H275830   0.256   4.196   4.919 -1.6716  1.3928  0.3046
18139TIP3   OH275831   2.856   2.009   3.677 -0.5212  0.1257  0.3077
18139TIP3    H175832   2.915   2.081   3.653  2.9650 -2.5271  0.2288
18139TIP3    H275833   2.869   1.998   3.771 -0.3348 -0.9143  0.1738
18140TIP3   OH275834   5.559   4.178  15.956  0.1277  0.2014 -0.4927
18140TIP3    H175835   5.633   4.232  15.931  0.1659 -0.3274 -1.5477
18140TIP3    H275836   5.592   4.124  16.028  0.9192 -0.3701 -1.2636
18141TIP3   OH275837   6.282   3.046   4.061 -0.3554 -0.5137 -0.3325
18141TIP3    H175838   6.265   3.053   4.155 -1.5559  0.0339 -0.5613
18141TIP3    H275839   6.377   3.041   4.053 -0.2648 -1.0043  0.9290
18142TIP3   OH275840   0.048   6.606   2.722  0.5132 -0.6075 -0.3781
18142TIP3    H175841   0.095   6.535   2.766  0.2456 -0.0092  0.9224
18142TIP3    H275842   0.116   6.671   2.703  0.5739 -0.7188 -0.5449
18143TIP3   OH275843   0.463   1.817  15.689  0.6054  0.2518  0.0403
18143TIP3    H175844   0.415   1.795  15.609 -0.9580  0.4484  0.8836
18143TIP3    H275845   0.417   1.769  15.758  1.3166  0.8643  0.9612
18144TIP3   OH275846   2.432   4.329   1.712 -0.0324  0.0346 -0.3896
18144TIP3    H175847   2.475   4.245   1.694 -0.2259 -0.0801 -0.3182
18144TIP3    H275848   2.344   4.319   1.675 -0.1885  0.0608 -0.0242
18145TIP3   OH275849   5.366   4.531  11.813 -0.5204 -0.1571  0.2078
18145TIP3    H175850   5.286   4.561  11.856  0.3564  1.5301  0.7556
18145TIP3    H275851   5.348   4.538  11.720 -0.8776  0.6083  0.3309
18146TIP3   OH275852   5.236   1.427  13.536 -0.3802 -0.3103  0.6388
18146TIP3    H175853   5.289   1.348  13.548  3.4870  1.7248 -1.3124
18146TIP3    H275854   5.176   1.404  13.465 -0.0552 -1.8173  0.8198
18147TIP3   OH275855   0.934   2.154   0.610  0.1648  0.1384 -0.2778
18147TIP3    H175856   0.943   2.141   0.516  0.1385  0.6069 -0.3510
18147TIP3    H275857   0.862   2.217   0.619 -0.2158 -0.3353  0.0847
18148TIP3   OH275858   4.520   2.654  15.686 -0.4845 -0.5322  0.3150
18148TIP3    H175859   4.466   2.733  15.683 -1.0848 -0.9389  0.2294
18148TIP3    H275860   4.472   2.594  15.742 -0.5887 -1.2417 -0.5160
18149TIP3   OH275861   2.794   0.617  14.131 -0.4378  0.3279  0.1941
18149TIP3    H175862   2.730   0.548  14.150  0.8343 -0.9101  0.1950
18149TIP3    H275863   2.796   0.670  14.211  0.3402 -1.1291  1.1850
18150TIP3   OH275864   2.403   3.797  13.474 -0.0137 -0.2634 -0.0835
18150TIP3    H175865   2.464   3.750  13.418  1.8962  0.3349  1.4021
18150TIP3    H275866   2.372   3.870  13.419  1.6351  0.1889 -0.4892
18151TIP3   OH275867   0.085   4.640  12.349 -0.1023  0.7896 -0.2300
18151TIP3    H175868   0.065   4.643  12.255 -0.2505 -0.4177 -0.2546
18151TIP3    H275869   0.002   4.657  12.392 -0.1765  0.6595 -0.3217
18152TIP3   OH275870   2.240   4.710   0.452  0.4382  0.2939 -0.1241
18152TIP3    H175871   2.156   4.689   0.493 -0.4889  1.4900 -1.3217
18152TIP3    H275872   2.282   4.625   0.437 -1.4866 -0.4886 -1.4103
18153TIP3   OH275873   4.021   3.561   1.861  0.5294 -0.0159 -0.0156
18153TIP3    H175874   4.073   3.487   1.892 -0.1043  0.3131  2.0052
18153TIP3    H275875   3.981   3.531   1.780  2.9768 -0.6543 -1.0628
18154TIP3   OH275876   2.542   4.344   0.077  0.2164  0.1204 -0.5234
18154TIP3    H175877   2.520   4.261   0.033  0.9769 -1.3554  1.6862
18154TIP3    H275878   2.637   4.343   0.084  0.3710  1.9816 -1.8276
18155TIP3   OH275879   0.964   5.463  13.182  0.0748  0.1440 -0.0188
18155TIP3    H175880   0.977   5.396  13.115  1.6982  1.1080 -0.7326
18155TIP3    H275881   0.923   5.536  13.134  1.8113  1.0739 -0.1595
18156TIP3   OH275882   5.158   0.623   4.321  0.2704 -0.1713  0.1494
18156TIP3    H175883   5.185   0.634   4.412 -1.2203 -0.4859  0.6711
18156TIP3    H275884   5.222   0.563   4.283  0.5029 -0.6202  1.2142
18157TIP3   OH275885   5.450   2.227   2.880 -0.4714 -0.1026 -0.6391
18157TIP3    H175886   5.366   2.228   2.835 -0.2968 -0.6520 -0.9856
18157TIP3    H275887   5.510   2.271   2.820 -0.8208  1.6942  0.2657
18158TIP3   OH275888   5.995   2.027   5.628 -0.2254  0.0894 -0.5844
18158TIP3    H175889   5.915   2.075   5.609 -0.4538 -0.6389 -1.5606
18158TIP3    H275890   6.022   2.058   5.715  1.3191  4.2094 -2.3107
18159TIP3   OH275891   4.552   0.027   0.417 -0.4143 -0.2173 -0.0756
18159TIP3    H175892   4.558   0.121   0.399  0.8889 -0.0137  1.2192
18159TIP3    H275893   4.613  -0.012   0.354 -0.8575 -0.2007 -0.5257
18160TIP3   OH275894   2.851   5.557   1.205 -0.2641  0.5884 -0.3189
18160TIP3    H175895   2.941   5.538   1.229 -0.3197 -0.6236 -0.9689
18160TIP3    H275896   2.823   5.480   1.155 -0.6327  2.2535 -2.8913
18161TIP3   OH275897   3.200   5.563  16.094  0.5116 -0.0341 -0.1010
18161TIP3    H175898   3.201   5.580  16.188 -0.9269  0.5116 -0.1558
18161TIP3    H275899   3.119   5.605  16.063  0.9476 -0.2270 -1.5734
18162TIP3   OH275900   4.212   4.071   4.575 -0.1248 -0.2700 -0.0225
18162TIP3    H175901   4.293   4.020   4.569 -1.0227 -1.9158  1.0829
18162TIP3    H275902   4.184   4.060   4.666 -1.3804  0.6026 -0.2921
18163TIP3   OH275903   0.949   4.888  16.245  0.0424  0.0351  0.4150
18163TIP3    H175904   0.878   4.947  16.272  0.2651  0.7411 -0.5101
18163TIP3    H275905   0.936   4.876  16.151  1.1806  0.1999  0.2269
18164TIP3   OH275906   5.397   0.129   4.896 -0.1079 -0.4299 -0.0828
18164TIP3    H175907   5.369   0.217   4.871 -0.4650 -0.5027  0.0592
18164TIP3    H275908   5.328   0.071   4.863 -1.4933 -0.3992  2.5419
18165TIP3   OH275909   4.649   0.263  12.782 -0.1365 -0.2610 -0.8271
18165TIP3    H175910   4.668   0.299  12.696 -1.4747  1.5724 -0.4438
18165TIP3    H275911   4.690   0.324  12.843 -0.3207 -0.7903 -0.1560
18166TIP3   OH275912   5.699   2.454   0.110 -0.8306 -0.1486 -0.3453
18166TIP3    H175913   5.615   2.496   0.094 -0.9905 -0.0911  0.6142
18166TIP3    H275914   5.678   2.361   0.121 -0.5917 -0.3580 -1.5028
18167TIP3   OH275915   2.465   2.763  12.765 -0.7761 -0.1756 -0.3570
18167TIP3    H175916   2.395   2.826  12.749  0.0366  0.9472  0.3831
18167TIP3    H275917   2.477   2.719  12.680 -1.2877  0.7272 -0.9169
18168TIP3   OH275918   6.383   4.595   6.642  0.1970  0.3956 -0.5337
18168TIP3    H175919   6.444   4.665   6.667  0.6904 -0.6746  1.4203
18168TIP3    H275920   6.377   4.539   6.719  0.9409 -2.5688 -2.4383
18169TIP3   OH275921   0.308   1.812  14.947  0.5158  0.2071  0.3822
18169TIP3    H175922   0.268   1.863  14.876 -0.1177 -0.5394  0.1937
18169TIP3    H275923   0.397   1.846  14.952  0.1543  1.2436  0.1740
18170TIP3   OH275924   6.658   5.516   4.866 -0.3200  0.2761 -0.0209
18170TIP3    H175925   6.737   5.557   4.830 -0.2027  0.3008  0.2671
18170TIP3    H275926   6.604   5.589   4.895  0.3913  0.1987  1.5609
18171TIP3   OH275927   6.670   4.881  14.322  0.2689  0.5773 -0.1446
18171TIP3    H175928   6.754   4.923  14.340  1.2349 -1.5801  0.7662
18171TIP3    H275929   6.658   4.889  14.227  2.9874 -1.5103 -0.8011
18172TIP3   OH275930   4.885   5.733   5.265 -0.7564 -0.6230 -0.3468
18172TIP3    H175931   4.824   5.744   5.193 -0.2376 -0.2452 -0.7353
18172TIP3    H275932   4.967   5.706   5.223 -0.5170 -0.6384  0.1216
18173TIP3   OH275933   3.910   3.566  15.724 -0.1669  0.0718 -0.0742
18173TIP3    H175934   3.987   3.510  15.708 -0.0786  0.4047 -0.8456
18173TIP3    H275935   3.946   3.655  15.725 -0.7111  0.3393 -1.7367
18174TIP3   OH275936   5.051   5.770   0.406 -0.4907 -0.5841 -0.2044
18174TIP3    H175937   5.109   5.783   0.331 -0.9182 -0.9564 -0.6057
18174TIP3    H275938   4.967   5.804   0.377 -0.2676  0.8019  0.7007
18175TIP3   OH275939   0.413   3.341   3.058  0.9523  0.2445 -0.0181
18175TIP3    H175940   0.412   3.421   3.006  0.4617  0.3929  0.2160
18175TIP3    H275941   0.506   3.319   3.065  0.9932 -0.2795 -1.6979
18176TIP3   OH275942   1.289   5.712  15.868  0.0106 -0.6839 -0.3163
18176TIP3    H175943   1.382   5.692  15.873  0.1442 -0.1052 -0.3541
18176TIP3    H275944   1.266   5.702  15.776 -0.0710 -1.2717 -0.2331
18177TIP3   OH275945   2.343   1.837  11.031 -0.4496 -0.7590 -0.0008
18177TIP3    H175946   2.278   1.775  10.998 -1.0953  0.4688 -1.1512
18177TIP3    H275947   2.428   1.798  11.008 -0.6866 -2.5936  1.9164
18178TIP3   OH275948   0.657   5.503   5.197 -0.2719 -0.4712 -0.4415
18178TIP3    H175949   0.708   5.555   5.134 -0.9178 -0.7684 -1.2303
18178TIP3    H275950   0.600   5.567   5.240  0.3188 -0.2336  0.0133
18179TIP3   OH275951   5.736   6.608   3.164  0.1917 -0.1314 -0.3459
18179TIP3    H175952   5.827   6.583   3.146  0.9650  2.5338 -0.5085
18179TIP3    H275953   5.744   6.680   3.227 -1.8185  0.3000 -0.5429
18180TIP3   OH275954   2.665   2.863   1.563 -0.3071  0.1410  0.0122
18180TIP3    H175955   2.701   2.783   1.524  1.1731  0.4974  0.5790
18180TIP3    H275956   2.737   2.926   1.559 -1.0625  1.0791  0.6932
18181TIP3   OH275957   2.798   1.090  13.560 -0.3430  0.8285 -0.6087
18181TIP3    H175958   2.795   1.095  13.655  0.1801  1.4054 -0.6146
18181TIP3    H275959   2.886   1.060  13.540 -0.4835  0.6100 -0.9091
18182TIP3   OH275960   5.771   5.366   3.396  0.1974  0.2005  0.0747
18182TIP3    H175961   5.814   5.308   3.459 -0.8701 -0.8754 -0.1480
18182TIP3    H275962   5.777   5.321   3.312  1.3960  1.5184 -0.5922
18183TIP3   OH275963   6.601   4.603   1.761 -0.0921  0.3427 -0.2533
18183TIP3    H175964   6.639   4.673   1.813 -0.9018  0.2953  0.4345
18183TIP3    H275965   6.555   4.548   1.825 -0.3401 -0.2302 -0.9057
18184TIP3   OH275966   5.634   0.626   1.897 -0.4805  0.6187  0.0359
18184TIP3    H175967   5.638   0.637   1.992 -0.8329  1.1601 -0.0059
18184TIP3    H275968   5.726   0.623   1.870 -0.3621 -0.7599  0.5143
18185TIP3   OH275969   3.585   5.640  12.520 -0.5179  0.4353 -0.4493
18185TIP3    H175970   3.624   5.726  12.537  0.4853  0.0426 -0.7216
18185TIP3    H275971   3.514   5.633  12.584  0.4585  0.7773  0.7234
18186TIP3   OH275972   0.240   4.180   4.529 -0.7515 -0.1645  0.2217
18186TIP3    H175973   0.252   4.203   4.621 -0.8548 -0.2880  0.2654
18186TIP3    H275974   0.154   4.139   4.525  0.0857 -2.0390  0.4335
18187TIP3   OH275975   5.347   6.639   3.320 -0.1000  0.4420 -0.3575
18187TIP3    H175976   5.411   6.676   3.381  1.2763 -0.4610 -1.2067
18187TIP3    H275977   5.397   6.576   3.268 -1.9286 -1.1244 -0.3096
18188TIP3   OH275978   0.366   0.113   3.144  0.2900 -0.1623  0.5569
18188TIP3    H175979   0.431   0.178   3.117  0.1335  0.1098  0.8180
18188TIP3    H275980   0.347   0.135   3.236  0.3963 -0.7115  0.7143
18189TIP3   OH275981   5.305   6.562  12.098  0.2340 -0.6701  0.3373
18189TIP3    H175982   5.299   6.499  12.169  2.5677  0.2479  1.4519
18189TIP3    H275983   5.284   6.511  12.019  0.7463 -2.5130  1.3277
18190TIP3   OH275984   2.564   6.546   3.302  0.1560 -0.4207  0.1035
18190TIP3    H175985   2.494   6.499   3.257  0.7828 -0.2025 -1.1259
18190TIP3    H275986   2.615   6.476   3.343  1.7647 -1.0312 -2.6727
18191TIP3   OH275987   4.724   6.587   2.897 -0.0041 -0.2814  0.0660
18191TIP3    H175988   4.785   6.627   2.959  2.3522 -2.1185 -0.9091
18191TIP3    H275989   4.727   6.644   2.820 -0.2084  0.0998  0.3376
18192TIP3   OH275990   3.407   6.491   5.277 -0.0068 -0.0282  0.2199
18192TIP3    H175991   3.484   6.527   5.322  0.3088  0.3173 -0.5766
18192TIP3    H275992   3.357   6.569   5.250  0.4666 -0.1621 -1.1471
18193TIP3   OH275993   2.092   6.440  13.704 -0.0660 -0.0653 -0.2208
18193TIP3    H175994   2.010   6.397  13.680 -1.3490  1.7801  0.6485
18193TIP3    H275995   2.065   6.524  13.742  2.2485  0.7955 -0.3322
18194TIP3   OH275996   6.416   2.472  12.394  0.4300  0.7765  0.2035
18194TIP3    H175997   6.411   2.565  12.415  1.0603  0.6372  1.0171
18194TIP3    H275998   6.325   2.442  12.398  0.2329  1.3395  0.0262
18195TIP3   OH275999   4.324   5.925   2.306 -0.3902  0.3681  0.0023
18195TIP3    H176000   4.352   5.949   2.394  0.3680 -2.7657  0.7247
18195TIP3    H276001   4.235   5.958   2.299 -0.5634  0.4490  2.0616
18196TIP3   OH276002   2.034   4.644   4.542 -0.1254  0.3020 -0.4734
18196TIP3    H176003   1.944   4.616   4.528 -0.3590  0.0910  1.2290
18196TIP3    H276004   2.029   4.739   4.549 -0.3346  0.2512  0.2023
18197TIP3   OH276005   6.746   6.250  11.371 -0.2422 -0.8117  0.5954
18197TIP3    H176006   6.805   6.284  11.305 -0.0127  1.4587  1.8534
18197TIP3    H276007   6.800   6.190  11.424  0.2418 -0.6957  0.2351
18198TIP3   OH276008   4.013   4.215   3.731  0.0492  0.4717  0.3975
18198TIP3    H176009   3.955   4.139   3.722  0.1467  0.4802 -0.3162
18198TIP3    H276010   3.954   4.290   3.724 -0.3332  0.4947  2.9118
18199TIP3   OH276011   0.379   0.301   2.722  0.5475 -0.3009 -0.2455
18199TIP3    H176012   0.347   0.391   2.729  0.6932 -0.3422  1.2321
18199TIP3    H276013   0.309   0.248   2.759  0.9895 -0.6824  0.0541
18200TIP3   OH276014   5.655   3.677  13.784  0.2878  0.1489  0.3336
18200TIP3    H176015   5.674   3.592  13.743 -2.1125 -1.0345  1.4946
18200TIP3    H276016   5.742   3.712  13.807  1.3483 -2.0320 -0.0760
18201TIP3   OH276017   0.562   6.700  10.952  0.0333 -0.2487  0.4174
18201TIP3    H176018   0.584   6.699  10.859 -1.8248  0.6789 -0.0935
18201TIP3    H276019   0.523   6.614  10.968 -2.4484  0.6166 -0.4869
18202TIP3   OH276020   2.953   3.124   4.906 -0.3228  0.0927 -0.1197
18202TIP3    H176021   2.872   3.166   4.935  0.4941  1.1079  0.7850
18202TIP3    H276022   3.002   3.108   4.987  0.3213 -0.6418 -0.6441
18203TIP3   OH276023   1.790   3.622   4.722 -0.1298  0.3757 -0.2736
18203TIP3    H176024   1.884   3.614   4.740  0.6330  1.9451 -2.9917
18203TIP3    H276025   1.748   3.595   4.803  2.7111  1.8467  1.8799
18204TIP3   OH276026   4.189   0.575  11.903  0.2508 -0.2968 -0.6349
18204TIP3    H176027   4.260   0.526  11.862  0.6033  0.1254 -0.5300
18204TIP3    H276028   4.147   0.622  11.830  0.7697  0.3182 -0.5413
18205TIP3   OH276029   4.150   5.936  13.497 -0.0559 -0.0522 -0.1360
18205TIP3    H176030   4.071   5.983  13.470 -0.8927 -1.3202  0.0129
18205TIP3    H276031   4.134   5.913  13.589  1.9888  2.6593  1.0115
18206TIP3   OH276032   4.717   3.330  16.722  0.3044 -0.4930  0.2743
18206TIP3    H176033   4.709   3.334  16.818  0.2043 -0.2358  0.2543
18206TIP3    H276034   4.669   3.251  16.698 -3.1297  1.4654  0.0530
18207TIP3   OH276035   2.112   0.143  11.098  0.1194  0.0794  0.2939
18207TIP3    H176036   2.178   0.082  11.064 -0.9754 -1.5616  1.0050
18207TIP3    H276037   2.050   0.153  11.025  1.0537  1.5830 -0.3571
18208TIP3   OH276038   5.213   5.739  12.909 -0.1507  0.4589  0.1639
18208TIP3    H176039   5.150   5.806  12.935 -1.7660 -0.5474 -1.0141
18208TIP3    H276040   5.260   5.778  12.835 -0.0677  0.8292  0.4073
18209TIP3   OH276041   1.229   5.300  12.278  0.4310 -0.3137  0.4054
18209TIP3    H176042   1.234   5.292  12.183  0.6984 -0.5414  0.4373
18209TIP3    H276043   1.311   5.260  12.309  1.4227  1.7702  0.6129
18210TIP3   OH276044   0.649   1.503  16.373  0.2355 -0.4245 -0.9645
18210TIP3    H176045   0.665   1.453  16.293 -0.1032 -1.6434 -0.2962
18210TIP3    H276046   0.593   1.446  16.426  1.0813  0.0151  0.4626
18211TIP3   OH276047   3.675   0.351  10.782  0.5437 -0.1664  0.2572
18211TIP3    H176048   3.630   0.403  10.714  1.0273 -0.4105 -0.2523
18211TIP3    H276049   3.719   0.417  10.836  0.8353 -0.0133 -0.1573
18212TIP3   OH276050   3.073   4.049   3.662  0.1425 -0.0824 -0.2081
18212TIP3    H176051   3.113   3.966   3.636  0.4589 -0.3576  1.0910
18212TIP3    H276052   3.126   4.080   3.735 -2.5394 -0.9782  2.2920
18213TIP3   OH276053   4.853   3.376  13.553  0.2334  0.7327 -0.4287
18213TIP3    H176054   4.783   3.398  13.614 -0.0057  2.0127 -1.1149
18213TIP3    H276055   4.911   3.452  13.555  1.3356 -0.0917 -0.2639
18214TIP3   OH276056   3.101   5.048  12.874  0.1450 -0.2370 -0.2339
18214TIP3    H176057   3.140   5.135  12.884  0.4612 -0.5057  1.0928
18214TIP3    H276058   3.010   5.059  12.899 -0.0685 -0.0863 -1.0612
18215TIP3   OH276059   0.458   2.003   6.443  0.2863  0.2686 -0.3316
18215TIP3    H176060   0.418   2.038   6.364  1.6282  0.0666 -1.1296
18215TIP3    H276061   0.385   1.988   6.503 -0.7684  0.2788 -1.5886
18216TIP3   OH276062   0.821   5.924  11.180  0.1747 -0.3840  0.4766
18216TIP3    H176063   0.762   5.894  11.111  0.2051  0.8405 -0.1222
18216TIP3    H276064   0.890   5.970  11.133  0.9509 -0.7307  1.2527
18217TIP3   OH276065   0.357   5.557  15.961 -0.1750 -0.1315  0.3304
18217TIP3    H176066   0.300   5.587  16.032 -2.2347  0.6233 -1.5498
18217TIP3    H276067   0.430   5.620  15.960 -0.5720  0.3556  1.2049
18218TIP3   OH276068   2.790   5.694   0.892 -0.4970 -1.1722 -0.0186
18218TIP3    H176069   2.886   5.684   0.895 -0.2743 -0.2895 -2.2256
18218TIP3    H276070   2.766   5.721   0.981  1.2405 -1.8589  0.7026
18219TIP3   OH276071   4.160   0.650   6.051 -0.3639  0.3317  0.0444
18219TIP3    H176072   4.240   0.598   6.053 -0.9453 -0.5854  1.0090
18219TIP3    H276073   4.189   0.740   6.063  0.5378  0.0462  0.0921
18220TIP3   OH276074   4.392   1.967  15.688 -0.2290  0.1745 -0.4500
18220TIP3    H176075   4.484   1.952  15.665  0.2430  0.8828  0.8511
18220TIP3    H276076   4.357   2.017  15.614  0.4209 -0.1127 -0.9664
18221TIP3   OH276077   1.799   2.812  13.778 -0.0562  0.5230 -0.4422
18221TIP3    H176078   1.831   2.737  13.828 -0.6292  0.4950 -0.1050
18221TIP3    H276079   1.828   2.888  13.828 -1.7583  0.4836  0.6916
18222TIP3   OH276080   3.540   0.443   0.258 -0.5201  0.2353 -0.1932
18222TIP3    H176081   3.631   0.434   0.228 -0.0017  0.4835  1.2237
18222TIP3    H276082   3.488   0.405   0.187  0.5418  1.7526 -1.8898
18223TIP3   OH276083   2.949   0.253  11.822 -0.0726  0.6658  0.1223
18223TIP3    H176084   2.954   0.200  11.742  3.3496  2.5308 -1.1047
18223TIP3    H276085   2.892   0.326  11.798  1.5647  1.6454 -1.0373
18224TIP3   OH276086   6.737   0.343   1.572  0.1716  0.2625  0.2424
18224TIP3    H176087   6.730   0.248   1.585 -1.3320  0.5124  1.4617
18224TIP3    H276088   6.758   0.352   1.479  2.1916 -1.2923  0.4549
18225TIP3   OH276089   5.057   5.386  12.039  0.1114 -0.1130 -0.4246
18225TIP3    H176090   5.047   5.368  11.946  0.7107 -1.4751 -0.2540
18225TIP3    H276091   5.149   5.412  12.049  0.5405 -1.6798  0.0008
18226TIP3   OH276092   3.898   6.139  16.946  0.3680 -0.1381  0.0417
18226TIP3    H176093   3.813   6.160  16.983  0.5080 -1.7768  1.4056
18226TIP3    H276094   3.927   6.062  16.994  2.6946  0.4498 -0.2923
18227TIP3   OH276095   4.980   4.932  11.858 -0.2265 -0.1722 -0.2607
18227TIP3    H176096   5.059   4.973  11.894 -0.0508 -1.2143  0.5948
18227TIP3    H276097   4.934   4.898  11.935 -2.0114  1.2137 -0.6422
18228TIP3   OH276098   2.836   5.737  11.506  0.1711 -0.2335 -0.2038
18228TIP3    H176099   2.817   5.739  11.412  2.4568  0.6093 -0.7080
18228TIP3    H276100   2.891   5.660  11.518  1.1587  0.4882  0.1221
18229TIP3   OH276101   4.928   3.899  10.389 -0.3676  0.1660 -0.6390
18229TIP3    H176102   4.860   3.918  10.325 -1.9829 -2.9728 -0.0436
18229TIP3    H276103   4.880   3.881  10.470  1.2386 -0.9533  0.1136
18230TIP3   OH276104   1.305   4.928   6.632  0.1365 -0.5265 -0.3208
18230TIP3    H176105   1.342   4.935   6.543 -0.3787 -1.4925 -0.6254
18230TIP3    H276106   1.378   4.953   6.690  0.3171  0.6755 -1.0160
18231TIP3   OH276107   2.791   3.219   0.558  0.1969 -0.1307  0.0283
18231TIP3    H176108   2.826   3.206   0.470 -0.5230  0.2227 -0.3220
18231TIP3    H276109   2.858   3.184   0.617  0.5335 -0.6829 -0.6753
18232TIP3   OH276110   0.224   3.904   0.878 -0.1367  0.1770 -0.2974
18232TIP3    H176111   0.206   3.847   0.804  0.5863  0.0129 -0.3556
18232TIP3    H276112   0.138   3.921   0.917 -0.2847 -1.7973  0.3550
18233TIP3   OH276113   5.622   4.399  11.769 -0.2079 -0.1310  0.0446
18233TIP3    H176114   5.613   4.403  11.674 -1.1198 -0.6590  0.1022
18233TIP3    H276115   5.544   4.444  11.802  0.0604 -0.0271  0.5471
18234TIP3   OH276116   3.704   1.282   0.892 -0.0884  0.4807 -0.0448
18234TIP3    H176117   3.621   1.248   0.923 -1.2938  1.1922 -2.2739
18234TIP3    H276118   3.755   1.205   0.869 -1.9909 -0.0138 -3.0721
18235TIP3   OH276119   0.629   3.010   5.769 -0.3111 -0.3529  0.3274
18235TIP3    H176120   0.621   3.094   5.814  0.9543  0.6048 -1.1402
18235TIP3    H276121   0.619   2.944   5.838 -1.3666  0.9756  1.4976
18236TIP3   OH276122   3.371   1.207   3.711  0.0670 -0.4477 -0.0801
18236TIP3    H176123   3.388   1.159   3.792  0.6305  0.1664  0.1853
18236TIP3    H276124   3.441   1.180   3.652 -0.2486 -0.7726 -0.3048
18237TIP3   OH276125   3.521   1.267   1.117 -0.3262  0.2503 -0.7443
18237TIP3    H176126   3.450   1.296   1.175 -0.3575  1.4066 -1.3238
18237TIP3    H276127   3.480   1.261   1.031  0.0983  0.1172 -0.9375
18238TIP3   OH276128   5.932   3.157  14.452  0.0212 -0.4565 -0.2349
18238TIP3    H176129   5.931   3.167  14.548  0.9542  0.2935 -0.2883
18238TIP3    H276130   5.840   3.148  14.428 -0.2422 -0.4403  0.7176
18239TIP3   OH276131   4.288   1.742   1.453  0.6127 -0.5912 -0.4765
18239TIP3    H176132   4.309   1.751   1.360  0.1812  0.2118 -0.5042
18239TIP3    H276133   4.206   1.692   1.454 -0.0612  0.4761 -0.6019
18240TIP3   OH276134   4.130   0.099  12.194 -0.1525  0.1083 -0.5231
18240TIP3    H176135   4.093   0.185  12.172 -1.0397  0.4623  2.0294
18240TIP3    H276136   4.225   0.112  12.190 -0.2303  1.7113  1.2639
18241TIP3   OH276137   2.533   5.472  15.628  0.1827 -0.3371 -0.1192
18241TIP3    H176138   2.621   5.486  15.593 -0.4858 -0.9426 -2.2227
18241TIP3    H276139   2.514   5.551  15.677  1.3907  0.3886 -0.7684
18242TIP3   OH276140   1.248   1.619  13.371 -0.3123  0.2728 -0.2712
18242TIP3    H176141   1.306   1.683  13.413 -1.3841  1.7199 -0.8925
18242TIP3    H276142   1.172   1.615  13.429 -1.8781  2.4134 -1.9998
18243TIP3   OH276143   1.750   1.519   6.019 -0.7057 -0.5633  0.0655
18243TIP3    H176144   1.782   1.494   5.932 -2.2072 -0.2257 -0.6142
18243TIP3    H276145   1.735   1.613   6.012  0.6883 -0.2249  1.2231
18244TIP3   OH276146   1.192   6.598  11.393  0.3900 -0.4406 -0.3350
18244TIP3    H176147   1.199   6.534  11.322 -0.1976 -1.1809  0.2679
18244TIP3    H276148   1.204   6.547  11.473  3.9254  0.7754  0.0815
18245TIP3   OH276149   5.898   5.593  13.504 -0.1151  0.5993 -0.4611
18245TIP3    H176150   5.951   5.671  13.489  1.1545 -0.2726 -0.6999
18245TIP3    H276151   5.934   5.554  13.584 -1.3191  0.7087  0.1622
18246TIP3   OH276152   5.430   4.775  12.814  0.1063 -0.2947  0.2602
18246TIP3    H176153   5.469   4.772  12.727  1.3509  1.5823  0.7081
18246TIP3    H276154   5.443   4.865  12.844 -2.4901 -0.2162  1.4288
18247TIP3   OH276155   2.266   0.691  13.728 -0.3571  0.0234  0.0590
18247TIP3    H176156   2.271   0.604  13.688 -1.2749  0.1540 -0.3508
18247TIP3    H276157   2.188   0.731  13.690 -0.5697  0.6085  1.0728
18248TIP3   OH276158   5.766   0.076  16.447  0.6365  0.4143 -0.2976
18248TIP3    H176159   5.698   0.025  16.403  0.9039  0.7410 -1.1157
18248TIP3    H276160   5.803   0.131  16.378  0.1281  1.9788  0.6021
18249TIP3   OH276161   3.767   6.325   5.476 -0.1889 -0.1904 -0.7019
18249TIP3    H176162   3.824   6.402   5.472  0.7191 -0.8562 -1.0106
18249TIP3    H276163   3.820   6.258   5.519 -1.5862 -0.1574  1.1763
18250TIP3   OH276164   5.244   2.753   0.208 -0.1354 -0.1309  0.6204
18250TIP3    H176165   5.239   2.749   0.303 -1.8752 -0.4904  0.5452
18250TIP3    H276166   5.264   2.845   0.189 -0.6645  0.1378  1.3207
18251TIP3   OH276167   2.868   5.494  17.265  0.0024 -0.4932  0.0522
18251TIP3    H176168   2.964   5.492  17.274 -0.1806 -0.4707  2.6447
18251TIP3    H276169   2.839   5.408  17.294 -0.7930 -0.3619 -0.3259
18252TIP3   OH276170   2.657   5.923  13.820  0.3679 -0.1328  0.4989
18252TIP3    H176171   2.709   5.849  13.849 -1.2773 -0.9289  1.5178
18252TIP3    H276172   2.643   5.908  13.726 -1.8786 -2.4335  1.0941
18253TIP3   OH276173   1.114   2.760  16.103  0.1138 -0.6472 -0.0190
18253TIP3    H176174   1.070   2.812  16.036  1.0166  0.3994  0.1647
18253TIP3    H276175   1.117   2.817  16.180  0.1891 -1.3661  0.5178
18254TIP3   OH276176   5.420   4.446   3.190 -0.6197  0.2791  0.1687
18254TIP3    H176177   5.388   4.432   3.279 -1.3808  2.5709  0.3255
18254TIP3    H276178   5.347   4.489   3.145  1.1322  3.0333 -0.2998
18255TIP3   OH276179   1.619   2.285   6.790  0.4631 -0.4691  0.6813
18255TIP3    H176180   1.679   2.359   6.798  0.7820 -0.7248  0.6767
18255TIP3    H276181   1.668   2.211   6.824  0.3683 -0.7938  0.1312
18256TIP3   OH276182   6.378   4.226   2.728 -0.1897  0.6442 -0.0189
18256TIP3    H176183   6.439   4.187   2.790  1.4099 -0.8373 -2.3263
18256TIP3    H276184   6.297   4.175   2.738  0.8959 -1.3565 -0.8459
18257TIP3   OH276185   5.605   2.207  10.552 -0.4034 -0.6940 -0.0067
18257TIP3    H176186   5.572   2.120  10.575  1.5773 -1.5436 -0.1724
18257TIP3    H276187   5.548   2.236  10.481 -2.0113 -1.1960  1.0305
18258TIP3   OH276188   4.743   4.709   1.413  0.0715 -0.0086  0.6556
18258TIP3    H176189   4.807   4.780   1.415 -0.0296  0.1546 -0.6843
18258TIP3    H276190   4.689   4.722   1.491 -0.6426  2.0683 -0.0997
18259TIP3   OH276191   3.667   2.682  14.786 -0.0546  0.6631  0.1987
18259TIP3    H176192   3.594   2.714  14.734 -0.5222  2.4045  1.8037
18259TIP3    H276193   3.627   2.657  14.870  0.9092 -0.3862  0.3720
18260TIP3   OH276194   2.030   3.085  11.253 -0.5337  0.2736  0.1146
18260TIP3    H176195   2.083   3.006  11.258 -0.5490  0.2007 -0.7137
18260TIP3    H276196   2.091   3.153  11.223 -0.8976  0.1773 -0.9030
18261TIP3   OH276197   5.118   2.998  16.541 -0.0694 -0.1535  0.0063
18261TIP3    H176198   5.149   3.087  16.555 -1.2569  0.6133 -1.7832
18261TIP3    H276199   5.024   3.003  16.555 -0.3479 -0.7646 -1.4532
18262TIP3   OH276200   0.226   6.360   1.048 -0.1176 -0.1871  0.0988
18262TIP3    H176201   0.284   6.288   1.024  0.0075  0.0963 -0.4674
18262TIP3    H276202   0.260   6.435   1.000 -0.5459  0.1368  0.2959
18263TIP3   OH276203   5.313   6.632  14.356 -0.0573 -0.3434  0.4078
18263TIP3    H176204   5.268   6.550  14.334 -1.8601  0.7478 -0.2425
18263TIP3    H276205   5.317   6.632  14.452 -0.3511 -1.0299  0.4279
18264TIP3   OH276206   0.980   0.972  17.336  0.2831 -0.1256 -0.6495
18264TIP3    H176207   0.984   1.046  17.276 -1.3724  0.3150 -0.2614
18264TIP3    H276208   0.944   1.008  17.417  1.2798 -0.9654  0.2046
18265TIP3   OH276209   3.157   5.606  13.283  0.2691  0.4212 -0.1674
18265TIP3    H176210   3.174   5.585  13.375 -1.4772 -0.9903 -0.1075
18265TIP3    H276211   3.066   5.636  13.282 -0.3715 -1.3733 -1.6384
18266TIP3   OH276212   3.915   1.060  15.368 -0.5095  0.1878 -0.5795
18266TIP3    H176213   3.998   1.061  15.415  0.1107  1.2968 -1.6422
18266TIP3    H276214   3.895   1.152  15.353 -1.1041 -0.1180 -1.7513
18267TIP3   OH276215   0.748   5.662   2.489 -0.2503  0.2336  0.5582
18267TIP3    H176216   0.736   5.703   2.574  0.0861  2.0282 -0.2038
18267TIP3    H276217   0.661   5.633   2.463 -1.0845  2.9194  0.0032
18268TIP3   OH276218   4.175   5.602   4.058 -0.5767 -0.1738  0.4644
18268TIP3    H176219   4.220   5.634   3.980  0.4223 -1.0331  0.6734
18268TIP3    H276220   4.111   5.539   4.026  0.1830 -0.9080  0.3664
18269TIP3   OH276221   2.915   0.263  13.744  0.2725 -0.4816 -0.4733
18269TIP3    H176222   2.981   0.201  13.776 -0.6645 -1.0703  0.4016
18269TIP3    H276223   2.882   0.223  13.664 -0.2808 -1.0976  0.0508
18270TIP3   OH276224   4.627   2.332  12.732  0.1996  0.2533 -0.4387
18270TIP3    H176225   4.590   2.388  12.663  1.7003 -0.2512 -1.7084
18270TIP3    H276226   4.629   2.389  12.809  2.0743  2.2119 -1.7804
18271TIP3   OH276227   3.320   3.589   6.167 -0.0771  0.3386 -0.1485
18271TIP3    H176228   3.398   3.601   6.220  1.9219  1.6556 -3.1249
18271TIP3    H276229   3.276   3.673   6.170 -1.3952 -0.3491  1.3801
18272TIP3   OH276230   3.539   3.975  14.871  0.3062 -0.6606 -0.7383
18272TIP3    H176231   3.446   3.995  14.886  0.8319  2.3936 -0.8313
18272TIP3    H276232   3.583   4.003  14.952  1.2626 -0.9178 -1.1549
18273TIP3   OH276233   0.868   3.278  14.270 -0.3009  0.2804 -0.0189
18273TIP3    H176234   0.903   3.355  14.225  0.0097 -0.5760 -1.2722
18273TIP3    H276235   0.803   3.242  14.210 -0.4374 -0.4531  0.5473
18274TIP3   OH276236   4.345   5.207  12.713  0.1808  0.5141  0.0930
18274TIP3    H176237   4.271   5.266  12.696  0.0967  0.1229 -0.9132
18274TIP3    H276238   4.402   5.258  12.772 -0.0706  1.4603 -0.4527
18275TIP3   OH276239   5.596   2.230  12.951 -0.0131  0.3806 -0.1124
18275TIP3    H176240   5.535   2.180  13.006 -1.2047  2.1830  0.2915
18275TIP3    H276241   5.643   2.287  13.013  1.8909 -0.7216 -0.4602
18276TIP3   OH276242   5.636   1.868  14.202  0.3421 -0.9243  0.2877
18276TIP3    H176243   5.559   1.812  14.215 -0.5875  0.1970 -0.2460
18276TIP3    H276244   5.674   1.876  14.289 -0.0279 -1.6382  0.5306
18277TIP3   OH276245   3.480   5.841   1.630 -0.0928 -0.6237  0.1139
18277TIP3    H176246   3.420   5.915   1.627  0.1855 -0.4153 -2.3390
18277TIP3    H276247   3.428   5.766   1.602  0.3950 -0.7540 -0.4547
18278TIP3   OH276248   5.520   1.066  17.068 -0.6283 -0.3721 -0.5553
18278TIP3    H176249   5.608   1.092  17.041 -0.8718  1.3033  0.1632
18278TIP3    H276250   5.534   0.991  17.126  0.1191 -1.7727 -2.4347
18279TIP3   OH276251   3.849   5.243  11.541 -0.3621 -0.5465 -0.4337
18279TIP3    H176252   3.827   5.323  11.493  2.1906 -0.1940 -1.2025
18279TIP3    H276253   3.923   5.268  11.596  0.5914 -2.3763 -0.7987
18280TIP3   OH276254   6.497   5.501  15.414 -0.1774 -0.0431 -0.2061
18280TIP3    H176255   6.557   5.427  15.408 -0.8461 -0.6707  0.5697
18280TIP3    H276256   6.535   5.557  15.482  0.6552  0.6593 -1.2211
18281TIP3   OH276257   4.491   5.455  11.377  0.5993 -0.4180  0.1591
18281TIP3    H176258   4.583   5.429  11.382  0.3332 -1.5818 -0.6340
18281TIP3    H276259   4.472   5.457  11.283 -0.2414 -0.3684  0.3216
18282TIP3   OH276260   4.289   6.218   3.684  0.1678  0.2271  0.2467
18282TIP3    H176261   4.255   6.129   3.697 -0.5080  0.4743  0.2622
18282TIP3    H276262   4.304   6.225   3.590  1.5946 -0.3693  0.4113
18283TIP3   OH276263   1.195   4.046  15.353  1.1054 -0.1994  0.8827
18283TIP3    H176264   1.217   3.962  15.313  1.3827  0.2972 -0.0348
18283TIP3    H276265   1.187   4.106  15.279 -0.3950  0.2996  1.4262
18284TIP3   OH276266   4.462   0.748   1.307 -0.5393 -0.5593  0.2001
18284TIP3    H176267   4.440   0.827   1.356 -0.4467 -0.4439  0.0563
18284TIP3    H276268   4.429   0.765   1.218 -1.7149 -1.2116  0.4938
18285TIP3   OH276269   6.716   1.436  16.341  0.2402  0.2697 -0.5237
18285TIP3    H176270   6.688   1.527  16.352 -2.0060 -0.3357 -0.8689
18285TIP3    H276271   6.789   1.426  16.403  0.1811  2.1395 -0.0965
18286TIP3   OH276272   4.648   2.790   3.378 -0.2120 -0.0455  0.0705
18286TIP3    H176273   4.731   2.758   3.343 -0.5273 -0.1444 -0.6162
18286TIP3    H276274   4.664   2.803   3.471  1.8552  3.9580 -0.6574
18287TIP3   OH276275   0.205   1.692  12.514 -0.0248  0.1434  0.3905
18287TIP3    H176276   0.288   1.719  12.475  0.2060  0.1268  0.8588
18287TIP3    H276277   0.157   1.650  12.442  0.7888 -0.7599  0.3500
18288TIP3   OH276278   6.009   0.709  15.330  0.2399  0.2806  0.5022
18288TIP3    H176279   5.920   0.734  15.307 -0.2559 -1.5214  0.2738
18288TIP3    H276280   6.011   0.711  15.426 -0.8975 -2.0886  0.6665
18289TIP3   OH276281   5.669   1.429  12.812  0.2986  0.2357 -0.1245
18289TIP3    H176282   5.586   1.397  12.777 -0.2645  2.1598 -0.7050
18289TIP3    H276283   5.673   1.394  12.901 -1.2402  0.2382 -0.0192
18290TIP3   OH276284   3.936   4.256  11.672 -0.3630 -0.0251 -0.9272
18290TIP3    H176285   3.942   4.272  11.578 -1.3595 -1.2289 -1.2327
18290TIP3    H276286   3.851   4.293  11.697  0.4350  1.4127 -0.2207
18291TIP3   OH276287   3.095   1.328   2.729  0.1198 -0.2277 -0.3226
18291TIP3    H176288   3.014   1.368   2.698 -0.5531 -0.1946  1.3762
18291TIP3    H276289   3.136   1.396   2.782 -1.9981 -2.1224  4.2843
18292TIP3   OH276290   1.119   5.110  12.487  0.5664 -0.1861 -0.3326
18292TIP3    H176291   1.110   5.025  12.445 -0.2364 -1.0500  1.4616
18292TIP3    H276292   1.167   5.164  12.424  3.6662 -2.7749 -0.4368
18293TIP3   OH276293   1.150   6.660  17.111  0.1318  0.7250 -0.2593
18293TIP3    H176294   1.076   6.684  17.167 -1.7045  1.5955 -2.8338
18293TIP3    H276295   1.219   6.724  17.133 -0.3976  0.8555  1.1447
18294TIP3   OH276296   6.639   5.311  16.863 -1.1158  0.0883 -0.2298
18294TIP3    H176297   6.727   5.300  16.899 -1.1984 -0.6220 -0.2385
18294TIP3    H276298   6.617   5.403  16.881 -0.4589  0.2116 -0.0433
18295TIP3   OH276299   0.193   2.669  13.917  0.3903  0.0805 -0.0440
18295TIP3    H176300   0.276   2.622  13.917 -0.2526 -1.0960 -0.1955
18295TIP3    H276301   0.156   2.653  13.830 -0.2817  0.0288  0.2399
18296TIP3   OH276302   3.393   2.131   1.680  0.0646  0.3304  0.0187
18296TIP3    H176303   3.432   2.092   1.602  0.0904 -0.1181  0.2578
18296TIP3    H276304   3.303   2.098   1.681  0.1493  0.1120  0.3388
18297TIP3   OH276305   1.406   3.402   1.686  0.6991  0.4300 -0.4755
18297TIP3    H176306   1.460   3.478   1.708 -0.7905  1.5952 -0.6800
18297TIP3    H276307   1.316   3.434   1.694 -0.0368 -1.7976  1.1468
18298TIP3   OH276308   4.998   1.224   0.069  0.5279  0.2983  0.5404
18298TIP3    H176309   4.993   1.244   0.162 -0.5509  0.9969  0.3565
18298TIP3    H276310   4.986   1.308   0.025 -4.3356 -0.4907 -0.2658
18299TIP3   OH276311   1.725   6.261   0.496  0.0578 -0.1517 -0.4449
18299TIP3    H176312   1.653   6.314   0.531 -0.4005 -1.0629  0.0103
18299TIP3    H276313   1.774   6.233   0.574 -0.2777 -1.2072 -0.6029
18300TIP3   OH276314   4.177   4.312  12.301 -0.2521  0.5560 -0.0233
18300TIP3    H176315   4.092   4.341  12.268 -1.7179 -1.5697  1.6294
18300TIP3    H276316   4.217   4.265  12.227 -1.0006  0.6159 -0.4769
18301TIP3   OH276317   3.836   4.782   6.591 -0.1681  0.1253  0.0261
18301TIP3    H176318   3.848   4.868   6.550  0.3116  0.5458  1.0108
18301TIP3    H276319   3.766   4.741   6.540  0.4238  0.6135 -1.2037
18302TIP3   OH276320   3.355   5.041   5.075 -0.0687 -0.5546 -0.2804
18302TIP3    H176321   3.403   4.959   5.066 -0.1471 -0.4257 -2.4069
18302TIP3    H276322   3.312   5.035   5.161  1.1674 -2.0356  0.2761
18303TIP3   OH276323   1.472   3.307  11.232 -0.3150 -0.2877  0.2727
18303TIP3    H176324   1.464   3.222  11.188 -0.4946 -0.4671  0.6509
18303TIP3    H276325   1.533   3.357  11.177  0.6876 -1.0586  0.6669
18304TIP3   OH276326   6.538   5.973  13.001  0.6682  0.0210 -0.4829
18304TIP3    H176327   6.563   5.928  13.081  2.2213 -0.0422 -0.9678
18304TIP3    H276328   6.610   6.033  12.983 -0.6425  1.5988 -0.7020
18305TIP3   OH276329   4.036   4.377  14.220  0.3505  0.6352  0.0387
18305TIP3    H176330   3.970   4.334  14.166 -0.3310  1.5512  0.1367
18305TIP3    H276331   4.072   4.306  14.274 -2.4500  0.4988  1.9618
18306TIP3   OH276332   4.412   5.753   3.583  0.8745  0.4852 -0.0867
18306TIP3    H176333   4.366   5.820   3.533  0.5722  0.0767 -0.3615
18306TIP3    H276334   4.505   5.770   3.566  0.7823  0.5299 -0.5547
18307TIP3   OH276335   5.645   2.958   1.100 -0.2823  0.1258  0.7942
18307TIP3    H176336   5.604   2.871   1.102  1.3843 -0.7853 -1.3104
18307TIP3    H276337   5.700   2.960   1.178 -0.8354 -0.4152  1.2173
18308TIP3   OH276338   6.439   4.287  14.110 -0.1408  0.1316  0.1899
18308TIP3    H176339   6.367   4.247  14.158 -1.5265  0.7287 -1.3340
18308TIP3    H276340   6.479   4.347  14.173 -1.0598 -0.1032  1.0122
18309TIP3   OH276341   1.670   2.292   3.136 -0.1470  0.5628  0.4444
18309TIP3    H176342   1.632   2.360   3.082  0.3295  1.1105  0.7873
18309TIP3    H276343   1.595   2.241   3.167 -0.3362 -0.7998 -2.0410
18310TIP3   OH276344   4.101   4.861   2.063  0.7406  0.3312  0.1340
18310TIP3    H176345   4.165   4.869   1.992  0.5822  0.1154 -0.0352
18310TIP3    H276346   4.027   4.816   2.023  1.1763 -0.9977  0.7607
18311TIP3   OH276347   5.822   6.026  13.253 -0.2403  0.2279  0.5822
18311TIP3    H176348   5.907   5.984  13.237 -0.6075 -0.8986  1.4021
18311TIP3    H276349   5.829   6.060  13.342 -0.8193 -0.3700  0.8703
18312TIP3   OH276350   2.959   5.688   0.282  0.1540 -0.1058 -0.5442
18312TIP3    H176351   3.048   5.677   0.246  0.4087 -2.5826  0.6248
18312TIP3    H276352   2.956   5.627   0.356 -2.6229 -0.2799 -0.7233
18313TIP3   OH276353   2.068   0.609  12.015 -0.0936 -0.1446  0.0719
18313TIP3    H176354   1.980   0.627  11.983 -0.6301 -0.0644  1.5386
18313TIP3    H276355   2.122   0.606  11.935 -1.1719  1.1363 -0.7614
18314TIP3   OH276356   3.717   0.976  15.925 -0.3571  0.9852  0.0798
18314TIP3    H176357   3.745   1.057  15.969  4.0695  0.4891 -1.3345
18314TIP3    H276358   3.785   0.913  15.945 -2.2956 -1.6542 -1.0676
18315TIP3   OH276359   3.267   5.072   0.826  0.1593  0.1755 -0.5299
18315TIP3    H176360   3.325   5.120   0.767 -1.7589  0.7225 -2.0837
18315TIP3    H276361   3.195   5.042   0.770 -1.5395  0.3316  1.4466
18316TIP3   OH276362   5.757   1.409  15.055  1.0069  0.2022 -0.2132
18316TIP3    H176363   5.811   1.355  15.113 -1.2194 -0.8000  1.0722
18316TIP3    H276364   5.781   1.499  15.076  1.7575 -0.2056  0.7415
18317TIP3   OH276365   2.801   5.588   6.281  0.3315  0.6049  0.7085
18317TIP3    H176366   2.753   5.670   6.293  0.5374  0.7957  0.2398
18317TIP3    H276367   2.891   5.615   6.264  0.2354  0.3206 -0.3119
18318TIP3   OH276368   2.000   5.713   6.644 -0.1981 -0.1417 -0.2766
18318TIP3    H176369   1.926   5.762   6.681  0.9124  1.0760  0.4147
18318TIP3    H276370   1.965   5.675   6.563 -1.2493  1.4488 -0.6264
18319TIP3   OH276371   4.235   3.861  16.525 -0.3030  0.1293 -0.1875
18319TIP3    H176372   4.174   3.808  16.473 -0.6897  0.6290 -0.2431
18319TIP3    H276373   4.203   3.950  16.516  0.2275  0.3491  0.0823
18320TIP3   OH276374   2.743   5.789  17.141  0.1336 -0.1787 -0.3276
18320TIP3    H176375   2.769   5.865  17.089  0.0776  0.2445  0.2506
18320TIP3    H276376   2.819   5.732  17.142  0.6449  0.5020  0.3686
18321TIP3   OH276377   3.020   6.165   0.246 -0.1578  0.4720 -0.2897
18321TIP3    H176378   2.980   6.082   0.272 -0.2101  0.8703  0.9639
18321TIP3    H276379   3.111   6.143   0.227  0.1662  0.3171  1.3080
18322TIP3   OH276380   2.288   3.103   0.569  0.0103 -0.1751  0.1712
18322TIP3    H176381   2.271   3.192   0.599  1.8930  0.1642  0.3688
18322TIP3    H276382   2.345   3.114   0.492  3.5592 -1.1719  2.4185
18323TIP3   OH276383   1.422   5.073  17.245  0.1301  0.1685 -0.6175
18323TIP3    H176384   1.370   5.098  17.321 -0.0441 -0.3923 -0.5478
18323TIP3    H276385   1.475   5.150  17.226  0.8956 -0.0076  0.6686
18324TIP3   OH276386   5.524   6.118   1.171 -0.4014  0.2735 -0.2585
18324TIP3    H176387   5.441   6.165   1.171 -0.2596  0.5355  0.8188
18324TIP3    H276388   5.564   6.139   1.086 -1.3715  0.2350 -0.7366
18325TIP3   OH276389   2.324   0.365   3.706  0.8126 -0.3910  0.0940
18325TIP3    H176390   2.363   0.354   3.792  0.6929 -2.2023 -0.0438
18325TIP3    H276391   2.279   0.283   3.690 -0.6650  0.5760 -0.9632
18326TIP3   OH276392   2.267   0.115   4.270  0.5259 -0.6775 -0.1254
18326TIP3    H176393   2.329   0.103   4.198 -0.3593  2.8802 -1.6807
18326TIP3    H276394   2.191   0.062   4.245  0.2180  0.5274 -1.8976
18327TIP3   OH276395   6.279   4.055  13.266  0.4303 -0.4455 -0.2517
18327TIP3    H176396   6.250   4.130  13.214 -1.8673 -0.9512  0.1777
18327TIP3    H276397   6.231   3.981  13.229 -1.2362 -0.8486  2.4200
18328TIP3   OH276398   5.458   5.431   5.479 -0.5050 -0.7796  0.2163
18328TIP3    H176399   5.366   5.411   5.492 -0.7577 -1.0532 -1.7244
18328TIP3    H276400   5.462   5.527   5.480 -0.7477 -0.7693  0.5190
18329TIP3   OH276401   5.122   0.746  11.009  0.2165 -0.6114 -0.1202
18329TIP3    H176402   5.142   0.720  10.919 -0.6503  0.6450 -0.7154
18329TIP3    H276403   5.165   0.831  11.020 -0.1286 -0.5057  0.4609
18330TIP3   OH276404   1.536   3.011   0.318  0.0104 -0.0162 -0.1498
18330TIP3    H176405   1.621   2.969   0.333 -0.4864 -1.1053 -0.3576
18330TIP3    H276406   1.501   3.027   0.406  0.0482 -0.3449 -0.0749
18331TIP3   OH276407   4.376   2.626   4.305 -0.0237  0.0449 -0.1336
18331TIP3    H176408   4.425   2.576   4.371 -0.5319 -1.3473 -0.7679
18331TIP3    H276409   4.297   2.655   4.351  0.4530  0.6114  0.3464
18332TIP3   OH276410   6.095   5.312   2.008 -0.1220  0.4662  0.4956
18332TIP3    H176411   6.108   5.398   2.048 -1.6407  1.0519 -0.2156
18332TIP3    H276412   6.094   5.329   1.914 -0.3904 -0.3365  0.3438
18333TIP3   OH276413   0.242   0.915  11.772 -0.7531 -0.0472  0.1751
18333TIP3    H176414   0.175   0.847  11.771  0.4028 -1.2352 -0.8038
18333TIP3    H276415   0.322   0.869  11.747  0.0643  1.6868 -0.5240
18334TIP3   OH276416   0.101   1.916   0.006  0.0140 -0.2258  0.1169
18334TIP3    H176417   0.042   1.854   0.049  0.3033  0.3723  1.4374
18334TIP3    H276418   0.179   1.917   0.062  0.1754  1.0054 -0.0966
18335TIP3   OH276419   3.035   5.343   2.982 -0.6811  0.4190 -0.1994
18335TIP3    H176420   3.005   5.275   3.043 -0.9008  0.4935 -0.2229
18335TIP3    H276421   2.956   5.394   2.964 -0.8429 -0.1844 -1.3042
18336TIP3   OH276422   2.004   1.752  11.380  0.1699 -0.2295  0.2551
18336TIP3    H176423   2.003   1.714  11.292  1.2889  0.4677 -0.0668
18336TIP3    H276424   1.945   1.695  11.431  0.3836 -1.2994 -0.6616
18337TIP3   OH276425   5.183   6.619   5.060  0.1774 -0.4713  0.1801
18337TIP3    H176426   5.104   6.646   5.106  0.0307 -0.7500  0.0961
18337TIP3    H276427   5.173   6.524   5.048  1.4359 -0.8659  1.9133
18338TIP3   OH276428   3.544   1.880  14.451 -0.1831 -0.4014 -0.3924
18338TIP3    H176429   3.581   1.924  14.528 -2.1869 -0.1998  0.5229
18338TIP3    H276430   3.615   1.880  14.387  1.2196  0.3680  1.0835
18339TIP3   OH276431   1.003   5.074   4.799  0.3326 -0.2836 -0.2647
18339TIP3    H176432   1.005   4.981   4.774 -0.2731 -0.4379  0.2319
18339TIP3    H276433   0.972   5.119   4.721 -0.1523 -0.5952 -0.2581
18340TIP3   OH276434   4.573   1.855  16.523 -0.4887 -0.1232  0.1129
18340TIP3    H176435   4.617   1.777  16.555 -0.9357 -0.8556 -1.0038
18340TIP3    H276436   4.607   1.868  16.435 -0.9178  0.5500  0.0370
18341TIP3   OH276437   5.821   4.623  16.014 -0.5603  0.3083  0.2196
18341TIP3    H176438   5.902   4.585  15.979 -0.2127  0.1642  1.1360
18341TIP3    H276439   5.757   4.612  15.944  0.2003  0.3889 -0.5131
18342TIP3   OH276440   2.974   3.482   5.045  0.4068 -0.2580 -0.4810
18342TIP3    H176441   3.001   3.574   5.048  0.6344 -0.2815 -1.4126
18342TIP3    H276442   2.986   3.457   4.954  0.5761 -1.2850 -0.1878
18343TIP3   OH276443   4.147   6.604  16.612  0.3435 -0.0944 -0.4564
18343TIP3    H176444   4.213   6.621  16.680 -0.0378  1.0455 -0.3475
18343TIP3    H276445   4.163   6.671  16.546 -1.0161  0.5567 -0.1746
18344TIP3   OH276446   0.105   1.672  15.864 -0.4871  0.1016 -0.1295
18344TIP3    H176447   0.140   1.754  15.829  1.2815  0.9579  3.2098
18344TIP3    H276448   0.043   1.698  15.932 -1.2850 -1.3707 -0.2382
18345TIP3   OH276449   4.878   4.485  11.423  1.0868 -0.8729 -0.8404
18345TIP3    H176450   4.796   4.496  11.375  0.0904  0.8899  1.0893
18345TIP3    H276451   4.946   4.496  11.357 -0.2037  1.3089 -1.9188
18346TIP3   OH276452   2.077   6.092   2.152  0.0116  0.3549  0.1218
18346TIP3    H176453   1.986   6.084   2.124 -0.3642  1.3718  0.9903
18346TIP3    H276454   2.124   6.119   2.073 -0.3250 -0.6865 -0.4627
18347TIP3   OH276455   1.840   5.153   2.445  0.5709  0.1090  0.0480
18347TIP3    H176456   1.748   5.151   2.469  0.3500  1.6347 -0.5335
18347TIP3    H276457   1.885   5.183   2.525  0.4865  0.0116  0.1319
18348TIP3   OH276458   3.558   2.549   4.298  1.0056  0.3577  0.2668
18348TIP3    H176459   3.609   2.504   4.231  0.7151 -0.7247  0.7442
18348TIP3    H276460   3.473   2.505   4.296 -0.1666  2.5118 -0.9276
18349TIP3   OH276461   2.048   2.031  17.167 -0.0288 -0.3687 -0.1362
18349TIP3    H176462   2.037   2.044  17.072 -0.4111  1.0766  0.0773
18349TIP3    H276463   2.106   1.956  17.174 -1.3395 -1.5706 -1.4889
18350TIP3   OH276464   2.023   6.717   4.186  0.0639  0.3071 -0.0113
18350TIP3    H176465   1.942   6.723   4.237  0.3259  0.8859  0.3509
18350TIP3    H276466   2.067   6.640   4.222  0.1409  0.5789  0.4854
18351TIP3   OH276467   2.072   5.133   5.512  0.8692  0.6564 -0.0410
18351TIP3    H176468   2.020   5.057   5.537 -1.0174  1.5057 -1.1913
18351TIP3    H276469   2.084   5.182   5.593  0.9058 -0.1577  0.4502
18352TIP3   OH276470   4.829   5.729  15.207  0.0190 -0.9491  0.1187
18352TIP3    H176471   4.891   5.784  15.158  2.3122 -2.7048  0.8275
18352TIP3    H276472   4.768   5.697  15.140  1.0020 -0.5974 -0.9987
18353TIP3   OH276473   5.860   5.288  12.490  0.0646 -0.1465  0.2797
18353TIP3    H176474   5.775   5.279  12.446  0.6139 -0.3683 -0.7725
18353TIP3    H276475   5.923   5.251  12.428  0.8828 -0.4308  1.2445
18354TIP3   OH276476   6.272   0.921  15.598  0.2391  0.0037 -0.1013
18354TIP3    H176477   6.261   0.925  15.693 -0.9896 -1.8134 -0.1085
18354TIP3    H276478   6.364   0.900  15.584 -0.0478 -2.0262  0.8202
18355TIP3   OH276479   5.747   4.151   1.523 -0.8404 -0.0394 -0.8604
18355TIP3    H176480   5.787   4.224   1.571 -0.1596  0.0019 -1.4655
18355TIP3    H276481   5.726   4.087   1.590  2.3220 -1.0492 -0.6344
18356TIP3   OH276482   6.318   4.960  14.054 -0.1780 -0.2453  0.2831
18356TIP3    H176483   6.360   4.875  14.067 -1.0370 -0.4841  1.6516
18356TIP3    H276484   6.351   4.990  13.969 -0.6814 -2.4245 -0.7606
18357TIP3   OH276485   1.329   1.373  17.307  0.0777  0.3369  0.6117
18357TIP3    H176486   1.371   1.353  17.223  0.1007  0.9986  0.4589
18357TIP3    H276487   1.366   1.458  17.333 -1.5273  1.1935  0.2197
18358TIP3   OH276488   3.677   1.552  14.668  0.3639  0.2464  0.6378
18358TIP3    H176489   3.727   1.472  14.687 -1.0795 -0.8026  0.2376
18358TIP3    H276490   3.704   1.576  14.580  0.8775  0.2603  0.7947
18359TIP3   OH276491   0.727   3.452   0.240 -0.4931  0.3808  0.3463
18359TIP3    H176492   0.804   3.399   0.219 -1.2268 -0.6356  0.1632
18359TIP3    H276493   0.673   3.449   0.161 -0.1274  2.2049 -0.0162
18360TIP3   OH276494   5.490   1.513  16.989 -0.1489 -0.0569 -0.2846
18360TIP3    H176495   5.574   1.488  17.027 -1.4426 -0.4202  2.6184
18360TIP3    H276496   5.460   1.435  16.942  0.5357 -0.3901 -0.1725
18361TIP3   OH276497   4.530   4.054  16.901 -0.3963  0.5853 -0.0694
18361TIP3    H176498   4.573   4.057  16.815 -1.7370 -0.1281 -0.8082
18361TIP3    H276499   4.552   4.138  16.941  1.8454  0.1550 -0.2788
18362TIP3   OH276500   0.464   0.214   4.351  0.1860  0.0915 -1.0288
18362TIP3    H176501   0.475   0.124   4.319  0.7435 -0.6817  1.2022
18362TIP3    H276502   0.530   0.265   4.303  1.7332 -1.2194 -0.3574
18363TIP3   OH276503   1.508   4.278   6.453 -0.4264  0.4052  0.1179
18363TIP3    H176504   1.499   4.293   6.547  1.4786 -0.2646  0.4620
18363TIP3    H276505   1.525   4.365   6.416 -0.1673  0.5433  0.5492
18364TIP3   OH276506   2.453   4.161   2.590  0.4500  0.1172  0.4352
18364TIP3    H176507   2.492   4.117   2.514  0.4448 -0.5080  0.7875
18364TIP3    H276508   2.488   4.249   2.587  2.1665 -0.5137  0.9200
18365TIP3   OH276509   4.045   6.064   3.556 -0.6551  0.8125 -0.9623
18365TIP3    H176510   4.120   6.029   3.603 -1.0178  1.7460  0.3906
18365TIP3    H276511   3.969   6.025   3.600 -0.9788  0.8200 -1.5123
18366TIP3   OH276512   1.650   0.907   1.790 -0.0794  0.2474  0.0174
18366TIP3    H176513   1.687   0.845   1.853  0.3248  0.7995  0.3320
18366TIP3    H276514   1.576   0.947   1.836 -0.1439  0.2251 -0.0677
18367TIP3   OH276515   2.166   0.426   5.479 -0.2116  0.9587  0.4897
18367TIP3    H176516   2.185   0.356   5.542  0.1926  1.7816  1.2962
18367TIP3    H276517   2.146   0.502   5.533 -0.5173  1.5111 -0.3851
18368TIP3   OH276518   0.528   3.556  13.645 -0.0286 -0.0840  0.0882
18368TIP3    H176519   0.595   3.555  13.576  2.4470 -0.5862  2.3121
18368TIP3    H276520   0.552   3.630  13.701 -0.6856 -0.9114  1.5195
18369TIP3   OH276521   3.384   6.726  16.765 -0.1149  0.0974  0.2563
18369TIP3    H176522   3.479   6.727  16.752  0.3695  0.0316  3.0835
18369TIP3    H276523   3.371   6.670  16.841 -2.6335 -1.2346 -1.0434
18370TIP3   OH276524   6.651   5.487  15.126 -0.5119 -0.2435  0.5385
18370TIP3    H176525   6.562   5.501  15.159 -0.4749 -0.3335  0.6822
18370TIP3    H276526   6.639   5.454  15.037 -0.6413 -0.8085  0.7595
18371TIP3   OH276527   4.584   1.029  10.948  0.3410 -0.2401 -0.0919
18371TIP3    H176528   4.541   0.969  11.009 -1.3149  0.2205 -0.7520
18371TIP3    H276529   4.658   0.979  10.914  0.1194 -1.2101  0.8102
18372TIP3   OH276530   0.133   4.356  11.082  0.0603 -0.3091  0.3676
18372TIP3    H176531   0.170   4.272  11.056  3.6880  0.7302  1.5704
18372TIP3    H276532   0.117   4.348  11.176  1.9375  0.7387  0.8256
18373TIP3   OH276533   4.512   5.087  10.458  0.4289  0.3519  0.3804
18373TIP3    H176534   4.483   5.011  10.508  0.5912  0.3972  0.5418
18373TIP3    H276535   4.454   5.088  10.381  1.0586 -0.4931 -0.1244
18374TIP3   OH276536   5.108   2.338  17.335  0.5008 -0.1361 -0.1004
18374TIP3    H176537   5.197   2.325  17.366  0.1850 -1.2187  0.4110
18374TIP3    H276538   5.054   2.336  17.415 -0.0775 -0.5004 -0.4935
18375TIP3   OH276539   5.269   3.411   2.107  0.2840  0.2857  0.5831
18375TIP3    H176540   5.262   3.506   2.108 -0.0905  0.2789 -0.4063
18375TIP3    H276541   5.334   3.392   2.039 -1.4693 -0.2303 -1.0536
18376TIP3   OH276542   3.135   3.087  10.850  0.3143  0.5729  0.0252
18376TIP3    H176543   3.188   3.062  10.926 -1.0370  1.1542  1.2124
18376TIP3    H276544   3.076   3.155  10.884 -1.6252 -0.4848 -1.0517
18377TIP3   OH276545   4.634   1.005   5.285 -0.0930 -0.0140 -1.0468
18377TIP3    H176546   4.551   0.966   5.257  0.4583 -0.2249 -2.4679
18377TIP3    H276547   4.609   1.091   5.321 -1.0271 -0.5313 -0.4214
18378TIP3   OH276548   0.284   2.205  13.851 -0.3314  0.2156 -0.2208
18378TIP3    H176549   0.219   2.136  13.842  0.2259 -0.3762  0.2149
18378TIP3    H276550   0.251   2.276  13.796 -1.5147  0.0644  0.2661
18379TIP3   OH276551   2.314   1.241   1.156 -0.3693 -0.0554 -0.1316
18379TIP3    H176552   2.404   1.216   1.136 -0.5073  0.7211 -1.9840
18379TIP3    H276553   2.261   1.191   1.093 -1.1042  0.4798  0.0529
18380TIP3   OH276554   6.001   1.522   4.864 -0.6553 -0.1345 -0.1022
18380TIP3    H176555   5.925   1.570   4.896 -0.2461 -0.6141  1.6953
18380TIP3    H276556   6.060   1.590   4.832 -2.3373  0.1732 -2.8350
18381TIP3   OH276557   1.524   6.099   5.043 -0.4717 -0.1443  0.5031
18381TIP3    H176558   1.452   6.155   5.015  0.0305 -0.8008 -2.4269
18381TIP3    H276559   1.482   6.017   5.071 -0.9567  0.1667  0.6841
18382TIP3   OH276560   2.819   1.448   5.514  0.2381  0.0505 -0.2747
18382TIP3    H176561   2.856   1.495   5.439 -1.6836 -1.2003 -2.0950
18382TIP3    H276562   2.734   1.490   5.530  0.1356 -0.4143  0.4851
18383TIP3   OH276563   5.045   3.398   1.153 -0.2585  0.2620  0.0234
18383TIP3    H176564   5.050   3.429   1.244 -1.2613  1.1647 -0.2203
18383TIP3    H276565   5.086   3.311   1.156  0.0908  0.4479  1.2540
18384TIP3   OH276566   3.411   6.331   4.325  0.5957  0.7805  0.2478
18384TIP3    H176567   3.336   6.311   4.269  0.5760  1.6920 -0.0713
18384TIP3    H276568   3.466   6.253   4.320 -0.3855  0.0487  0.5918
18385TIP3   OH276569   4.981   5.481   5.385  0.8013 -0.1406 -0.0159
18385TIP3    H176570   5.032   5.497   5.464 -0.5817  1.8805  0.5461
18385TIP3    H276571   5.035   5.518   5.315  1.9844 -1.8455 -0.0715
18386TIP3   OH276572   2.616   4.262  17.066  0.3979 -0.1894  0.1596
18386TIP3    H176573   2.609   4.241  16.973 -3.0384 -2.2513  0.7129
18386TIP3    H276574   2.667   4.189  17.102 -0.0871 -0.5201  0.1821
18387TIP3   OH276575   1.470   2.801   5.095  0.2154 -0.7928 -0.3561
18387TIP3    H176576   1.437   2.875   5.146  2.2638  0.5843 -0.9021
18387TIP3    H276577   1.484   2.732   5.159  2.1431  0.6785  0.9296
18388TIP3   OH276578   0.367   6.085  10.607  0.3512 -0.0643 -0.3635
18388TIP3    H176579   0.394   6.111  10.695  0.3176 -0.7093 -0.1601
18388TIP3    H276580   0.379   5.990  10.605  1.1481  0.0433 -1.3292
18389TIP3   OH276581   3.981   5.702  13.879  0.4703  0.0864  0.0815
18389TIP3    H176582   3.893   5.696  13.841  0.8502  1.9601 -1.2462
18389TIP3    H276583   3.966   5.729  13.970 -0.3561  2.6982 -0.7400
18390TIP3   OH276584   5.882   2.697   3.267  0.6980 -0.4293  0.1121
18390TIP3    H176585   5.824   2.691   3.343  1.0364 -3.7383  0.2375
18390TIP3    H276586   5.893   2.607   3.237  1.4424  0.6205 -3.2659
18391TIP3   OH276587   1.245   5.673  14.737  0.2221 -0.0234  0.1538
18391TIP3    H176588   1.276   5.606  14.675 -1.0329  0.1966 -0.7518
18391TIP3    H276589   1.254   5.632  14.823  0.4193 -0.9833 -0.3042
18392TIP3   OH276590   3.874   2.328   2.400  0.5874 -0.3461 -0.7110
18392TIP3    H176591   3.960   2.363   2.376  0.0736 -0.6820 -3.3446
18392TIP3    H276592   3.813   2.399   2.384  0.0978 -0.8857 -1.2809
18393TIP3   OH276593   6.513   0.649  16.273  0.4493 -0.2780  0.0571
18393TIP3    H176594   6.555   0.715  16.218 -0.6383 -0.1526 -0.6510
18393TIP3    H276595   6.533   0.566  16.231  1.5417 -0.3866  0.7657
18394TIP3   OH276596   0.691   1.749   2.671  0.0856 -0.1727 -0.0398
18394TIP3    H176597   0.716   1.709   2.755  0.8045  0.7905  0.2248
18394TIP3    H276598   0.725   1.688   2.605  0.2150 -0.5400  0.3568
18395TIP3   OH276599   2.840   6.127  15.128  0.2739  0.1638  0.1842
18395TIP3    H176600   2.902   6.200  15.124 -0.6681  0.9182 -1.5425
18395TIP3    H276601   2.867   6.069  15.057 -0.3206 -0.0469  0.1299
18396TIP3   OH276602   0.626   5.726  16.275 -0.0083  0.4810 -0.3854
18396TIP3    H176603   0.587   5.813  16.272  0.8109  0.9628  1.5722
18396TIP3    H276604   0.555   5.668  16.302 -0.1936  0.7960 -0.2016
18397TIP3   OH276605   3.447   3.590   2.120 -0.2521 -0.3699 -0.4034
18397TIP3    H176606   3.528   3.641   2.115 -0.2588 -0.4604 -1.6641
18397TIP3    H276607   3.378   3.656   2.129  0.0605 -0.3243  3.6056
18398TIP3   OH276608   1.371   2.575  12.240 -0.0325 -0.4587  0.0136
18398TIP3    H176609   1.386   2.656  12.191  0.8926 -0.0711  0.9025
18398TIP3    H276610   1.371   2.506  12.173  0.2257  0.1630 -0.6407
18399TIP3   OH276611   6.462   5.825  16.232  0.2417  0.0420  0.1750
18399TIP3    H176612   6.418   5.742  16.214  0.6506  0.2030 -1.7417
18399TIP3    H276613   6.437   5.845  16.323 -3.7329  0.1843 -0.7455
18400TIP3   OH276614   1.974   5.161   5.182  0.2272 -0.2875  0.3357
18400TIP3    H176615   2.013   5.103   5.117  0.0779 -0.4308  0.3721
18400TIP3    H276616   1.931   5.103   5.244 -0.2612 -0.1295  0.1536
18401TIP3   OH276617   6.144   6.251   1.968  0.0596  0.3616 -0.1274
18401TIP3    H176618   6.114   6.341   1.981  1.5544  0.8684  0.0778
18401TIP3    H276619   6.195   6.255   1.886 -0.2318 -0.3968 -0.3501
18402TIP3   OH276620   1.909   5.402  14.191 -0.0217 -0.0490 -0.5245
18402TIP3    H176621   1.970   5.433  14.124 -1.0326 -1.4301 -2.1639
18402TIP3    H276622   1.832   5.459  14.182  0.7876  1.4865  1.3297
18403TIP3   OH276623   5.554   4.686   4.001  0.4219 -0.3384  0.2464
18403TIP3    H176624   5.623   4.674   3.936  1.1131 -1.2410  1.1126
18403TIP3    H276625   5.600   4.718   4.079 -0.2233 -0.3466  0.6423
18404TIP3   OH276626   4.057   2.816  12.180  0.3812  0.0784  0.4310
18404TIP3    H176627   3.997   2.891  12.171 -0.5698 -0.6035  0.9216
18404TIP3    H276628   4.063   2.779  12.092  0.4064  0.3941  0.2994
18405TIP3   OH276629   3.468   0.135   0.663 -0.2587 -0.3692 -0.1548
18405TIP3    H176630   3.537   0.189   0.623 -2.0701  1.9706 -0.3092
18405TIP3    H276631   3.514   0.084   0.730  1.5920  1.3829  0.0107
18406TIP3   OH276632   1.400   2.731  13.583 -0.3938  0.4140  0.5116
18406TIP3    H176633   1.409   2.787  13.506 -2.8808  1.0225  0.5733
18406TIP3    H276634   1.472   2.669  13.576 -0.6677  0.2973 -2.4686
18407TIP3   OH276635   0.709   1.959  13.644  0.0102 -0.1987  0.2651
18407TIP3    H176636   0.768   2.020  13.599 -0.8419  0.3872 -0.0835
18407TIP3    H276637   0.729   1.874  13.604 -0.1492  0.1773 -0.6513
18408TIP3   OH276638   4.900   0.781  13.776 -0.0306 -0.4956 -0.0135
18408TIP3    H176639   4.945   0.853  13.822  1.7716 -1.9195  0.5793
18408TIP3    H276640   4.860   0.823  13.700  1.8224  0.9987 -0.2534
18409TIP3   OH276641   5.996   1.705  12.353  0.3655  0.0120  0.5028
18409TIP3    H176642   5.915   1.659  12.375 -1.0738  1.6285 -1.1016
18409TIP3    H276643   6.027   1.662  12.274  0.2413  0.3203  0.2812
18410TIP3   OH276644   5.857   6.493   3.708  0.7606 -0.0764 -0.2774
18410TIP3    H176645   5.915   6.439   3.654 -0.8482 -2.1709 -0.0463
18410TIP3    H276646   5.903   6.500   3.792  0.2349 -2.7832  0.3323
18411TIP3   OH276647   5.722   0.036  16.897 -0.0180 -0.9038 -0.4886
18411TIP3    H176648   5.756   0.025  16.808 -0.9545 -1.3186 -0.8072
18411TIP3    H276649   5.648  -0.024  16.902 -0.8751  0.1586  0.0832
18412TIP3   OH276650   3.465   4.021  16.028 -0.8900 -0.4026  0.4957
18412TIP3    H176651   3.387   3.979  16.063 -1.2619  0.0799  0.2538
18412TIP3    H276652   3.512   3.951  15.983 -0.5576 -0.9683  1.6840
18413TIP3   OH276653   1.549   1.908  16.820 -0.0757  0.0171  0.1256
18413TIP3    H176654   1.609   1.938  16.752  0.0405 -0.7851 -0.1315
18413TIP3    H276655   1.567   1.815  16.830 -1.3147 -0.2548 -0.0000
18414TIP3   OH276656   5.241   1.333  15.296 -0.6673 -0.2191  0.4139
18414TIP3    H176657   5.163   1.291  15.261 -1.8811 -1.0496  3.7589
18414TIP3    H276658   5.209   1.397  15.359  1.3063 -0.2563  1.5545
18415TIP3   OH276659   5.884   3.794   4.991 -0.2250  0.0402  0.3039
18415TIP3    H176660   5.858   3.769   4.902 -0.8174  0.3233  0.3942
18415TIP3    H276661   5.967   3.749   5.005  0.6808  1.2341 -0.9743
18416TIP3   OH276662   2.248   3.638  12.644 -0.0345  0.4822 -0.3943
18416TIP3    H176663   2.321   3.673  12.695  0.6985 -4.0758  2.2004
18416TIP3    H276664   2.174   3.637  12.704  0.4218 -3.4824  0.4034
18417TIP3   OH276665   4.306   4.462   6.209  0.3443  0.3406  0.1744
18417TIP3    H176666   4.232   4.441   6.151 -1.5594  0.5315  2.3606
18417TIP3    H276667   4.309   4.388   6.271  3.8198 -1.0369 -1.3996
18418TIP3   OH276668   4.033   6.352  12.615 -0.5185  0.0387  0.0819
18418TIP3    H176669   4.081   6.354  12.531  0.3607  0.5636  0.5787
18418TIP3    H276670   3.942   6.336  12.590 -0.3294  0.5412 -1.0033
18419TIP3   OH276671   5.756   2.092   3.114  0.9306  0.6726 -0.4963
18419TIP3    H176672   5.851   2.079   3.103  1.1636  1.5396  0.3001
18419TIP3    H276673   5.742   2.185   3.096  0.4706  0.8729  0.7376
18420TIP3   OH276674   2.163   4.062   1.045  0.0696 -0.0366  0.7958
18420TIP3    H176675   2.251   4.092   1.064  0.1877 -0.1932  0.5011
18420TIP3    H276676   2.175   3.985   0.989 -0.2897  1.3515 -1.2686
18421TIP3   OH276677   3.802   1.461  16.876 -0.3833  0.1526 -0.2565
18421TIP3    H176678   3.858   1.428  16.806 -0.4982 -0.1106 -0.2271
18421TIP3    H276679   3.789   1.553  16.855  1.0832  0.5373  0.4018
18422TIP3   OH276680   3.657   6.412  11.548 -0.3090 -0.2626  0.6177
18422TIP3    H176681   3.635   6.326  11.513  0.3774 -0.5643  0.9041
18422TIP3    H276682   3.621   6.474  11.484  0.2221 -0.7893 -0.2150
18423TIP3   OH276683   2.930   2.752   5.426 -0.3670  0.4400  0.1382
18423TIP3    H176684   2.869   2.820   5.400 -2.2963 -1.4206 -0.5199
18423TIP3    H276685   2.978   2.730   5.346 -2.4528 -1.5101 -0.6872
18424TIP3   OH276686   0.065   5.530  11.888  0.0695 -0.2452 -0.1001
18424TIP3    H176687   0.086   5.438  11.876  0.2191 -0.6118  2.4311
18424TIP3    H276688   0.099   5.573  11.809 -0.1389 -2.3259 -1.4070
18425TIP3   OH276689   1.466   5.135  11.361  0.7163  0.1855 -0.3908
18425TIP3    H176690   1.438   5.070  11.296  1.6341 -0.0006 -0.6264
18425TIP3    H276691   1.398   5.134  11.427 -0.8033  1.1479 -1.8652
18426TIP3   OH276692   3.401   4.303  14.716 -0.0406 -0.5466  0.1124
18426TIP3    H176693   3.411   4.341  14.628 -0.1222 -0.5969  0.0813
18426TIP3    H276694   3.468   4.235  14.721 -0.2444 -0.7567 -0.0273
18427TIP3   OH276695   0.938   6.314   5.091  0.9682  0.1775 -0.5232
18427TIP3    H176696   0.958   6.370   5.016  1.1700 -0.5659 -1.0410
18427TIP3    H276697   0.871   6.362   5.140 -0.4199 -0.0606 -2.0966
18428TIP3   OH276698   1.073   1.395  12.463 -0.2668 -0.1954 -0.6344
18428TIP3    H176699   1.092   1.397  12.369 -0.2102 -1.0081 -0.6416
18428TIP3    H276700   1.005   1.462  12.474 -0.1302  0.0469 -1.2197
18429TIP3   OH276701   2.081   0.233   4.454  0.0611  0.0882  0.1400
18429TIP3    H176702   2.145   0.191   4.396  0.8498 -0.2094  1.2099
18429TIP3    H276703   2.084   0.182   4.535 -1.1677  0.3863  0.4013
18430TIP3   OH276704   2.767   5.815   1.139 -0.1992  0.0410  0.0616
18430TIP3    H176705   2.819   5.740   1.168 -1.0888  0.1369  2.1189
18430TIP3    H276706   2.755   5.867   1.219 -2.1058  0.8234 -0.6816
18431TIP3   OH276707   5.620   3.431  12.746  0.1804  0.2247  0.1756
18431TIP3    H176708   5.606   3.343  12.711  0.5474  0.7854 -1.4638
18431TIP3    H276709   5.561   3.487  12.696  1.1060  1.1408  0.0693
18432TIP3   OH276710   1.625   3.908   5.561  0.0022  0.0972 -0.1506
18432TIP3    H176711   1.694   3.851   5.596 -0.3494 -0.3269 -0.1368
18432TIP3    H276712   1.547   3.852   5.558  0.0011  0.1380 -1.5610
18433TIP3   OH276713   1.322   1.160  11.753 -0.1906  0.1914  0.7564
18433TIP3    H176714   1.251   1.198  11.702  0.2752 -0.3412 -0.3255
18433TIP3    H276715   1.399   1.212  11.729 -0.1715  0.6642  1.7946
18434TIP3   OH276716   0.792   4.410   1.931 -0.0298  0.1155 -0.1034
18434TIP3    H176717   0.760   4.360   2.005 -0.2893 -0.3263 -0.5062
18434TIP3    H276718   0.869   4.456   1.964  0.6270 -1.0994  0.0965
18435TIP3   OH276719   3.857   3.584   5.098 -0.5919  0.0207 -0.4622
18435TIP3    H176720   3.885   3.520   5.033 -0.7455  0.1361 -0.6415
18435TIP3    H276721   3.896   3.554   5.180 -1.7402 -1.0615 -0.2795
18436TIP3   OH276722   2.292   2.184   3.986 -0.3474  0.0324  0.7027
18436TIP3    H176723   2.282   2.178   3.891 -0.1978  0.3088  0.6678
18436TIP3    H276724   2.355   2.115   4.007 -1.0468 -0.6013  0.7145
18437TIP3   OH276725   6.054   1.613   0.424  0.1512  0.4759  0.2942
18437TIP3    H176726   6.085   1.700   0.400  0.0628  0.6136  0.6797
18437TIP3    H276727   6.038   1.618   0.518  0.9219 -0.1851  0.4755
18438TIP3   OH276728   4.834   3.865  10.981  0.2183 -0.4456  0.4426
18438TIP3    H176729   4.879   3.855  11.065 -0.7314 -0.7283  0.9446
18438TIP3    H276730   4.901   3.851  10.915  1.1350  0.4553  1.1462
18439TIP3   OH276731   2.006   6.686  14.474 -0.4287 -0.1224  0.2487
18439TIP3    H176732   1.959   6.670  14.393  0.2681  1.3559 -0.4820
18439TIP3    H276733   2.081   6.626  14.471 -0.7908 -0.5740  0.1528
18440TIP3   OH276734   1.496   2.900  13.143 -0.2242  0.1287 -0.1567
18440TIP3    H176735   1.445   2.831  13.101  0.2348 -0.5249  0.3344
18440TIP3    H276736   1.489   2.975  13.083 -1.2889 -0.1206 -0.3592
18441TIP3   OH276737   5.158   6.115   3.595 -0.0851  0.3000  0.3273
18441TIP3    H176738   5.193   6.032   3.562 -1.3159 -0.2148  0.2527
18441TIP3    H276739   5.080   6.130   3.542 -1.4643  0.0544  2.1801
18442TIP3   OH276740   1.541   6.654   5.699 -0.0485 -0.1524  0.9703
18442TIP3    H176741   1.571   6.716   5.765  0.8399  1.6452 -1.0018
18442TIP3    H276742   1.618   6.601   5.679  1.1605  2.3495 -1.7832
18443TIP3   OH276743   1.418   4.247  15.062 -0.0320  0.0185 -0.6049
18443TIP3    H176744   1.479   4.271  14.992  0.3252  1.1879  0.0910
18443TIP3    H276745   1.454   4.165  15.098 -0.1096 -0.4829 -1.6397
18444TIP3   OH276746   1.306   4.516   4.270  0.5287 -0.4179  0.5632
18444TIP3    H176747   1.234   4.539   4.328  2.3113  0.7977  2.4395
18444TIP3    H276748   1.381   4.504   4.328  2.4832  1.1536 -1.4641
18445TIP3   OH276749   6.695   1.016   0.156 -0.0600 -0.1229 -0.1327
18445TIP3    H176750   6.686   0.978   0.243 -1.7192 -0.0910 -0.2522
18445TIP3    H276751   6.723   0.943   0.101  0.8745 -0.1727  0.3965
18446TIP3   OH276752   0.769   2.373   6.196 -0.0021 -0.1597  0.0931
18446TIP3    H176753   0.853   2.382   6.241 -0.6180  0.5706  1.1435
18446TIP3    H276754   0.704   2.382   6.265 -0.9522 -0.9447 -0.6701
18447TIP3   OH276755   6.087   3.393   2.310  0.3566 -0.2816 -0.4052
18447TIP3    H176756   6.024   3.460   2.282 -0.8802 -0.2045  2.2391
18447TIP3    H276757   6.097   3.336   2.234 -0.8572  1.2119 -1.7668
18448TIP3   OH276758   3.635   3.042  15.872 -0.0973 -0.0871 -0.1134
18448TIP3    H176759   3.542   3.063  15.864 -0.0599  1.3883  2.4036
18448TIP3    H276760   3.679   3.107  15.816 -0.4995  0.5876  0.3363
18449TIP3   OH276761   4.003   4.513   3.919  0.0034  0.0014 -0.4329
18449TIP3    H176762   3.967   4.457   3.851  0.1416 -1.9606  1.0124
18449TIP3    H276763   4.091   4.478   3.935  1.1043  2.2309 -1.1806
18450TIP3   OH276764   4.799   3.560  11.335  0.5462 -0.3108 -0.4191
18450TIP3    H176765   4.770   3.647  11.309  0.0869 -0.6020 -0.9141
18450TIP3    H276766   4.895   3.565  11.333  0.5248 -0.0621 -1.3362
18451TIP3   OH276767   4.289   4.855   5.274 -0.5196 -0.3787 -0.2660
18451TIP3    H176768   4.212   4.905   5.246  0.1026  0.6782 -0.1420
18451TIP3    H276769   4.344   4.852   5.196 -1.3812 -2.5781 -0.8593
18452TIP3   OH276770   5.341   6.102   0.325  0.1793 -0.1398 -0.1794
18452TIP3    H176771   5.300   6.021   0.354  1.0862 -0.4825  0.1741
18452TIP3    H276772   5.407   6.075   0.261  0.8593  0.2477  0.3311
18453TIP3   OH276773   3.298   3.795  11.596 -0.2891  0.2759  0.1438
18453TIP3    H176774   3.368   3.830  11.541 -0.3133 -1.5873 -1.1494
18453TIP3    H276775   3.218   3.808  11.544 -0.4149 -0.7803  0.0476
18454TIP3   OH276776   2.396   4.480  11.490 -0.3195  0.4302  0.0677
18454TIP3    H176777   2.338   4.497  11.415 -0.6518  0.4511  0.3298
18454TIP3    H276778   2.337   4.451  11.560  0.0522 -0.1653  0.1438
18455TIP3   OH276779   2.535   5.181  15.585  0.5589 -0.5067  0.3249
18455TIP3    H176780   2.477   5.257  15.592  0.2573 -0.8331  1.5459
18455TIP3    H276781   2.565   5.165  15.674  1.6510 -1.0356 -0.1149
18456TIP3   OH276782   4.265   0.269  12.705  0.1224  0.1722 -0.1514
18456TIP3    H176783   4.281   0.363  12.715 -0.0302  0.1249  0.6009
18456TIP3    H276784   4.177   0.264  12.667 -0.0030  0.3317  0.1106
18457TIP3   OH276785   0.081   6.529   0.760  0.3431 -0.4089 -0.1938
18457TIP3    H176786   0.068   6.454   0.818  0.4337 -1.6467 -1.7245
18457TIP3    H276787   0.173   6.522   0.732  0.1573 -0.1162 -0.8802
18458TIP3   OH276788   3.612   0.712   4.271  0.1727 -0.4177 -0.5969
18458TIP3    H176789   3.685   0.677   4.322 -0.3443 -1.6041 -0.6557
18458TIP3    H276790   3.558   0.636   4.249 -0.9099  0.3922 -0.8494
18459TIP3   OH276791   6.585   5.789   1.991 -0.0139 -0.5194 -0.5041
18459TIP3    H176792   6.634   5.871   1.994 -1.6993  0.5044  0.5873
18459TIP3    H276793   6.537   5.793   1.908  2.4554 -2.0315 -2.1220
18460TIP3   OH276794   4.429   2.833  11.760 -0.3646 -0.4538 -0.0272
18460TIP3    H176795   4.459   2.891  11.830  0.3182 -0.5302 -0.2517
18460TIP3    H276796   4.344   2.800  11.790 -0.0447 -0.5341  0.7840
18461TIP3   OH276797   1.966   5.490   3.945 -0.3744  0.1794 -0.0825
18461TIP3    H176798   2.059   5.492   3.969 -0.2029 -0.8924 -0.5753
18461TIP3    H276799   1.922   5.542   4.012  0.7572  2.0280 -0.7239
18462TIP3   OH276800   5.953   1.172  11.721 -0.3975  0.0200  0.1537
18462TIP3    H176801   5.870   1.158  11.675 -1.0859  2.8195  0.4020
18462TIP3    H276802   5.998   1.239  11.671  2.3767 -2.2420 -0.6496
18463TIP3   OH276803   5.410   4.408   1.467  0.3083  0.2478  0.3528
18463TIP3    H176804   5.500   4.395   1.497  0.6165 -0.2088 -0.6906
18463TIP3    H276805   5.380   4.486   1.513  1.4896  0.8185  0.2009
18464TIP3   OH276806   6.233   0.646   5.869  0.2033 -0.2716 -0.3789
18464TIP3    H176807   6.191   0.620   5.951  1.5319 -1.5578 -0.0714
18464TIP3    H276808   6.309   0.698   5.896  1.0231 -1.2491 -0.7371
18465TIP3   OH276809   6.197   0.670   2.958  0.2997 -0.7990  0.2238
18465TIP3    H176810   6.218   0.740   3.020 -1.3270  0.4458 -0.5465
18465TIP3    H276811   6.165   0.598   3.013  0.2917 -0.2713  0.9245
18466TIP3   OH276812   5.683   1.881   5.220 -0.0020  0.3726 -0.7211
18466TIP3    H176813   5.648   1.954   5.170  0.0759  0.3539 -0.8026
18466TIP3    H276814   5.627   1.807   5.197 -0.6509  0.6022  0.0462
18467TIP3   OH276815   2.211   1.303   6.399  1.1020 -0.3048  0.1083
18467TIP3    H176816   2.185   1.224   6.446  2.6006  0.0391  1.6337
18467TIP3    H276817   2.278   1.275   6.338 -0.2724 -0.6144 -1.3213
18468TIP3   OH276818   6.587   5.055  12.232  0.1995  0.8147 -0.3479
18468TIP3    H176819   6.603   4.971  12.189 -1.9506  0.6542 -0.9546
18468TIP3    H276820   6.529   5.102  12.173  1.5962  2.9089 -0.1661
18469TIP3   OH276821   4.081   5.229  12.898 -0.4753  0.0686  0.1908
18469TIP3    H176822   4.026   5.202  12.825  2.6281  0.5902 -2.5973
18469TIP3    H276823   4.083   5.325  12.893  1.6016  0.0334 -0.6546
18470TIP3   OH276824   2.548   4.535   3.095  0.0267 -0.2277 -0.3193
18470TIP3    H176825   2.627   4.580   3.065  1.3592 -2.2564 -0.0941
18470TIP3    H276826   2.506   4.505   3.015  0.7455 -1.0872 -0.3986
18471TIP3   OH276827   4.514   3.622   3.912  0.4809 -0.0700  0.5834
18471TIP3    H176828   4.516   3.553   3.846 -4.2683 -1.9803  2.0076
18471TIP3    H276829   4.564   3.587   3.986  1.3811 -0.2222 -0.0921
18472TIP3   OH276830   6.039   4.059  11.488  0.5318  0.5157 -0.7685
18472TIP3    H176831   5.963   4.034  11.436  1.1690 -0.0997 -1.4147
18472TIP3    H276832   6.063   4.145  11.455  1.1955 -0.0547 -1.8125
18473TIP3   OH276833   2.764   2.157  15.646  0.1808 -0.1168 -0.0173
18473TIP3    H176834   2.769   2.172  15.551  1.1365 -0.0844  0.0300
18473TIP3    H276835   2.743   2.243  15.682  1.6749  0.3012 -0.0677
18474TIP3   OH276836   4.355   6.009   1.243  0.0486 -0.0006  0.3595
18474TIP3    H176837   4.355   6.086   1.299  0.2366  1.3949 -1.4547
18474TIP3    H276838   4.355   5.935   1.303 -3.0408  1.3209  2.2083
18475TIP3   OH276839   5.077   4.582  14.120  0.4541 -0.9633  0.0198
18475TIP3    H176840   4.993   4.567  14.163  0.0397  2.5932  0.8219
18475TIP3    H276841   5.054   4.593  14.027 -0.2007  0.7489  0.3315
18476TIP3   OH276842   2.662   5.496  15.078 -0.2170  0.0686  0.6496
18476TIP3    H176843   2.745   5.475  15.034 -0.8539 -0.2843 -0.4246
18476TIP3    H276844   2.660   5.438  15.154  1.7143  1.8875  2.2383
18477TIP3   OH276845   1.106   3.338   4.627  0.0246 -0.2487  0.4426
18477TIP3    H176846   1.137   3.340   4.536 -0.9527  1.0913  0.1028
18477TIP3    H276847   1.071   3.250   4.638  1.7475 -1.0185  0.1024
18478TIP3   OH276848   6.584   0.715   3.277  0.4877 -0.0450  0.1255
18478TIP3    H176849   6.500   0.692   3.317 -0.1015  0.2789 -0.9067
18478TIP3    H276850   6.570   0.703   3.183  2.0229 -1.3634  0.0227
18479TIP3   OH276851   3.174   6.016  14.303 -0.0255  0.1408  0.0940
18479TIP3    H176852   3.199   5.945  14.362 -1.6686 -0.7079 -0.1624
18479TIP3    H276853   3.202   6.095  14.348  1.9839 -0.6267  0.3248
18480TIP3   OH276854   1.725   5.233   1.558 -0.6262  0.3480 -0.0953
18480TIP3    H176855   1.651   5.218   1.616 -0.0982 -0.5382  0.3834
18480TIP3    H276856   1.788   5.165   1.583 -0.7245 -0.6245 -2.2725
18481TIP3   OH276857   5.640   5.509   0.133  0.2622  0.3500  0.1619
18481TIP3    H176858   5.616   5.483   0.221  1.2997 -1.4022 -0.0344
18481TIP3    H276859   5.717   5.565   0.145 -0.4775  1.3334  0.4337
18482TIP3   OH276860   5.482   4.950   1.962 -0.0646  0.6063  0.7841
18482TIP3    H176861   5.458   5.020   2.022  1.0288  2.9889 -1.3550
18482TIP3    H276862   5.569   4.923   1.990 -0.5421 -0.0245  1.6963
18483TIP3   OH276863   5.048   3.025  14.006  0.1263 -0.3953  0.1050
18483TIP3    H176864   5.101   3.058  14.079 -0.7992  0.8850  0.2380
18483TIP3    H276865   4.987   2.963  14.046 -0.2542  0.1626  0.4107
18484TIP3   OH276866   6.227   5.122  13.493 -0.1534 -0.1024 -0.2888
18484TIP3    H176867   6.304   5.107  13.439  0.4613 -1.8835  0.9917
18484TIP3    H276868   6.182   5.037  13.495  0.1047 -0.2637  2.3232
18485TIP3   OH276869   3.438   5.263  11.877  0.7935 -0.1214  0.1722
18485TIP3    H176870   3.490   5.333  11.916  2.5611 -1.7031  0.8173
18485TIP3    H276871   3.493   5.185  11.886 -1.3123 -1.7081 -0.0102
18486TIP3   OH276872   1.181   1.786   0.083  0.3321  0.3669 -0.4482
18486TIP3    H176873   1.228   1.844   0.023  1.2005  0.3092  0.1444
18486TIP3    H276874   1.107   1.838   0.114  1.4423  1.4242  0.5479
18487TIP3   OH276875   4.320   2.834   3.186 -0.1604 -0.2175  0.8129
18487TIP3    H176876   4.398   2.883   3.211  0.4837 -0.9134  0.2340
18487TIP3    H276877   4.310   2.767   3.254  0.3784 -0.7963  0.3366
18488TIP3   OH276878   2.208   5.964  11.298 -0.3028  0.1528  0.3864
18488TIP3    H176879   2.180   6.054  11.281 -0.2692  0.4203  1.6832
18488TIP3    H276880   2.128   5.919  11.327 -0.5678 -0.5481 -1.2858
18489TIP3   OH276881   4.264   6.109   4.224 -0.1814  0.4248  0.3377
18489TIP3    H176882   4.268   6.205   4.216  1.5509  0.3957  0.6426
18489TIP3    H276883   4.355   6.080   4.219 -0.7599 -1.3584 -1.3351
18490TIP3   OH276884   4.422   0.510  12.698 -0.4747  0.1890 -0.1749
18490TIP3    H176885   4.473   0.534  12.775 -0.2974 -2.4108  0.6379
18490TIP3    H276886   4.479   0.450  12.650 -1.4582 -0.0388 -1.1008
18491TIP3   OH276887   2.769   1.746   0.879  0.1089  0.7380  0.2790
18491TIP3    H176888   2.675   1.748   0.895  0.1822 -0.7208  1.1024
18491TIP3    H276889   2.790   1.653   0.870  1.2556  1.1177 -1.3769
18492TIP3   OH276890   6.269   4.938  13.268  0.6654 -0.3144  0.1402
18492TIP3    H176891   6.223   4.984  13.198 -0.7077  1.4679  2.0680
18492TIP3    H276892   6.247   4.846  13.255 -0.4790  0.0970 -1.1137
18493TIP3   OH276893   4.600   4.094  14.090 -0.5317 -0.2473  0.0985
18493TIP3    H176894   4.544   4.017  14.101  2.3716 -2.3912  1.3924
18493TIP3    H276895   4.659   4.070  14.018 -0.9538  1.7431 -0.9626
18494TIP3   OH276896   2.413   3.338   3.087  0.0225 -0.2158  0.2211
18494TIP3    H176897   2.364   3.387   3.153  2.2303  1.8098  0.4815
18494TIP3    H276898   2.455   3.268   3.137  0.1305  0.1273  0.6186
18495TIP3   OH276899   0.757   3.156  12.041  0.5970  0.3709  0.5846
18495TIP3    H176900   0.749   3.065  12.013 -0.4652 -0.0145  2.0740
18495TIP3    H276901   0.847   3.180  12.019  0.4207 -0.4953 -1.3164
18496TIP3   OH276902   2.838   5.690   2.002  0.1121 -0.3614  0.3099
18496TIP3    H176903   2.927   5.699   2.036 -0.0088  0.8189  0.3543
18496TIP3    H276904   2.816   5.776   1.968 -0.3280 -1.1151 -1.4437
18497TIP3   OH276905   2.715   4.740   4.345  0.0194 -0.1630 -0.1773
18497TIP3    H176906   2.807   4.734   4.319  0.0509  0.0356 -0.1101
18497TIP3    H276907   2.674   4.789   4.274 -0.9865 -4.1340 -2.6633
18498TIP3   OH276908   0.316   0.363   2.437 -0.1401 -0.2910  0.5882
18498TIP3    H176909   0.355   0.342   2.522 -1.0091  0.0389  1.0814
18498TIP3    H276910   0.391   0.381   2.381  0.4770  2.9641  2.1807
18499TIP3   OH276911   6.482   0.448  14.703  0.4097 -0.4935 -0.0050
18499TIP3    H176912   6.504   0.425  14.793  0.2719 -1.2691 -0.1607
18499TIP3    H276913   6.439   0.533  14.709  0.1323 -0.6780  0.6872
18500TIP3   OH276914   2.738   2.262   3.489 -0.0599  0.3014 -0.3362
18500TIP3    H176915   2.703   2.215   3.413 -0.8106  1.6271 -0.8392
18500TIP3    H276916   2.680   2.237   3.561 -0.2356  0.1662 -0.5220
18501TIP3   OH276917   2.564   0.505  14.717 -0.6644  0.0107 -0.3968
18501TIP3    H176918   2.475   0.521  14.749 -0.4434 -0.1279  0.3059
18501TIP3    H276919   2.582   0.414  14.739 -0.1527  0.1907 -0.0449
18502TIP3   OH276920   5.951   4.445   5.262 -0.1737 -0.4065  0.1065
18502TIP3    H176921   5.858   4.458   5.282  0.5815  0.3258  3.7727
18502TIP3    H276922   5.982   4.532   5.236 -0.4117 -0.5958 -0.8577
18503TIP3   OH276923   0.737   2.542   4.975 -0.1677  0.3994  0.2184
18503TIP3    H176924   0.807   2.589   5.020 -0.5553  0.7226  0.4888
18503TIP3    H276925   0.780   2.501   4.900  0.5972 -0.6214  1.1857
18504TIP3   OH276926   2.734   2.113   1.400  0.4896 -0.5969  0.2664
18504TIP3    H176927   2.801   2.152   1.457  2.6574 -1.3108 -1.6684
18504TIP3    H276928   2.712   2.030   1.443 -1.4102  0.8964  2.4344
18505TIP3   OH276929   4.944   5.715   4.528  0.0872 -0.0871 -0.3573
18505TIP3    H176930   5.020   5.773   4.529 -0.4117  0.5701 -0.4348
18505TIP3    H276931   4.967   5.648   4.464  1.5491 -1.1927  1.2069
18506TIP3   OH276932   2.569   0.481  16.102  0.0384  0.3019 -0.0485
18506TIP3    H176933   2.573   0.388  16.079 -0.6306 -0.1123  1.4016
18506TIP3    H276934   2.654   0.516  16.075 -0.0312 -0.5277 -1.4197
18507TIP3   OH276935   2.623   6.035  16.124 -0.2188 -0.2614  0.2243
18507TIP3    H176936   2.676   6.114  16.129 -1.1365  0.4046 -0.1348
18507TIP3    H276937   2.538   6.065  16.090 -0.7280 -1.3292  0.4876
18508TIP3   OH276938   1.455   3.419   5.069 -0.8760  0.0859 -0.0722
18508TIP3    H176939   1.453   3.335   5.115  0.0913  0.1323  0.0652
18508TIP3    H276940   1.391   3.408   4.997 -1.5371 -0.3868  0.5684
18509TIP3   OH276941   3.031   1.175   4.556  0.4091  0.6080 -0.2141
18509TIP3    H176942   3.031   1.145   4.646  0.7724  0.6868 -0.1849
18509TIP3    H276943   3.005   1.099   4.505  2.6746 -0.2123 -0.2729
18510TIP3   OH276944   5.191   2.499   2.845 -0.6685  0.1290 -0.2881
18510TIP3    H176945   5.188   2.507   2.750  1.5481  0.5338 -0.3729
18510TIP3    H276946   5.209   2.588   2.876 -0.0618 -0.2163  0.3938
18511TIP3   OH276947   0.996   6.091  11.054 -0.9289  0.0662  0.2393
18511TIP3    H176948   1.046   6.123  11.129 -1.5533 -1.1273  1.2002
18511TIP3    H276949   1.063   6.070  10.988 -0.3898  1.3179  0.3641
18512TIP3   OH276950   4.650   2.442  16.722 -0.5580 -0.0421 -0.1015
18512TIP3    H176951   4.641   2.357  16.677 -0.9823 -0.3073  0.4772
18512TIP3    H276952   4.691   2.499  16.656  2.6781 -1.5025  0.4362
18513TIP3   OH276953   3.510   5.563   2.462 -0.2873  0.4373 -0.1269
18513TIP3    H176954   3.423   5.571   2.500 -0.4235  0.2008 -0.3897
18513TIP3    H276955   3.569   5.587   2.534 -0.5619  0.4974  0.0810
18514TIP3   OH276956   3.746   3.189  16.091 -0.4443 -0.7368 -0.3048
18514TIP3    H176957   3.714   3.123  16.029 -1.1649 -0.2286 -0.4869
18514TIP3    H276958   3.683   3.261  16.084  0.2351 -0.0992  0.0210
18515TIP3   OH276959   4.636   3.281  11.008  0.5004  0.5378  0.6169
18515TIP3    H176960   4.612   3.231  10.930 -1.4185  1.3935  0.6113
18515TIP3    H276961   4.732   3.281  11.008  0.5457 -1.7927 -0.2094
18516TIP3   OH276962   4.577   2.544   3.226  0.7850 -0.0022  0.0650
18516TIP3    H176963   4.537   2.561   3.140 -0.4742  0.7483  0.7698
18516TIP3    H276964   4.603   2.631   3.257  1.0460 -0.2458  0.5356
18517TIP3   OH276965   5.147   1.973  15.159  0.1122 -0.3459  0.0548
18517TIP3    H176966   5.069   1.936  15.118 -1.8420  0.5420  2.7052
18517TIP3    H276967   5.158   2.059  15.118  0.0912 -0.7241 -0.7537
18518TIP3   OH276968   5.881   6.247   5.254 -0.3295  0.1510  0.0813
18518TIP3    H176969   5.888   6.153   5.273  0.1467  0.2810  0.5704
18518TIP3    H276970   5.795   6.271   5.289 -1.2467 -0.4572 -1.6431
18519TIP3   OH276971   3.793   6.645   3.497 -0.1458 -0.5518 -0.0328
18519TIP3    H176972   3.851   6.685   3.431 -0.0202  0.2755  0.5603
18519TIP3    H276973   3.803   6.551   3.484  0.4234 -0.4044 -0.7272
18520TIP3   OH276974   6.203   4.591  11.173  0.9678 -0.1376  0.4268
18520TIP3    H176975   6.155   4.520  11.130  0.8887 -1.0686  1.9422
18520TIP3    H276976   6.218   4.656  11.105 -1.2591 -0.4237 -0.4028
18521TIP3   OH276977   6.217   4.903  16.509  0.3973 -0.3031  0.6978
18521TIP3    H176978   6.157   4.968  16.473  0.9093 -1.6247 -3.0438
18521TIP3    H276979   6.304   4.942  16.498  0.5719 -0.7527  0.4613
18522TIP3   OH276980   0.740   2.704  11.918 -0.0330  0.2588  0.2436
18522TIP3    H176981   0.721   2.618  11.881  0.1033 -0.4174  1.6735
18522TIP3    H276982   0.667   2.722  11.977  0.6673  0.4538  1.0682
18523TIP3   OH276983   1.757   0.040   4.325  0.1811 -0.5826  0.4475
18523TIP3    H176984   1.762   0.060   4.419  2.4132 -1.0018  0.4792
18523TIP3    H276985   1.695  -0.033   4.319 -0.6434  0.0053  1.4694
18524TIP3   OH276986   1.363   5.891  11.887 -0.1169 -0.2551  0.4172
18524TIP3    H176987   1.272   5.874  11.908 -0.3983 -1.9806 -1.8998
18524TIP3    H276988   1.400   5.925  11.969 -2.8924  0.9844  1.2873
18525TIP3   OH276989   4.343   0.137   5.845 -0.7162 -0.0436  0.5514
18525TIP3    H176990   4.377   0.049   5.828 -1.9781 -0.3966 -0.3499
18525TIP3    H276991   4.332   0.141   5.940  1.0161 -0.1978  0.7814
18526TIP3   OH276992   4.942   5.982   4.199  0.0085  0.1321 -0.1225
18526TIP3    H176993   5.016   5.933   4.236  1.5663  1.2792 -1.5517
18526TIP3    H276994   4.879   5.986   4.271  1.1720 -1.1802  1.0633
18527TIP3   OH276995   1.853   4.471  13.381  0.5568 -0.3777 -0.9088
18527TIP3    H176996   1.943   4.493  13.357  0.4045  1.1179 -0.2672
18527TIP3    H276997   1.799   4.513  13.314  0.3142 -0.9407 -1.0739
18528TIP3   OH276998   1.714   1.660  12.180 -0.6451  0.2126  1.0547
18528TIP3    H176999   1.743   1.572  12.159 -1.2673  0.6052 -2.0897
18528TIP3    H277000   1.794   1.713  12.177 -0.6319  0.1742 -0.3011
18529TIP3   OH277001   6.481   2.950   1.644  0.0860 -0.2669 -0.4672
18529TIP3    H177002   6.422   3.022   1.668 -0.3774 -0.7473 -0.1573
18529TIP3    H277003   6.557   2.994   1.606 -0.3700  0.3705 -0.6635
18530TIP3   OH277004   3.127   1.127  13.830 -0.3560  0.4568  0.2898
18530TIP3    H177005   3.130   1.156  13.739 -1.0376  0.9353  0.4201
18530TIP3    H277006   3.043   1.082  13.839  0.2404 -0.6787  0.3641
18531TIP3   OH277007   1.480   2.306  13.250 -0.1777  0.3089  0.4066
18531TIP3    H177008   1.471   2.236  13.314  2.4467  1.4343  2.1813
18531TIP3    H277009   1.484   2.261  13.165 -0.7095 -1.4548  1.2645
18532TIP3   OH277010   5.314   2.199   3.980 -0.1730  0.3210 -0.0133
18532TIP3    H177011   5.328   2.280   3.930 -1.6123  1.8767  1.9120
18532TIP3    H277012   5.231   2.214   4.027 -0.0791 -1.9750  1.0312
18533TIP3   OH277013   2.550   4.886  16.581  0.2230 -0.5099 -0.3819
18533TIP3    H177014   2.517   4.822  16.517  0.8043  0.4391 -1.6712
18533TIP3    H277015   2.474   4.904  16.637 -0.4692 -0.9524 -1.1452
18534TIP3   OH277016   3.956   5.154  16.716  0.1415  0.7939 -0.6091
18534TIP3    H177017   4.007   5.206  16.655 -0.7076 -0.2936 -2.3264
18534TIP3    H277018   4.019   5.126  16.782  1.5136  0.5084 -1.9881
18535TIP3   OH277019   0.037   2.856  10.752 -0.2380 -0.6724  0.1108
18535TIP3    H177020   0.094   2.823  10.683 -1.0533  1.1904 -1.5464
18535TIP3    H277021  -0.035   2.899  10.705 -1.3318 -0.1978  2.1225
18536TIP3   OH277022   3.187   1.952  14.957 -0.4295  0.2814  0.3446
18536TIP3    H177023   3.190   1.875  14.900  0.8652  0.8975 -0.4566
18536TIP3    H277024   3.134   1.924  15.032  0.7874 -1.7198  0.5360
18537TIP3   OH277025   1.092   4.008  15.775 -0.8362 -0.3371 -0.6971
18537TIP3    H177026   1.172   3.958  15.762 -1.1122 -0.8504 -0.4400
18537TIP3    H277027   1.070   3.994  15.867  0.9910  3.0773  0.4452
18538TIP3   OH277028   6.694   0.012  12.879 -0.7599  0.4073  0.3379
18538TIP3    H177029   6.737   0.037  12.797 -1.7669  0.1114 -0.3010
18538TIP3    H277030   6.723   0.078  12.942  1.5328 -0.4325  0.2490
18539TIP3   OH277031   5.836   3.210  12.517  0.5999  0.1829  0.3324
18539TIP3    H177032   5.761   3.191  12.460  1.3737 -0.5396 -0.4821
18539TIP3    H277033   5.808   3.181  12.604  0.6271 -2.0677 -0.3265
18540TIP3   OH277034   3.320   0.752  15.202 -0.3877 -0.6213 -0.1896
18540TIP3    H177035   3.393   0.783  15.256  0.0137  0.3687 -1.2416
18540TIP3    H277036   3.243   0.761  15.258  0.2000 -1.0526  0.7182
18541TIP3   OH277037   5.637   3.523  10.987 -0.2840 -0.4130 -0.4512
18541TIP3    H177038   5.551   3.543  10.948 -1.7150 -3.2282  0.9425
18541TIP3    H277039   5.640   3.576  11.066 -1.1890 -0.9809 -0.0175
18542TIP3   OH277040   2.739   3.731   3.616 -0.8590 -0.1242  1.0805
18542TIP3    H177041   2.789   3.688   3.686  0.6039  0.7168  0.5787
18542TIP3    H277042   2.708   3.812   3.655 -0.9027 -0.1247  1.0475
18543TIP3   OH277043   2.980   6.703  11.350  0.1286 -0.0770  0.0682
18543TIP3    H177044   2.974   6.771  11.282  0.6395 -0.3644 -0.2635
18543TIP3    H277045   2.897   6.655  11.343 -0.4363  0.7763  0.6019
18544TIP3   OH277046   5.732   6.083   1.917  0.3972  0.7973  0.1760
18544TIP3    H177047   5.653   6.031   1.927 -0.7779  2.2440 -1.0263
18544TIP3    H277048   5.704   6.173   1.937  1.5985  1.4034 -0.7149
18545TIP3   OH277049   5.064   3.103   1.234  0.1307 -0.0736 -0.2188
18545TIP3    H177050   5.155   3.095   1.205 -0.0405  0.4765 -0.9229
18545TIP3    H277051   5.018   3.031   1.191  0.1276 -0.0364 -0.2774
18546TIP3   OH277052   5.336   5.674  12.149 -0.0622  0.8034  0.3288
18546TIP3    H177053   5.266   5.717  12.100  0.1504  0.9810  0.1823
18546TIP3    H277054   5.408   5.736  12.149  0.3656  0.3193 -0.1736
18547TIP3   OH277055   5.320   1.482  11.522 -0.2325 -0.4290  0.0874
18547TIP3    H177056   5.281   1.463  11.436  0.0567 -1.2375  0.1264
18547TIP3    H277057   5.400   1.531  11.501 -0.0733 -0.7731 -0.1150
18548TIP3   OH277058   3.880   6.668   0.009  0.3943  0.4340 -0.4231
18548TIP3    H177059   3.861   6.742  -0.049  1.8592  1.3434  0.2011
18548TIP3    H277060   3.955   6.697   0.061 -0.4301 -0.6079  1.4635
18549TIP3   OH277061   3.136   5.188   5.706  0.4241 -0.3295  0.3666
18549TIP3    H177062   3.162   5.251   5.773 -0.8405  0.5409  0.0958
18549TIP3    H277063   3.050   5.219   5.678  0.9584 -0.6083 -1.7201
18550TIP3   OH277064   5.125   5.790  11.996  0.6048 -0.3152  0.5776
18550TIP3    H177065   5.151   5.870  11.951  1.6480  0.9375  3.2161
18550TIP3    H277066   5.032   5.803  12.016  0.5193 -0.2292  0.1349
18551TIP3   OH277067   4.768   4.892  14.296 -0.0271 -0.1109 -0.1839
18551TIP3    H177068   4.730   4.978  14.279 -1.1062 -1.1460 -3.8830
18551TIP3    H277069   4.704   4.830  14.263  1.6259 -2.2920  0.4449
18552TIP3   OH277070   1.563   4.090   4.156 -0.0783  0.6415 -0.7738
18552TIP3    H177071   1.636   4.067   4.100  0.5440 -1.5519  0.7950
18552TIP3    H277072   1.538   4.007   4.198 -0.3409  2.1293  2.2937
18553TIP3   OH277073   3.235   0.157   1.210  0.5800 -0.1827  0.7579
18553TIP3    H177074   3.178   0.176   1.284  0.9012  2.2523  0.4815
18553TIP3    H277075   3.176   0.127   1.141 -0.2474  1.0123  0.9024
18554TIP3   OH277076   6.270   4.665   5.665 -0.7913 -0.1037 -0.3115
18554TIP3    H177077   6.321   4.597   5.621  0.4042  0.5287  0.0623
18554TIP3    H277078   6.215   4.703   5.596  1.4134  1.2121 -1.4424
18555TIP3   OH277079   0.526   3.789  15.438  0.3540  0.3859 -0.0036
18555TIP3    H177080   0.557   3.709  15.481  1.3577  0.7891  0.0606
18555TIP3    H277081   0.470   3.831  15.503 -1.6878 -1.1265 -0.6796
18556TIP3   OH277082   2.556   4.245   2.932  0.2445 -0.4154 -0.2248
18556TIP3    H177083   2.496   4.191   2.982  2.2456 -1.3812  1.2756
18556TIP3    H277084   2.507   4.325   2.914 -1.7905 -1.5349  0.0243
18557TIP3   OH277085   3.653   2.829  12.070 -0.8756  0.8692 -0.2254
18557TIP3    H177086   3.690   2.746  12.101 -1.4165 -0.0043 -1.8198
18557TIP3    H277087   3.576   2.843  12.125 -0.4400  0.6369  0.4583
18558TIP3   OH277088   4.002   4.792   3.841 -0.6482 -0.1595  0.3070
18558TIP3    H177089   3.991   4.702   3.872  0.0055 -0.2259  0.3722
18558TIP3    H277090   3.948   4.796   3.762  1.2421 -1.4084 -1.1556
18559TIP3   OH277091   1.267   0.975  14.825 -0.3583 -0.3378 -0.5985
18559TIP3    H177092   1.247   0.892  14.869 -0.4262  0.2068  0.4330
18559TIP3    H277093   1.361   0.988  14.839 -0.0368 -0.9496 -2.0331
18560TIP3   OH277094   6.740   3.120  15.366 -0.2439 -0.0822  0.3903
18560TIP3    H177095   6.820   3.130  15.314 -0.8378 -1.4319 -0.8332
18560TIP3    H277096   6.752   3.038  15.414 -0.6259  0.0549  0.7316
18561TIP3   OH277097   6.349   2.419  11.420  0.3283  0.2085 -0.5750
18561TIP3    H177098   6.373   2.492  11.362  0.5691  0.7093  0.1379
18561TIP3    H277099   6.272   2.451  11.468  2.0386  1.1079  1.7279
18562TIP3   OH277100   6.651   1.040   2.914  0.6467 -0.1153 -0.6868
18562TIP3    H177101   6.651   1.132   2.887  0.5525 -0.3468 -1.4975
18562TIP3    H277102   6.690   1.041   3.001 -0.7480  0.8833 -0.0350
18563TIP3   OH277103   2.410   3.875   1.284 -0.1045  0.1497 -0.1456
18563TIP3    H177104   2.424   3.969   1.288 -2.3141  0.6906 -2.1961
18563TIP3    H277105   2.482   3.842   1.230  1.6360  0.3135  1.9465
18564TIP3   OH277106   3.141   2.932   1.663 -0.1095 -0.2033 -0.1721
18564TIP3    H177107   3.115   2.857   1.718  0.5494 -1.3900 -1.4166
18564TIP3    H277108   3.236   2.937   1.673  0.4671 -2.2043 -3.1850
18565TIP3   OH277109   6.376   0.947   0.195 -0.9005 -0.3054 -0.4509
18565TIP3    H177110   6.321   0.984   0.264  0.2412  0.2211  0.2169
18565TIP3    H277111   6.413   0.868   0.234 -1.4640 -0.8548 -1.0221
18566TIP3   OH277112   1.800   5.536   2.390  0.1209 -0.5050 -0.4273
18566TIP3    H177113   1.813   5.602   2.457  1.3734 -0.3566 -0.7837
18566TIP3    H277114   1.875   5.477   2.399  0.4208 -0.3713 -1.7925
18567TIP3   OH277115   2.957   3.581   6.208  0.3180  0.1724 -0.1340
18567TIP3    H177116   3.034   3.638   6.207  0.3842  0.0794 -1.1803
18567TIP3    H277117   2.883   3.639   6.191  0.2540  0.1239 -0.0234
18568TIP3   OH277118   6.338   4.140  13.522 -0.1815  0.3508 -0.5757
18568TIP3    H177119   6.319   4.223  13.478  1.7763  0.5200 -1.1851
18568TIP3    H277120   6.345   4.076  13.452 -2.8425 -0.6677 -0.0386
18569TIP3   OH277121   0.680   0.588   2.787  0.3276 -0.5606 -0.2577
18569TIP3    H177122   0.635   0.633   2.716 -0.0623 -1.1777 -0.4027
18569TIP3    H277123   0.763   0.636   2.797 -1.1544  1.8976  1.3675
18570TIP3   OH277124   3.925   3.284   5.084  0.2227  0.1516 -0.2045
18570TIP3    H177125   3.835   3.279   5.118  0.5203  1.1413  0.7804
18570TIP3    H277126   3.951   3.192   5.074  0.0296 -0.2350  2.1157
18571TIP3   OH277127   3.224   5.433  11.279 -0.2909 -0.5087 -0.9655
18571TIP3    H177128   3.289   5.369  11.307  0.1525 -0.1458 -1.1675
18571TIP3    H277129   3.164   5.384  11.223 -0.5501 -0.9864 -0.2915
18572TIP3   OH277130   5.104   0.561   2.629 -0.9699 -0.4858 -0.1926
18572TIP3    H177131   5.163   0.543   2.703 -2.2828 -0.5775  0.8630
18572TIP3    H277132   5.081   0.474   2.597 -0.4987 -0.4480 -0.6478
18573TIP3   OH277133   6.465   3.634  10.623 -0.4975  0.2376 -0.0517
18573TIP3    H177134   6.480   3.672  10.536 -0.6256 -1.1426 -0.7074
18573TIP3    H277135   6.370   3.623  10.628 -0.4025 -0.8096 -0.2587
18574TIP3   OH277136   6.468   1.141  13.652 -0.0723  0.4636 -0.1308
18574TIP3    H177137   6.430   1.054  13.667 -0.1323  0.7173  1.3000
18574TIP3    H277138   6.402   1.202  13.684  0.3612  1.0128 -0.2647
18575TIP3   OH277139   1.036   5.723   2.696 -0.8040  0.3656 -0.1556
18575TIP3    H177140   1.028   5.789   2.765 -1.6995  0.7516 -0.6168
18575TIP3    H277141   0.984   5.650   2.727 -0.6586  0.2794 -0.1160
18576TIP3   OH277142   5.067   6.383  16.570  0.0382  0.4640 -1.1095
18576TIP3    H177143   5.055   6.400  16.663  0.0602  2.2094 -1.3909
18576TIP3    H277144   5.157   6.350  16.563  0.0073  0.2505 -0.5114
18577TIP3   OH277145   4.712   4.645   4.848  0.7865  0.2577 -0.0172
18577TIP3    H177146   4.752   4.562   4.874  2.9700  1.6802  1.4693
18577TIP3    H277147   4.695   4.691   4.930 -1.2982  0.9583 -0.7586
18578TIP3   OH277148   1.614   5.815   5.448 -0.1057  0.4878  0.2569
18578TIP3    H177149   1.537   5.798   5.502  0.4392 -0.1963  0.8400
18578TIP3    H277150   1.656   5.729   5.439  1.4679  1.0904  1.3377
18579TIP3   OH277151   4.563   4.734   1.632  0.2582  1.2936  0.1149
18579TIP3    H177152   4.631   4.756   1.697  2.5618 -0.2915 -1.5855
18579TIP3    H277153   4.511   4.665   1.673  2.3303 -0.4313  0.0157
18580TIP3   OH277154   3.086   0.929   2.836 -0.7975  0.0244  0.5978
18580TIP3    H177155   3.051   0.920   2.924  0.6660 -1.7610  1.0605
18580TIP3    H277156   3.019   0.978   2.788 -2.2882 -0.2463  2.3044
18581TIP3   OH277157   5.973   4.678   0.561  0.1867 -0.6186  0.3461
18581TIP3    H177158   5.946   4.770   0.564 -0.0535 -0.6631 -0.2615
18581TIP3    H277159   5.967   4.648   0.652 -2.1781 -0.7326  0.2125
18582TIP3   OH277160   2.006   1.122   6.002 -0.1857 -0.5444 -0.0478
18582TIP3    H177161   2.090   1.164   6.020  0.5425 -2.1591  0.5679
18582TIP3    H277162   2.026   1.028   6.000 -1.7285 -0.9014 -1.3104
18583TIP3   OH277163   5.988   3.114   3.302  0.4222  0.2382 -0.1157
18583TIP3    H177164   6.075   3.075   3.292  0.2138  0.1214 -1.8798
18583TIP3    H277165   5.966   3.145   3.214 -1.2798  0.3407  0.3148
18584TIP3   OH277166   2.912   5.100   2.997 -0.1702  0.3041 -0.0358
18584TIP3    H177167   2.984   5.053   2.955  0.3630  0.7780  0.3397
18584TIP3    H277168   2.845   5.107   2.929 -1.1437 -2.8104  0.4455
18585TIP3   OH277169   1.347   4.900   0.498 -0.2469 -0.1785 -0.6390
18585TIP3    H177170   1.395   4.826   0.462  0.0733  0.2985 -1.2047
18585TIP3    H277171   1.408   4.974   0.491 -0.4956  0.1047  0.0811
18586TIP3   OH277172   4.769   5.561   3.605 -0.7092 -0.0071 -0.4611
18586TIP3    H177173   4.706   5.566   3.676 -0.6136  0.2853 -0.3914
18586TIP3    H277174   4.732   5.499   3.543 -0.8154 -0.2291 -0.1775
18587TIP3   OH277175   4.820   2.723   3.605 -0.0244 -0.1986  0.5251
18587TIP3    H177176   4.850   2.795   3.550 -0.8033  0.3193  0.7683
18587TIP3    H277177   4.890   2.711   3.670  1.6632 -1.8335 -1.4236
18588TIP3   OH277178   4.411   1.074  12.913  1.0270  0.8403  0.0832
18588TIP3    H177179   4.480   1.056  12.977  0.1636 -0.5013  0.6678
18588TIP3    H277180   4.428   1.012  12.842  0.5797  0.6996  0.1011
18589TIP3   OH277181   5.737   3.465   5.027 -0.3409 -0.1881  0.9320
18589TIP3    H177182   5.685   3.468   4.946  0.6057 -1.0600  0.2735
18589TIP3    H277183   5.688   3.520   5.088 -1.1913  0.3251 -0.1635
18590TIP3   OH277184   1.328   4.693  14.876 -0.5000  0.1147 -0.1763
18590TIP3    H177185   1.293   4.604  14.873 -0.1640 -0.0789  0.9039
18590TIP3    H277186   1.422   4.682  14.861 -0.2059  0.0738  1.4260
18591TIP3   OH277187   3.201   3.585  15.840 -0.5826  0.4277 -0.0865
18591TIP3    H177188   3.236   3.593  15.751  0.6703  1.5493  0.4777
18591TIP3    H277189   3.167   3.495  15.844  1.7636 -0.5695 -0.8557
18592TIP3   OH277190   3.531   1.340  11.814  0.5387  0.1204  0.3636
18592TIP3    H177191   3.436   1.331  11.820  0.6007 -0.9481  0.1183
18592TIP3    H277192   3.545   1.413  11.754 -0.0829  3.2456  3.7126
18593TIP3   OH277193   1.227   5.200  11.090  0.3581  0.7899  0.0282
18593TIP3    H177194   1.254   5.139  11.159 -0.5446  0.1169 -0.1962
18593TIP3    H277195   1.254   5.158  11.009 -0.6426  0.4680 -0.1537
18594TIP3   OH277196   3.479   4.624  14.585  0.1302  0.0965  0.4789
18594TIP3    H177197   3.555   4.579  14.550  0.2597  1.3068 -0.9107
18594TIP3    H277198   3.410   4.609  14.520  0.2090  1.9104 -0.0943
18595TIP3   OH277199   4.104   5.815   6.417 -0.3378  0.1324 -0.1873
18595TIP3    H177200   4.048   5.748   6.378 -0.2140 -0.4194  0.5756
18595TIP3    H277201   4.100   5.888   6.355 -0.9181 -0.3634 -0.7472
18596TIP3   OH277202   0.554   5.745  11.428  0.1663  0.6638  0.1558
18596TIP3    H177203   0.624   5.809  11.443  0.3103  0.2785  1.2270
18596TIP3    H277204   0.543   5.702  11.513  0.4060 -1.0808 -0.6561
18597TIP3   OH277205   2.822   4.635   3.915  0.3056  0.2512 -0.2531
18597TIP3    H177206   2.756   4.636   3.846  0.0243 -0.8814 -0.0199
18597TIP3    H277207   2.772   4.636   3.996  0.6080  0.4773 -0.0665
18598TIP3   OH277208   1.090   3.938  16.561  0.3843 -0.2839 -0.3718
18598TIP3    H177209   1.085   3.854  16.514 -1.9055  0.8056 -2.2585
18598TIP3    H277210   1.043   3.922  16.643 -2.1613 -0.3067 -1.7410
18599TIP3   OH277211   4.646   3.204  15.918  0.3467 -0.4668 -1.0171
18599TIP3    H177212   4.639   3.109  15.902  0.3534 -0.7491  0.4849
18599TIP3    H277213   4.563   3.227  15.961  1.0101 -0.1349  0.1156
18600TIP3   OH277214   4.877   4.683   3.076 -0.0619  0.8476  0.0869
18600TIP3    H177215   4.944   4.646   3.133 -1.1700  1.8701  2.1888
18600TIP3    H277216   4.924   4.743   3.018  0.9355  0.8373  0.8721
18601TIP3   OH277217   4.570   2.277   0.488  0.1379 -0.4427  0.1621
18601TIP3    H177218   4.655   2.311   0.517 -0.5303  0.6341  0.9431
18601TIP3    H277219   4.525   2.353   0.451 -0.5021 -0.9926 -0.2250
18602TIP3   OH277220   0.132   3.347  16.928 -0.1436  0.6449  0.5037
18602TIP3    H177221   0.041   3.371  16.942 -0.4061  0.3672 -0.6131
18602TIP3    H277222   0.182   3.417  16.971 -0.9016  1.9027 -0.5698
18603TIP3   OH277223   0.713   2.484  12.934 -0.4225  0.0774  0.3630
18603TIP3    H177224   0.638   2.516  12.984  0.1106  0.0951  1.1683
18603TIP3    H277225   0.721   2.392  12.959 -1.7710 -0.6675 -1.7168
18604TIP3   OH277226   5.717   4.397  16.464 -0.3090  0.1259  0.4487
18604TIP3    H177227   5.649   4.331  16.449  0.0011 -0.2082  0.4938
18604TIP3    H277228   5.731   4.395  16.558  1.5504 -1.6337  0.2106
18605TIP3   OH277229   4.995   6.512   4.760  0.0045 -0.0291 -0.0610
18605TIP3    H177230   5.034   6.476   4.681  0.3084  0.5265 -0.1751
18605TIP3    H277231   4.906   6.536   4.734  0.8097  2.3018 -0.9262
18606TIP3   OH277232   6.195   5.862   0.809 -0.3146 -0.2612 -0.0380
18606TIP3    H177233   6.161   5.941   0.852  0.5236  0.9041 -1.4329
18606TIP3    H277234   6.193   5.795   0.877  1.4384  1.6126  2.0213
18607TIP3   OH277235   0.780   6.679   0.507  0.1688 -0.1542  0.6957
18607TIP3    H177236   0.867   6.710   0.483 -0.0875  0.4149  0.4831
18607TIP3    H277237   0.771   6.701   0.599  0.2520 -0.2266  0.7216
18608TIP3   OH277238   6.683   4.543   1.282  0.3203 -0.3620 -0.3948
18608TIP3    H177239   6.733   4.611   1.327 -1.1007 -0.8227  2.0491
18608TIP3    H277240   6.664   4.478   1.349 -3.4432 -0.2598 -1.1040
18609TIP3   OH277241   5.541   0.841   4.313  0.1149 -0.6208 -0.5892
18609TIP3    H177242   5.498   0.802   4.237  0.5179  0.0877 -1.1968
18609TIP3    H277243   5.594   0.911   4.277 -0.1574  0.1288  0.4204
18610TIP3   OH277244   4.872   0.185  15.935 -0.0907  0.3516  0.1434
18610TIP3    H177245   4.809   0.122  15.970 -0.8964  0.9974 -0.1333
18610TIP3    H277246   4.819   0.257  15.902  0.6112 -0.1865 -2.3807
18611TIP3   OH277247   3.236   3.725  15.319 -0.0572  0.0327  0.0861
18611TIP3    H177248   3.197   3.703  15.403 -1.8192 -0.3517 -0.7956
18611TIP3    H277249   3.327   3.746  15.340  0.2911 -2.7192  1.7119
18612TIP3   OH277250   5.626   0.605   0.046 -0.1566 -0.3713  0.1757
18612TIP3    H177251   5.706   0.617  -0.006  0.3001  0.0942  0.9726
18612TIP3    H277252   5.561   0.574  -0.018  0.0840  1.2297 -0.9361
18613TIP3   OH277253   3.382   2.219   0.959  0.6206 -0.1689 -0.4906
18613TIP3    H177254   3.421   2.244   0.876  2.6954  1.2835  0.8484
18613TIP3    H277255   3.333   2.296   0.988 -1.2093 -1.0981 -0.8967
18614TIP3   OH277256   1.506   1.139   2.812  0.0730  0.0268 -0.6292
18614TIP3    H177257   1.569   1.207   2.788 -0.4668  1.0107  0.6543
18614TIP3    H277258   1.546   1.094   2.887 -1.3644  1.7137  1.2722
18615TIP3   OH277259   4.476   1.777  13.500 -0.3083  0.3454 -0.2247
18615TIP3    H177260   4.463   1.863  13.461  1.2265  0.2760 -0.9373
18615TIP3    H277261   4.406   1.770  13.566 -0.4173  2.1544 -0.0978
18616TIP3   OH277262   6.644   0.217  12.258 -0.5091  0.1161 -0.1656
18616TIP3    H177263   6.637   0.310  12.240  0.7941  0.6495  1.7391
18616TIP3    H277264   6.588   0.204  12.335  2.1086  0.1773  1.9140
18617TIP3   OH277265   0.056   5.635   5.532  0.0250 -0.7213 -0.0197
18617TIP3    H177266   0.089   5.565   5.475  1.7531  1.2957 -1.6519
18617TIP3    H277267   0.045   5.710   5.474 -0.3953  0.7903  1.9131
18618TIP3   OH277268   0.489   5.549  12.036 -0.5935  0.0813  0.8239
18618TIP3    H177269   0.568   5.499  12.059  0.1230  0.2216 -1.1031
18618TIP3    H277270   0.463   5.515  11.951 -0.6592  2.2615 -0.1121
18619TIP3   OH277271   1.087   5.297  14.425  0.4450 -0.4770 -0.1202
18619TIP3    H177272   1.113   5.215  14.467  2.2778  0.4015  0.6089
18619TIP3    H277273   1.100   5.282  14.332  2.4102 -0.5187  0.1264
18620TIP3   OH277274   1.307   4.232   4.939 -0.0230 -0.0728 -0.6056
18620TIP3    H177275   1.267   4.145   4.938 -0.2429  0.0328 -1.2282
18620TIP3    H277276   1.398   4.216   4.963 -0.6259 -0.2209  1.8366
18621TIP3   OH277277   1.445   4.660  16.456  0.6708  0.7596  0.2434
18621TIP3    H177278   1.383   4.600  16.414  0.5616  1.2239 -0.2884
18621TIP3    H277279   1.391   4.736  16.480  0.9488  0.9771  0.1871
18622TIP3   OH277280   3.908   1.410  16.308 -0.0924  0.3898 -0.3559
18622TIP3    H177281   3.990   1.384  16.351  0.1165 -0.9786 -1.4889
18622TIP3    H277282   3.922   1.389  16.216 -1.2239  1.4634 -0.8027
18623TIP3   OH277283   5.032   1.308   1.013  0.3261  0.7932 -0.2929
18623TIP3    H177284   4.955   1.283   1.063  1.3148  1.8830  1.8834
18623TIP3    H277285   5.015   1.398   0.984  0.7343  1.0228  0.1569
18624TIP3   OH277286   1.448   3.377   4.442  1.0528 -0.7032  0.5798
18624TIP3    H177287   1.360   3.413   4.432  0.8954 -0.8631  1.3180
18624TIP3    H277288   1.436   3.282   4.439  0.6781 -0.8838  4.1620
18625TIP3   OH277289   3.722   5.268  13.313  0.0139  0.4456 -1.0458
18625TIP3    H177290   3.742   5.322  13.390 -0.1200 -0.8622 -0.0589
18625TIP3    H277291   3.700   5.182  13.349 -1.0239  0.0612 -2.4959
18626TIP3   OH277292   0.555   4.682  16.342  0.3353 -0.1486 -0.6901
18626TIP3    H177293   0.638   4.643  16.313 -0.4337 -0.8261 -2.0606
18626TIP3    H277294   0.563   4.686  16.437  2.3360  0.7264 -0.8376
18627TIP3   OH277295   1.633   3.927   2.419 -0.0897 -0.1755  0.0477
18627TIP3    H177296   1.642   4.021   2.429 -0.7639  0.2410 -2.5658
18627TIP3    H277297   1.635   3.893   2.509 -2.3545  2.5429  1.2649
18628TIP3   OH277298   0.160   2.419  11.300 -0.1559 -0.0449  0.3351
18628TIP3    H177299   0.244   2.375  11.287 -0.0642  0.2819 -0.2175
18628TIP3    H277300   0.099   2.370  11.244  0.3031  1.5551 -1.6980
18629TIP3   OH277301   5.311   4.555  16.910 -0.1479  0.0401 -0.1005
18629TIP3    H177302   5.345   4.640  16.881 -0.5805 -0.4378 -2.1734
18629TIP3    H277303   5.363   4.491  16.863 -1.8004 -0.7698 -0.9064
18630TIP3   OH277304   5.362   1.718  13.456 -0.1071  0.6309 -0.3373
18630TIP3    H177305   5.294   1.706  13.390  0.5004  1.0306 -1.0493
18630TIP3    H277306   5.444   1.702  13.409  0.3060  0.3589  0.4572
18631TIP3   OH277307   3.245   4.224  15.463 -0.0025  0.3479 -0.2194
18631TIP3    H177308   3.260   4.295  15.525 -0.5790  0.4159 -0.1466
18631TIP3    H277309   3.251   4.266  15.377 -0.9937  0.6344 -0.1644
18632TIP3   OH277310   0.657   6.604  15.026  0.0640 -0.0195  0.0398
18632TIP3    H177311   0.579   6.582  15.076 -0.2011 -1.4111 -0.9492
18632TIP3    H277312   0.624   6.634  14.941  0.5201  2.0486  0.5384
18633TIP3   OH277313   4.167   0.663  17.249 -0.4354 -0.0365 -0.2803
18633TIP3    H177314   4.188   0.661  17.342  0.8194  0.2760 -0.5260
18633TIP3    H277315   4.078   0.696  17.244  0.2850  2.2204  0.7110
18634TIP3   OH277316   5.289   4.126   1.434 -0.0621  0.1449  0.0621
18634TIP3    H177317   5.300   4.198   1.496 -3.0684 -0.6982  1.7566
18634TIP3    H277318   5.352   4.060   1.463 -0.4032  0.3509  1.3199
18635TIP3   OH277319   3.878   3.261  13.740 -0.1341 -0.7156  0.9451
18635TIP3    H177320   3.947   3.206  13.778 -0.0548 -0.8406  0.6236
18635TIP3    H277321   3.848   3.212  13.663  1.4301  0.6505 -0.6383
18636TIP3   OH277322   1.805   3.034   4.866 -0.4542  0.2187 -0.0356
18636TIP3    H177323   1.753   3.108   4.833 -1.7548 -1.2717 -1.4818
18636TIP3    H277324   1.874   3.024   4.801 -1.3179 -0.9018 -0.8169
18637TIP3   OH277325   4.033   1.681   5.168 -0.5121 -0.0203  0.6314
18637TIP3    H177326   4.094   1.609   5.151  1.0851  1.5116 -0.3799
18637TIP3    H277327   4.078   1.736   5.232 -1.0085  0.9346  0.1808
18638TIP3   OH277328   6.493   5.285   3.652  0.4284 -0.3202 -0.2060
18638TIP3    H177329   6.515   5.376   3.672  0.2596 -0.2352 -0.4123
18638TIP3    H277330   6.484   5.282   3.557 -0.8909 -0.2585 -0.1016
18639TIP3   OH277331   1.433   1.684  14.239  0.1022  0.0940  0.4981
18639TIP3    H177332   1.514   1.637  14.259  0.9648  0.7135 -1.3449
18639TIP3    H277333   1.394   1.635  14.166 -1.2188 -0.2000  1.3659
18640TIP3   OH277334   4.663   0.103   6.547 -0.5919 -0.4211  0.1589
18640TIP3    H177335   4.673   0.171   6.614 -0.5575 -0.0765 -0.1928
18640TIP3    H277336   4.753   0.080   6.523 -0.5992 -0.9009  0.5877
18641TIP3   OH277337   3.408   6.132  16.403 -0.1459 -0.1863 -0.1653
18641TIP3    H177338   3.453   6.158  16.483 -1.8763  1.0963  0.4525
18641TIP3    H277339   3.333   6.080  16.433 -0.5953 -0.0256 -0.9732
18642TIP3   OH277340   4.005   0.984  12.806 -0.3046  0.7756 -0.4163
18642TIP3    H177341   4.047   0.960  12.723  1.3370  0.6155  0.4242
18642TIP3    H277342   3.925   1.030  12.780 -0.3249 -0.1203 -2.0786
18643TIP3   OH277343   0.092   3.318  14.580 -0.3034  0.1865 -0.5852
18643TIP3    H177344   0.141   3.266  14.517  0.4161  1.1289 -0.8149
18643TIP3    H277345   0.065   3.255  14.647  0.7129 -0.4484 -0.7570
18644TIP3   OH277346   1.109   5.663   1.792  0.6220  0.1467 -0.0333
18644TIP3    H177347   1.108   5.755   1.817  0.9428  0.2857 -0.5108
18644TIP3    H277348   1.065   5.660   1.707  1.4036 -0.0012 -0.4479
18645TIP3   OH277349   4.204   0.684   2.055  0.3212  0.5490  0.1702
18645TIP3    H177350   4.208   0.590   2.068 -1.3100  0.4032 -0.2700
18645TIP3    H277351   4.205   0.695   1.959  2.4292  1.1157  0.1927
18646TIP3   OH277352   0.944   1.803   0.728  0.1012 -0.1160  0.5610
18646TIP3    H177353   0.977   1.887   0.759  0.9556 -0.8103  1.6071
18646TIP3    H277354   0.947   1.809   0.633 -0.6781  1.3385  0.5958
18647TIP3   OH277355   1.226   0.765  14.978 -0.7472  0.6463  1.0152
18647TIP3    H177356   1.175   0.705  15.033  0.8132 -1.5303  0.2403
18647TIP3    H277357   1.284   0.810  15.039 -0.4501 -0.2493  1.4154
18648TIP3   OH277358   0.247   4.632   4.959 -0.1904  0.8468 -0.6109
18648TIP3    H177359   0.197   4.711   4.979  0.0829  0.8153  0.2693
18648TIP3    H277360   0.242   4.580   5.039  1.9513  1.2401 -0.1558
18649TIP3   OH277361   1.279   2.220  15.027 -0.3779 -0.2500  0.2204
18649TIP3    H177362   1.202   2.164  15.029 -1.4139  0.8958 -2.3434
18649TIP3    H277363   1.244   2.309  15.030  0.7992  0.2910 -1.0086
18650TIP3   OH277364   1.840   6.024   3.510  0.1958  0.1090  0.2138
18650TIP3    H177365   1.895   6.074   3.571 -0.6771  2.3093 -0.6762
18650TIP3    H277366   1.788   5.966   3.565  1.2042  0.2297  1.3231
18651TIP3   OH277367   5.283   4.137   3.443  0.0632  0.2036 -0.5547
18651TIP3    H177368   5.340   4.060   3.439 -2.0345 -1.4990  0.5280
18651TIP3    H277369   5.311   4.184   3.521  0.9450  0.2240 -0.8703
18652TIP3   OH277370   5.610   2.504  16.236 -0.5189  0.4841 -0.3229
18652TIP3    H177371   5.544   2.485  16.302 -1.1301  0.2721 -0.9749
18652TIP3    H277372   5.624   2.599  16.243  0.0508  0.3319  0.6718
18653TIP3   OH277373   2.828   3.568   3.817  0.2607  0.8622  0.2214
18653TIP3    H177374   2.910   3.587   3.862 -0.5309 -0.3791  2.2980
18653TIP3    H277375   2.836   3.476   3.790 -1.2415  0.0199  2.4056
18654TIP3   OH277376   2.477   4.028  12.332 -0.1246 -0.2190 -0.5263
18654TIP3    H177377   2.449   3.954  12.385 -0.4233 -1.0634 -1.8317
18654TIP3    H277378   2.552   4.064  12.379  0.2476 -1.5623 -0.0518
18655TIP3   OH277379   4.076   5.426   4.337 -0.1932 -0.4885 -0.1582
18655TIP3    H177380   4.095   5.352   4.395  1.0241 -0.5291 -0.5691
18655TIP3    H277381   4.059   5.499   4.396 -0.1086 -0.8017  0.2573
18656TIP3   OH277382   3.618   1.931  15.437 -0.0704  0.2359 -0.2431
18656TIP3    H177383   3.577   1.845  15.428  0.4027 -0.1352  1.0163
18656TIP3    H277384   3.551   1.992  15.407 -0.4575 -0.5495 -1.0426
18657TIP3   OH277385   5.004   1.392  11.677 -0.3020 -0.2123  0.6068
18657TIP3    H177386   5.016   1.311  11.727  1.0652 -1.5297 -1.6647
18657TIP3    H277387   5.076   1.448  11.707  0.1249 -0.7312  0.5748
18658TIP3   OH277388   5.317   2.753  14.845 -0.2523  0.9204 -0.0303
18658TIP3    H177389   5.271   2.674  14.874  1.0079  0.1298 -0.0883
18658TIP3    H277390   5.271   2.780  14.766 -1.3906  0.9128  0.5979
18659TIP3   OH277391   6.567   4.529  12.794 -0.5961 -0.2324 -0.4616
18659TIP3    H177392   6.640   4.567  12.843  0.5095  0.1136 -2.2690
18659TIP3    H277393   6.489   4.563  12.836  0.3277  1.0327  0.2923
18660TIP3   OH277394   3.260   3.021  14.680 -0.2223  0.5480 -0.1738
18660TIP3    H177395   3.292   3.028  14.770  0.9935 -0.9443 -0.4501
18660TIP3    H277396   3.207   3.100  14.667 -0.9447  0.4902  2.0411
18661TIP3   OH277397   3.460   4.493   0.341 -0.6174 -0.2281 -0.4237
18661TIP3    H177398   3.369   4.464   0.334 -0.4904 -0.4910 -1.1354
18661TIP3    H277399   3.493   4.450   0.419 -1.3695  0.6365  0.4071
18662TIP3   OH277400   2.412   4.244  13.518  0.0007 -0.5521 -0.2604
18662TIP3    H177401   2.407   4.186  13.443  1.6627 -0.1974 -0.6827
18662TIP3    H277402   2.344   4.212  13.578 -0.3620 -1.7413 -1.2663
18663TIP3   OH277403   1.743   2.049   0.735 -0.6958  0.2810 -0.3907
18663TIP3    H177404   1.651   2.038   0.760  0.4154 -0.4285  4.4076
18663TIP3    H277405   1.775   1.959   0.722 -0.1803  0.3223  0.4845
18664TIP3   OH277406   5.748   2.941   2.476 -0.1036 -0.4296  0.5071
18664TIP3    H177407   5.676   2.981   2.427 -0.3559  0.3005  1.4519
18664TIP3    H277408   5.816   3.008   2.478  1.1984 -1.5477 -1.5027
18665TIP3   OH277409   1.909   2.468  16.131  0.1165 -0.2795  0.1478
18665TIP3    H177410   1.942   2.491  16.044 -1.8703 -2.2231 -1.2377
18665TIP3    H277411   1.855   2.542  16.157 -0.4971 -0.3095 -0.9940
18666TIP3   OH277412   6.588   0.480  12.208 -0.5547  0.5934 -0.3535
18666TIP3    H177413   6.642   0.518  12.139  0.4150  0.8341  0.5175
18666TIP3    H277414   6.498   0.496  12.179 -0.1992 -0.5737 -2.2413
18667TIP3   OH277415   5.247   3.902  16.519  0.2990 -0.0412  0.7126
18667TIP3    H177416   5.218   3.981  16.565  3.6661  1.1304  1.0921
18667TIP3    H277417   5.239   3.832  16.584 -0.1368  0.5088  1.2692
18668TIP3   OH277418   2.375   1.211  11.751 -0.2136 -0.1333 -1.0429
18668TIP3    H177419   2.366   1.294  11.704 -2.5380  0.7025  0.6523
18668TIP3    H277420   2.359   1.144  11.685  0.0857  0.8255 -2.1283
18669TIP3   OH277421   0.915   6.686  13.444  0.5779  0.3131  0.2855
18669TIP3    H177422   1.008   6.688  13.468  0.0879 -0.4642  2.4914
18669TIP3    H277423   0.904   6.603  13.399  0.9685  0.4803 -0.1328
18670TIP3   OH277424   1.773   6.503   5.913  0.4207 -0.5006 -0.0466
18670TIP3    H177425   1.771   6.485   5.818 -1.0592 -0.0301 -0.1352
18670TIP3    H277426   1.758   6.597   5.920  1.6981 -0.3277  0.6391
18671TIP3   OH277427   6.265   1.090   0.404 -0.1185  0.0497  0.4867
18671TIP3    H177428   6.257   1.084   0.499 -1.6077 -0.1979  0.3778
18671TIP3    H277429   6.237   1.179   0.383  0.6923  0.2664  0.3197
18672TIP3   OH277430   1.481   0.173   2.835 -0.4835 -0.4575 -0.2455
18672TIP3    H177431   1.509   0.082   2.832 -1.9990 -0.9859  0.6836
18672TIP3    H277432   1.496   0.200   2.926 -1.3941 -0.2373 -0.1574
18673TIP3   OH277433   3.704   6.203  14.576  0.1611 -1.0395 -0.4748
18673TIP3    H177434   3.782   6.235  14.531  0.0398 -1.4315 -0.9785
18673TIP3    H277435   3.697   6.258  14.654  0.4598 -0.4420 -0.8586
18674TIP3   OH277436   6.051   4.224  16.477  0.7704 -0.2067  1.2168
18674TIP3    H177437   6.099   4.173  16.411  0.9083  1.0903  0.2790
18674TIP3    H277438   6.052   4.168  16.555 -0.2925 -2.2647 -0.1264
18675TIP3   OH277439   3.112   0.744   5.727  0.2572  0.0169  1.1153
18675TIP3    H177440   3.099   0.835   5.699 -0.5128 -0.8454 -1.6474
18675TIP3    H277441   3.189   0.747   5.784 -0.0979  2.4474  1.5825
18676TIP3   OH277442   5.381   1.923  15.393  0.1410 -0.2296 -0.2050
18676TIP3    H177443   5.348   1.834  15.382 -0.9067  0.1492 -0.3184
18676TIP3    H277444   5.323   1.977  15.339  0.6245  0.5496  0.0298
18677TIP3   OH277445   1.470   2.022   1.662 -0.1933  0.2386  0.2123
18677TIP3    H177446   1.539   2.043   1.725  1.6459 -2.8425 -0.5653
18677TIP3    H277447   1.465   2.098   1.605  0.8611  1.4893  1.7214
18678TIP3   OH277448   1.680   0.302   4.982 -0.5803  0.3582 -0.6219
18678TIP3    H177449   1.741   0.371   4.959 -0.6074  0.1860 -1.2036
18678TIP3    H277450   1.644   0.330   5.067  0.9485  0.0142  0.1581
18679TIP3   OH277451   6.408   4.813   1.880  0.1800  0.8505 -0.5481
18679TIP3    H177452   6.347   4.887   1.886 -0.9410  0.0360 -1.5023
18679TIP3    H277453   6.374   4.759   1.809 -0.5017 -1.8771  1.6401
18680TIP3   OH277454   2.188   5.188   0.753 -0.2478  0.6650  0.1990
18680TIP3    H177455   2.106   5.157   0.716  0.0104  0.5915 -0.3177
18680TIP3    H277456   2.237   5.109   0.775  0.4329  0.6828 -1.1692
18681TIP3   OH277457   2.009   4.980   1.108 -0.1395 -0.0461  0.4693
18681TIP3    H177458   1.966   4.895   1.122 -1.0727  0.4589  0.7341
18681TIP3    H277459   1.943   5.034   1.065  0.6263  0.3887 -0.1828
18682TIP3   OH277460   3.771   6.525   2.930 -0.6358 -0.3628  0.2348
18682TIP3    H177461   3.776   6.618   2.908 -0.0872 -0.5158 -0.3136
18682TIP3    H277462   3.677   6.505   2.930 -0.7537  0.1932  0.3782
18683TIP3   OH277463   5.345   0.479  14.808  0.1483  0.1616 -0.1809
18683TIP3    H177464   5.430   0.488  14.850  0.7393  1.9036 -1.5924
18683TIP3    H277465   5.307   0.400  14.846  1.9046 -0.0268  1.3082
18684TIP3   OH277466   2.799   1.743  15.839 -0.6868  0.3383 -0.4700
18684TIP3    H177467   2.875   1.731  15.896 -0.1321  2.1133 -0.7666
18684TIP3    H277468   2.744   1.806  15.886  0.0131  2.2196 -2.0189
18685TIP3   OH277469   5.334   1.392  13.843  0.4741  0.0335 -0.1051
18685TIP3    H177470   5.350   1.442  13.924  1.1656 -0.5519  0.1314
18685TIP3    H277471   5.349   1.301  13.868 -0.6042 -0.2967 -0.5741
18686TIP3   OH277472   3.505   0.590  11.979 -0.2183  0.3512  0.5317
18686TIP3    H177473   3.557   0.670  11.992  1.3366 -0.4627 -0.3582
18686TIP3    H277474   3.419   0.622  11.951  0.8772  1.7228 -1.5332
18687TIP3   OH277475   4.362   4.002   0.386 -0.4108  0.1578 -0.0735
18687TIP3    H177476   4.415   4.074   0.421 -0.5447  0.3193 -0.2076
18687TIP3    H277477   4.367   3.934   0.454  0.3045  0.0132 -0.2604
18688TIP3   OH277478   5.619   6.330  11.180 -0.4998  0.0165  0.3224
18688TIP3    H177479   5.629   6.335  11.085  0.6356 -1.4302  0.3286
18688TIP3    H277480   5.534   6.372  11.198 -0.6467  0.4608 -1.2939
18689TIP3   OH277481   3.983   6.282  13.455  0.3756 -0.3357  0.5497
18689TIP3    H177482   3.951   6.194  13.434 -0.4786  0.4566 -1.7261
18689TIP3    H277483   4.072   6.285  13.419  0.2388 -0.1262  0.2258
18690TIP3   OH277484   1.706   3.875   4.631  0.2680  0.2455  0.3178
18690TIP3    H177485   1.771   3.816   4.671 -0.3534 -0.5792  0.1402
18690TIP3    H277486   1.660   3.914   4.705 -0.4334 -0.7720  0.4358
18691TIP3   OH277487   6.223   3.786   2.531 -0.2165  0.0681 -0.0523
18691TIP3    H177488   6.172   3.863   2.555 -1.9038  0.2523 -3.6330
18691TIP3    H277489   6.304   3.822   2.494 -1.1119  0.2411 -1.9606
18692TIP3   OH277490   1.195   5.972  10.897 -0.6199  0.1310  0.1725
18692TIP3    H177491   1.223   6.056  10.863 -2.3147  1.2799  1.4572
18692TIP3    H277492   1.275   5.931  10.930  0.2680  1.0716 -0.7591
18693TIP3   OH277493   6.417   3.619  12.052  0.6684 -1.1968 -0.0320
18693TIP3    H177494   6.473   3.668  11.991 -0.3848 -2.5304 -2.2166
18693TIP3    H277495   6.344   3.678  12.070  1.1374 -0.6745  0.1882
18694TIP3   OH277496   4.955   2.996  15.614 -0.2250  0.1868 -0.2948
18694TIP3    H177497   4.862   2.975  15.617 -0.1940  0.1735  1.3200
18694TIP3    H277498   4.999   2.912  15.627  0.0168  0.2350 -0.7725
18695TIP3   OH277499   0.669   1.437   0.015  0.3202 -0.0844 -0.2131
18695TIP3    H177500   0.681   1.393  -0.069  0.5967 -1.5820  0.5600
18695TIP3    H277501   0.757   1.465   0.040  0.0055  1.9539 -1.1942
18696TIP3   OH277502   4.919   2.376   2.030  0.2387  0.2710  0.1950
18696TIP3    H177503   4.978   2.451   2.031 -0.9414  1.2262  0.3339
18696TIP3    H277504   4.968   2.307   1.983  0.4266  1.9101 -2.1966
18697TIP3   OH277505   4.953   5.579   6.463  0.3812  0.5028  0.4325
18697TIP3    H177506   4.923   5.667   6.440 -0.1749 -0.1598 -1.4991
18697TIP3    H277507   5.017   5.556   6.395 -0.4186 -1.0623  0.1567
18698TIP3   OH277508   3.173   0.294   0.511  0.6724 -0.2560  0.0926
18698TIP3    H177509   3.212   0.207   0.503  0.4529 -0.2436 -1.2101
18698TIP3    H277510   3.205   0.327   0.595 -0.7185 -2.3150  1.5300
18699TIP3   OH277511   5.264   5.480   1.962  0.5424 -0.1617 -0.1351
18699TIP3    H177512   5.310   5.490   2.045 -0.1904 -0.5669  0.3299
18699TIP3    H277513   5.294   5.396   1.928  0.7082 -0.0773 -0.2003
18700TIP3   OH277514   0.957   4.197  17.259  0.7486  0.0578  0.1394
18700TIP3    H177515   0.992   4.150  17.184 -2.8460 -0.1598 -1.6295
18700TIP3    H277516   1.034   4.229  17.306  3.1994 -1.6314 -2.4189
18701TIP3   OH277517   3.232   0.431  13.252 -0.2840 -0.5326  0.3221
18701TIP3    H177518   3.188   0.494  13.310  1.1750  1.8288 -0.9908
18701TIP3    H277519   3.179   0.430  13.173  0.9396  0.9663 -0.5777
18702TIP3   OH277520   1.610   2.441   5.853  0.6581  0.0634 -0.0312
18702TIP3    H177521   1.532   2.494   5.839  2.2064  2.0241 -2.3866
18702TIP3    H277522   1.680   2.506   5.868  1.9663 -1.5549  1.1733
18703TIP3   OH277523   5.368   5.091  14.728  0.3859  0.3994 -0.0721
18703TIP3    H177524   5.385   5.163  14.668 -0.1606 -0.6527 -1.5436
18703TIP3    H277525   5.275   5.099  14.750 -0.1734 -0.9129 -1.7628
18704TIP3   OH277526   5.452   5.009  12.955  0.2979  0.0035 -0.0834
18704TIP3    H177527   5.417   5.095  12.934  1.3461 -0.0930 -2.5087
18704TIP3    H277528   5.455   5.007  13.051  0.3319  2.6768  0.0353
18705TIP3   OH277529   4.325   4.268   2.649 -0.3924 -0.1402 -0.2092
18705TIP3    H177530   4.269   4.193   2.669 -2.1388  0.1924 -3.2355
18705TIP3    H277531   4.393   4.232   2.592  0.9485 -0.0146  1.2417
18706TIP3   OH277532   6.543   4.349  13.840 -0.9319 -0.2574 -0.6110
18706TIP3    H177533   6.516   4.409  13.770  1.0202  2.1207  0.4995
18706TIP3    H277534   6.512   4.390  13.921  1.2748 -0.1595  0.2641
18707TIP3   OH277535   1.761   6.472   2.970  0.5782 -0.2683 -0.3750
18707TIP3    H177536   1.808   6.552   2.995 -0.4051  0.2274 -0.0500
18707TIP3    H277537   1.823   6.401   2.987  1.2655  0.3785 -0.1301
18708TIP3   OH277538   0.430   3.240  14.451 -0.1298  0.4565  0.2527
18708TIP3    H177539   0.423   3.303  14.379  2.2315  1.9469  1.2068
18708TIP3    H277540   0.346   3.194  14.450 -0.3313  0.5737 -3.2389
18709TIP3   OH277541   1.656   6.177  15.534 -0.5008  0.1285 -0.4931
18709TIP3    H177542   1.661   6.266  15.570 -0.7666  0.0169 -0.1776
18709TIP3    H277543   1.724   6.129  15.581 -1.6996 -0.3466  0.8162
18710TIP3   OH277544   0.198   0.771   5.431 -0.3823 -0.6965  0.1000
18710TIP3    H177545   0.180   0.682   5.401 -0.8237 -0.7184  0.4107
18710TIP3    H277546   0.161   0.827   5.362  2.1060 -0.7155 -1.3835
18711TIP3   OH277547   4.330   5.728  16.304 -0.1282  0.3112  0.0202
18711TIP3    H177548   4.357   5.820  16.313 -0.6973  0.4417  0.4614
18711TIP3    H277549   4.243   5.725  16.343 -0.8705 -0.0478 -1.6050
18712TIP3   OH277550   0.509   6.386   5.013 -0.0523 -0.8616 -0.5217
18712TIP3    H177551   0.563   6.348   5.082 -0.8135 -0.2517  0.4435
18712TIP3    H277552   0.507   6.479   5.032  0.4219 -0.5527 -1.8790
18713TIP3   OH277553   4.475   3.887   4.529 -0.3137  0.0925  0.0880
18713TIP3    H177554   4.399   3.829   4.527  0.0158 -0.4488  1.8286
18713TIP3    H277555   4.551   3.828   4.533  0.0303  0.6027  1.7611
18714TIP3   OH277556   5.650   0.846   3.714  0.0048  0.1145  0.7118
18714TIP3    H177557   5.697   0.851   3.631  1.7490  0.2766  1.6405
18714TIP3    H277558   5.607   0.931   3.723  0.1468  0.2443  0.1669
18715TIP3   OH277559   1.456   6.480  14.252  0.2416  0.2280 -0.5100
18715TIP3    H177560   1.425   6.442  14.170  0.1564  1.4233 -1.0479
18715TIP3    H277561   1.518   6.547  14.225 -1.1647  1.9144  0.2900
18716TIP3   OH277562   2.424   2.454  15.315 -0.5633  0.1289 -0.3624
18716TIP3    H177563   2.405   2.366  15.347  1.7168 -0.7004 -1.0468
18716TIP3    H277564   2.467   2.439  15.230  0.9894  1.8057  0.0725
18717TIP3   OH277565   3.841   1.245  14.663  0.2451 -0.1700  0.4589
18717TIP3    H177566   3.841   1.158  14.702  0.0601 -0.1902  0.4161
18717TIP3    H277567   3.751   1.257  14.631  0.3436 -0.0796  0.2092
18718TIP3   OH277568   2.298   1.439   4.600 -0.0696  0.4097 -0.5296
18718TIP3    H177569   2.241   1.516   4.591 -0.4784 -0.0241 -1.9501
18718TIP3    H277570   2.382   1.467   4.565 -0.4497 -0.0080 -1.8269
18719TIP3   OH277571   2.365   0.259  15.170  0.2673 -0.3302 -0.1553
18719TIP3    H177572   2.460   0.259  15.182  0.4409  0.4538 -1.3135
18719TIP3    H277573   2.344   0.350  15.147 -1.0508 -0.0118  2.0759
18720TIP3   OH277574   1.621   4.425   0.642 -0.0364  0.1542  0.4613
18720TIP3    H177575   1.541   4.418   0.693  0.5459 -1.8346  1.2152
18720TIP3    H277576   1.638   4.336   0.612  1.6473  0.6119 -0.0581
18721TIP3   OH277577   1.513   5.425   0.167 -0.1718  0.1142 -0.0058
18721TIP3    H177578   1.527   5.330   0.168  1.4378  0.2731 -1.6228
18721TIP3    H277579   1.421   5.436   0.192 -0.3293 -1.8403  0.4552
18722TIP3   OH277580   1.862   3.838  15.065 -0.0277 -0.3504 -0.2045
18722TIP3    H177581   1.820   3.812  14.983 -1.4927 -1.7577  0.9339
18722TIP3    H277582   1.865   3.758  15.117  1.2854  0.4159  0.9807
18723TIP3   OH277583   5.903   3.859  16.928 -0.3658 -0.0953  0.4898
18723TIP3    H177584   5.905   3.804  17.006 -2.9934  2.3123  2.4315
18723TIP3    H277585   5.834   3.821  16.873 -1.0444  0.3082  1.0582
18724TIP3   OH277586   6.554   5.100   1.575  0.3009  0.3102 -0.1689
18724TIP3    H177587   6.558   5.006   1.558 -0.4168  0.5068 -1.5470
18724TIP3    H277588   6.563   5.141   1.489  1.7105  1.5591  0.5113
18725TIP3   OH277589   0.443   6.287   5.898  0.7100  0.4612 -0.1641
18725TIP3    H177590   0.520   6.239   5.930 -0.6676 -0.0282  2.7726
18725TIP3    H277591   0.377   6.275   5.967 -2.0337  0.8428 -2.5317
18726TIP3   OH277592   0.591   6.160  12.236 -0.0203  0.2705 -0.1504
18726TIP3    H177593   0.604   6.150  12.141 -0.4568  0.4978 -0.2349
18726TIP3    H277594   0.633   6.083  12.274  1.2431  0.7957 -0.4423
18727TIP3   OH277595   5.440   4.270  13.134  0.0678  0.2711  0.0674
18727TIP3    H177596   5.366   4.225  13.175  0.6672  0.3306  1.2672
18727TIP3    H277597   5.477   4.323  13.204  1.0980  0.4328 -0.5849
18728TIP3   OH277598   1.031   4.249  11.701 -0.3916 -0.1944  0.3388
18728TIP3    H177599   0.944   4.259  11.663 -0.7170 -3.5438 -0.1479
18728TIP3    H277600   1.019   4.267  11.794 -1.2374  0.9186  0.0289
18729TIP3   OH277601   1.012   0.162  11.649  0.2103 -0.0752  0.3352
18729TIP3    H177602   1.006   0.249  11.690 -0.6889  0.6347 -1.2056
18729TIP3    H277603   1.102   0.135  11.665  0.1929  0.6263  1.8261
18730TIP3   OH277604   3.761   1.688   1.961 -0.2871  0.2845 -0.1978
18730TIP3    H177605   3.774   1.781   1.981  3.1817  0.0301 -0.6510
18730TIP3    H277606   3.728   1.687   1.872  0.5714  1.0905 -0.5373
18731TIP3   OH277607   1.854   6.162  16.757  0.3449  0.1082 -0.4054
18731TIP3    H177608   1.777   6.215  16.739  0.0944  0.1004  0.5914
18731TIP3    H277609   1.825   6.097  16.822  1.1158 -0.0554 -0.2057
18732TIP3   OH277610   2.214   1.258  16.648  0.5612  0.2467  0.2278
18732TIP3    H177611   2.231   1.287  16.558  2.0979  0.7978  0.6582
18732TIP3    H277612   2.216   1.339  16.700 -0.9388  0.0172  0.7025
18733TIP3   OH277613   2.427   3.488  10.637 -0.1258 -0.4866 -0.1492
18733TIP3    H177614   2.482   3.484  10.559 -0.7974  0.2654 -0.6846
18733TIP3    H277615   2.477   3.442  10.704  1.5386  0.8514 -0.3919
18734TIP3   OH277616   1.284   5.943  14.650 -0.2370  0.4929  0.1280
18734TIP3    H177617   1.280   5.852  14.679 -0.5523  0.2017 -0.7993
18734TIP3    H277618   1.298   5.993  14.731  1.8371 -0.5108  0.4434
18735TIP3   OH277619   2.156   2.787  10.972 -0.0917 -0.6364 -0.0613
18735TIP3    H177620   2.113   2.855  10.920  0.0459 -0.4586  0.0561
18735TIP3    H277621   2.083   2.738  11.011 -0.1893 -0.2664  0.2250
18736TIP3   OH277622   3.322   5.991   4.854  0.1879 -0.0668  1.1482
18736TIP3    H177623   3.289   5.995   4.944 -1.2084 -1.5027  0.7397
18736TIP3    H277624   3.407   5.949   4.862 -0.2588 -0.8830  1.7353
18737TIP3   OH277625   3.104   5.358  12.140  0.0235 -0.3696  0.1997
18737TIP3    H177626   3.193   5.327  12.158  0.3786 -0.0878 -0.9655
18737TIP3    H277627   3.116   5.446  12.104 -0.7390 -0.3063  0.0799
18738TIP3   OH277628   1.399   6.001   3.713 -0.4305 -0.0720  0.0947
18738TIP3    H177629   1.325   6.062   3.715 -1.1594 -0.8813 -1.2067
18738TIP3    H277630   1.433   6.003   3.803 -0.8665  1.6989  0.2639
18739TIP3   OH277631   5.469   1.077   3.768 -0.2359  0.4183  0.1648
18739TIP3    H177632   5.471   1.158   3.717 -2.2604  0.1919 -0.3572
18739TIP3    H277633   5.379   1.072   3.802 -0.1492 -1.5660  0.2420
18740TIP3   OH277634   1.559   4.470   5.382 -0.2861  0.6583 -0.0878
18740TIP3    H177635   1.489   4.534   5.366 -0.2860  0.2321 -2.0214
18740TIP3    H277636   1.630   4.496   5.323  0.5100  0.0420  0.5647
18741TIP3   OH277637   0.483   4.177  11.920  0.0122  0.0284  0.4677
18741TIP3    H177638   0.426   4.126  11.978  0.6298 -0.2622  0.8260
18741TIP3    H277639   0.572   4.150  11.943  0.2534 -2.0027 -2.2987
18742TIP3   OH277640   3.266   3.875  11.338  0.2329  0.3875  0.7083
18742TIP3    H177641   3.360   3.868  11.320  0.0619  0.5474 -0.2655
18742TIP3    H277642   3.226   3.807  11.283 -0.2351  0.3894  1.0421
18743TIP3   OH277643   2.892   6.264  10.606  0.1684  0.0916  0.3755
18743TIP3    H177644   2.974   6.312  10.618  0.1087  0.0618  0.9574
18743TIP3    H277645   2.907   6.181  10.651  0.9563 -1.2650 -2.2145
18744TIP3   OH277646   3.602   0.992   4.308 -0.2347  0.6423  0.1339
18744TIP3    H177647   3.590   0.947   4.225 -0.0561  0.3090  0.2868
18744TIP3    H277648   3.565   0.933   4.373  0.8332  0.2945  0.4397
18745TIP3   OH277649   4.078   6.413   4.152 -0.4658 -0.1551 -0.7076
18745TIP3    H177650   4.161   6.459   4.168 -1.7977  2.5570 -1.0399
18745TIP3    H277651   4.038   6.406   4.239 -0.6363  0.0627 -0.7693
18746TIP3   OH277652   6.664   1.780  13.640 -0.2214  0.1671  0.0467
18746TIP3    H177653   6.756   1.790  13.613  0.5921 -0.6188  2.2659
18746TIP3    H277654   6.630   1.712  13.582  1.1451 -0.7859  0.3084
18747TIP3   OH277655   5.675   1.152  12.984  0.1563 -0.4608  0.0245
18747TIP3    H177656   5.681   1.235  13.032  0.9076 -0.6072  0.2020
18747TIP3    H277657   5.615   1.099  13.035 -0.4431  0.0227 -0.1654
18748TIP3   OH277658   6.386   1.255  12.139  0.9141  0.4518  0.1482
18748TIP3    H177659   6.332   1.313  12.084 -0.8409 -0.9925  0.2610
18748TIP3    H277660   6.331   1.236  12.215  0.3171 -3.3533 -1.0625
18749TIP3   OH277661   0.165   4.367  12.407  0.4653 -0.1883 -0.4388
18749TIP3    H177662   0.152   4.448  12.357 -0.9297 -0.0557  0.1013
18749TIP3    H277663   0.139   4.390  12.496  3.1508 -0.3493  0.4547
18750TIP3   OH277664   4.058   2.872   2.638 -0.2057 -0.0183  0.4256
18750TIP3    H177665   4.030   2.946   2.583 -0.7115 -0.1205  0.5370
18750TIP3    H277666   4.130   2.833   2.590 -0.3727  0.1473  0.0329
18751TIP3   OH277667   0.342   1.079  17.093  0.3439 -0.3043  0.5487
18751TIP3    H177668   0.318   1.000  17.141  1.6815 -0.3454  1.2123
18751TIP3    H277669   0.430   1.060  17.059  0.1114  0.3766 -0.4608
18752TIP3   OH277670   6.704   5.400  14.637 -0.7083  0.3393  0.1289
18752TIP3    H177671   6.757   5.452  14.576  1.9721 -2.0684  0.2360
18752TIP3    H277672   6.656   5.340  14.581 -0.2357 -0.1399  0.2334
18753TIP3   OH277673   3.596   1.173  13.494  0.1694 -0.4536  0.1790
18753TIP3    H177674   3.577   1.124  13.415 -0.0263 -0.9361  0.5182
18753TIP3    H277675   3.690   1.162  13.508  0.3053  0.0886 -0.2847
18754TIP3   OH277676   2.846   6.498   0.692  0.2477 -0.3629 -0.2125
18754TIP3    H177677   2.754   6.525   0.682 -0.1327 -1.5396 -0.0505
18754TIP3    H277678   2.843   6.402   0.691  1.7673 -0.4867 -2.8574
18755TIP3   OH277679   6.650   2.328   4.576  0.0282 -0.2133  0.3345
18755TIP3    H177680   6.578   2.334   4.513  0.6607 -0.3956 -0.4284
18755TIP3    H277681   6.611   2.290   4.654 -0.8062  0.1491  0.0970
18756TIP3   OH277682   5.888   6.723   2.534  0.1937  0.1300 -0.3851
18756TIP3    H177683   5.820   6.726   2.602  2.0575 -1.5472  1.7479
18756TIP3    H277684   5.866   6.646   2.482  0.5377 -0.5833  0.4810
18757TIP3   OH277685   4.155   3.439   0.469 -0.2848  0.4354  0.0343
18757TIP3    H177686   4.140   3.351   0.504  0.0862  0.6514  0.7523
18757TIP3    H277687   4.135   3.498   0.542 -2.1599  1.0568 -0.9231
18758TIP3   OH277688   5.906   5.510   4.539  0.2120  0.6610  0.5603
18758TIP3    H177689   5.906   5.589   4.592  1.2879  1.7658 -0.9905
18758TIP3    H277690   5.997   5.481   4.539  0.0757  0.1976  0.0172
18759TIP3   OH277691   4.295   3.864   0.173 -0.2015  0.1275 -0.1135
18759TIP3    H177692   4.263   3.907   0.094  0.5066 -0.2954 -0.6464
18759TIP3    H277693   4.310   3.935   0.235 -3.0504  0.2904  0.5269
18760TIP3   OH277694   4.898   2.773  14.511  0.4264  0.7280 -0.2722
18760TIP3    H177695   4.831   2.724  14.558 -0.4861  1.5780 -0.6529
18760TIP3    H277696   4.974   2.715  14.509 -0.3099 -0.2675  0.1257
18761TIP3   OH277697   3.162   5.535   5.481  0.1969  0.5188  0.1832
18761TIP3    H177698   3.152   5.582   5.398  0.1654 -0.5419 -0.4271
18761TIP3    H277699   3.073   5.516   5.509  0.2414 -0.9667 -0.6258
18762TIP3   OH277700   3.029   0.710   0.365  0.1032 -0.2510  0.4272
18762TIP3    H177701   3.090   0.763   0.313 -1.2945 -0.7863 -1.9350
18762TIP3    H277702   3.068   0.706   0.452  2.5413  0.8383 -0.5275
18763TIP3   OH277703   6.419   3.486   1.833 -0.1001  0.0198 -0.3140
18763TIP3    H177704   6.331   3.478   1.797 -0.6363 -0.8656  1.1120
18763TIP3    H277705   6.444   3.397   1.857 -0.2707  0.6311  2.5363
18764TIP3   OH277706   4.740   3.439   0.109 -0.5596  0.2224  0.3169
18764TIP3    H177707   4.715   3.468   0.022 -0.9360 -1.7819 -0.2919
18764TIP3    H277708   4.672   3.376   0.134 -0.6228  0.9504  2.1971
18765TIP3   OH277709   5.968   0.727   1.019  0.5759  0.3559 -1.2195
18765TIP3    H177710   5.937   0.644   0.982 -0.5645  0.8384 -1.3774
18765TIP3    H277711   6.062   0.713   1.032  0.5218 -0.7344 -1.8445
18766TIP3   OH277712   3.313   0.112   2.297 -0.6032 -0.2570  0.0040
18766TIP3    H177713   3.346   0.115   2.207  0.4090 -2.1858  0.2469
18766TIP3    H277714   3.227   0.071   2.291 -0.1190 -1.2919 -0.0116
18767TIP3   OH277715   0.621   2.005   2.187  0.4074  0.7433  0.0127
18767TIP3    H177716   0.669   1.927   2.213 -0.3373  0.1028 -0.4679
18767TIP3    H277717   0.646   2.072   2.251  0.9332  0.0692  0.5246
18768TIP3   OH277718   4.185   2.078   2.507 -0.0190  0.1475 -0.2403
18768TIP3    H177719   4.188   1.995   2.461 -1.1367  0.2482 -0.5233
18768TIP3    H277720   4.276   2.108   2.510  0.3472 -0.9381 -0.3932
18769TIP3   OH277721   0.178   4.461   0.877 -0.0622  0.3423 -0.3206
18769TIP3    H177722   0.084   4.463   0.896 -0.0217  2.5247 -0.1221
18769TIP3    H277723   0.192   4.375   0.838 -2.1108 -0.0983 -0.2200
18770TIP3   OH277724   4.784   0.505  11.353  0.2799 -0.2581 -0.2992
18770TIP3    H177725   4.719   0.566  11.320 -0.0020 -0.2108  0.3187
18770TIP3    H277726   4.818   0.547  11.432 -1.3002 -1.7035  1.2693
18771TIP3   OH277727   4.964   5.735  11.616 -0.2613 -1.0133 -0.5065
18771TIP3    H177728   4.969   5.736  11.712 -0.6975 -1.3427 -0.4746
18771TIP3    H277729   5.054   5.744  11.587 -0.0842 -1.2991 -0.0563
18772TIP3   OH277730   4.003   6.223   3.905 -0.1657 -0.2850  0.6965
18772TIP3    H177731   3.988   6.288   3.973  2.9312 -0.0238  1.2697
18772TIP3    H277732   3.981   6.268   3.823 -0.4924  0.6279  1.2705
18773TIP3   OH277733   6.728   6.329  10.487 -0.1086  0.1135  0.2294
18773TIP3    H177734   6.731   6.248  10.538  0.7032  1.0651  1.7737
18773TIP3    H277735   6.818   6.362  10.490  0.0136  0.1653 -1.9746
18774TIP3   OH277736   1.294   5.051  13.956  0.0446 -0.4672 -0.6753
18774TIP3    H177737   1.299   5.128  13.898  0.1563 -1.2604 -1.7389
18774TIP3    H277738   1.203   5.023  13.950 -0.0155 -0.3647 -0.2200
18775TIP3   OH277739   6.113   5.958   3.835  0.0744  0.1490  0.3003
18775TIP3    H177740   6.198   5.954   3.880  0.0452 -0.5010  0.3079
18775TIP3    H277741   6.135   5.950   3.742 -0.0852 -1.7478  0.3966
18776TIP3   OH277742   4.583   5.007   2.338 -0.0235 -1.0008  0.1205
18776TIP3    H177743   4.511   5.067   2.360 -0.1157 -0.1050 -2.3533
18776TIP3    H277744   4.540   4.924   2.320 -0.2349 -0.9526  0.3896
18777TIP3   OH277745   2.776   4.703   3.000  0.3030  0.1524 -0.5119
18777TIP3    H177746   2.863   4.742   2.994  0.0004  0.7557 -1.0946
18777TIP3    H277747   2.760   4.666   2.913  0.8538 -1.9046  0.2063
18778TIP3   OH277748   3.637   3.220  15.513 -0.1193 -0.3467  0.3490
18778TIP3    H177749   3.719   3.170  15.518  0.1607 -0.0319 -0.7920
18778TIP3    H277750   3.620   3.227  15.419 -0.4691  1.1973  0.5145
18779TIP3   OH277751   6.663   0.016  16.928 -0.0843  0.2192  0.3372
18779TIP3    H177752   6.740   0.050  16.881  1.2956  1.1251  3.0099
18779TIP3    H277753   6.611   0.093  16.947  0.8734  0.3856  2.6857
18780TIP3   OH277754   5.338   2.016  11.483 -0.4194  0.7190  0.1460
18780TIP3    H177755   5.424   2.005  11.443  0.1002 -2.3576  1.7556
18780TIP3    H277756   5.281   2.043  11.411  1.0851 -1.4588 -2.0219
18781TIP3   OH277757   0.796   4.467   0.749 -0.2824 -0.4629  0.3639
18781TIP3    H177758   0.737   4.408   0.702 -1.5436 -0.5999  2.0226
18781TIP3    H277759   0.824   4.416   0.825  1.8552 -0.3094 -0.2604
18782TIP3   OH277760   1.925   4.440   0.611  0.1922  0.5372  0.0609
18782TIP3    H177761   1.832   4.435   0.588  0.4268 -0.7707 -0.7306
18782TIP3    H277762   1.958   4.352   0.594  1.6947  1.1148 -0.1225
18783TIP3   OH277763   1.834   3.832   1.494 -0.0218  0.0389  0.0001
18783TIP3    H177764   1.793   3.864   1.575 -0.4997  0.5632 -0.4400
18783TIP3    H277765   1.871   3.748   1.518 -1.1284 -0.3269  0.4909
18784TIP3   OH277766   2.027   0.844   3.425 -0.7088  0.1369 -0.2748
18784TIP3    H177767   2.070   0.867   3.507 -0.5945 -0.7598 -0.0721
18784TIP3    H277768   2.003   0.752   3.435 -1.0525  0.1243 -1.0939
18785TIP3   OH277769   5.686   4.798   6.440 -0.3346  0.4120  0.0792
18785TIP3    H177770   5.692   4.732   6.371 -1.4750 -0.8075  1.1077
18785TIP3    H277771   5.709   4.880   6.396  1.3352 -0.6653 -1.1792
18786TIP3   OH277772   4.243   4.096  15.339 -0.1470 -0.7089  0.0078
18786TIP3    H177773   4.208   4.183  15.318 -2.2371 -0.4411  3.7018
18786TIP3    H277774   4.295   4.072  15.263 -1.7291  2.5759 -2.3552
18787TIP3   OH277775   4.078   4.528  12.000 -0.0250 -0.0832 -0.0707
18787TIP3    H177776   4.112   4.602  12.050  0.2398 -0.1076 -0.2170
18787TIP3    H277777   4.034   4.474  12.065  0.2338 -0.0642  0.1203
18788TIP3   OH277778   1.729   3.105   1.162 -0.1392  0.5198  0.3736
18788TIP3    H177779   1.781   3.124   1.240  0.6653 -1.7162  0.4660
18788TIP3    H277780   1.764   3.163   1.095  0.0714  1.5252  1.3233
18789TIP3   OH277781   4.850   2.019  16.684 -0.1164  0.4561  0.0209
18789TIP3    H177782   4.881   2.062  16.764 -2.4753  0.3994  1.0456
18789TIP3    H277783   4.882   1.929  16.692  1.1149  0.8816  0.0399
18790TIP3   OH277784   5.971   2.394  12.868 -0.4242 -0.5365 -0.4999
18790TIP3    H177785   6.025   2.462  12.829 -0.7803 -0.7266 -1.3727
18790TIP3    H277786   5.882   2.417  12.842 -0.6931 -0.5864  0.3566
18791TIP3   OH277787   5.333   0.584  16.124  0.8199  0.6799 -0.0387
18791TIP3    H177788   5.367   0.666  16.160 -0.5201  0.8302  0.9831
18791TIP3    H277789   5.321   0.527  16.200  0.5756 -0.0235 -0.5870
18792TIP3   OH277790   5.511   0.352  12.749  0.3074  0.2981  0.3137
18792TIP3    H177791   5.479   0.417  12.811  1.4676  0.7042  0.5048
18792TIP3    H277792   5.570   0.297  12.800 -1.8929 -2.0170  0.5965
18793TIP3   OH277793   3.576   4.035   4.485 -0.2375  0.3846 -0.4570
18793TIP3    H177794   3.670   4.040   4.466  0.7207  0.2815  3.5446
18793TIP3    H277795   3.563   3.947   4.519 -1.5759  0.7394  0.0121
18794TIP3   OH277796   1.728   4.319  16.741  0.5104  0.4052 -0.2673
18794TIP3    H177797   1.653   4.374  16.761 -0.8381 -0.8139 -1.7856
18794TIP3    H277798   1.721   4.244  16.801 -0.2207 -0.3213 -1.2276
18795TIP3   OH277799   5.956   4.014  15.130 -0.0672  0.7880 -0.1097
18795TIP3    H177800   5.906   3.950  15.180  0.2889  0.7843  0.2567
18795TIP3    H277801   5.894   4.052  15.069 -0.5785  0.9620  0.5086
18796TIP3   OH277802   0.225   3.856  16.428 -0.2204 -0.3351 -0.2303
18796TIP3    H177803   0.308   3.891  16.460 -0.4461 -0.7631  0.8673
18796TIP3    H277804   0.181   3.932  16.390 -0.5020  0.5396  1.7101
18797TIP3   OH277805   6.628   3.852   1.899 -0.0054  0.2356 -0.9854
18797TIP3    H177806   6.548   3.882   1.856 -0.9980  0.3179  0.8062
18797TIP3    H277807   6.635   3.759   1.875 -2.5928 -0.7330  1.4678
18798TIP3   OH277808   2.094   4.684  14.884 -0.6701  0.4777  0.0886
18798TIP3    H177809   2.120   4.605  14.837 -1.8497 -0.0089  0.2143
18798TIP3    H277810   2.160   4.695  14.952 -1.3479 -1.3248  1.0830
18799TIP3   OH277811   6.619   2.684  15.389  0.2346 -0.1997 -0.3513
18799TIP3    H177812   6.559   2.742  15.435 -0.4139 -0.2565 -1.1064
18799TIP3    H277813   6.563   2.616  15.351  0.8824 -0.7981 -0.2604
18800TIP3   OH277814   5.776   2.424   4.785 -0.8662  0.5713 -0.1496
18800TIP3    H177815   5.749   2.398   4.697 -1.1860  3.8314 -1.1721
18800TIP3    H277816   5.871   2.416   4.784 -0.9817 -1.0601 -0.1544
18801TIP3   OH277817   0.646   2.757   2.384  0.6100 -0.0085  0.0926
18801TIP3    H177818   0.603   2.769   2.299  2.8027 -1.4273 -1.3566
18801TIP3    H277819   0.582   2.709   2.437 -1.2610  1.9480 -0.2642
18802TIP3   OH277820   0.405   4.613  12.235  0.7306  0.1773  0.5260
18802TIP3    H177821   0.358   4.543  12.190 -0.0410  1.3291 -0.5140
18802TIP3    H277822   0.353   4.631  12.313  0.3076  0.3831  0.1955
18803TIP3   OH277823   1.733   5.929   4.189 -0.1137  0.1755  0.2538
18803TIP3    H177824   1.657   5.940   4.132  0.4913 -2.9857 -1.3610
18803TIP3    H277825   1.797   5.992   4.156 -1.0249  0.8954 -0.1772
18804TIP3   OH277826   4.531   6.549   5.271  0.0859 -0.0354 -0.4272
18804TIP3    H177827   4.485   6.602   5.337  0.6650  0.2781 -0.2741
18804TIP3    H277828   4.485   6.570   5.189  0.0328  0.3762 -0.2982
18805TIP3   OH277829   2.702   4.699   1.833  0.3532 -0.4087  0.3422
18805TIP3    H177830   2.618   4.711   1.877  0.9829  0.4407  1.3628
18805TIP3    H277831   2.689   4.735   1.745 -0.2054  0.2043  0.6731
18806TIP3   OH277832   4.656   5.910  12.666 -0.3341  0.4194  0.1390
18806TIP3    H177833   4.681   5.976  12.731 -0.1972 -1.2048  1.8358
18806TIP3    H277834   4.560   5.908  12.669 -0.3081 -0.5092  1.2762
18807TIP3   OH277835   3.049   1.903   2.849  0.0047 -1.3888  0.0279
18807TIP3    H177836   2.979   1.885   2.787 -0.5389  0.7727 -0.0815
18807TIP3    H277837   3.005   1.939   2.926  0.9959  2.3538 -0.9561
18808TIP3   OH277838   6.544   5.417   0.123 -0.1153 -0.9328 -1.0572
18808TIP3    H177839   6.464   5.390   0.168 -0.1843 -1.1820 -1.3196
18808TIP3    H277840   6.574   5.494   0.170 -0.3617 -0.9997 -0.7880
18809TIP3   OH277841   2.554   6.283  11.247  0.1054  0.5735 -0.2742
18809TIP3    H177842   2.529   6.367  11.210  1.1605  0.7169 -0.7153
18809TIP3    H277843   2.517   6.218  11.187 -1.4303  0.6832  0.5293
18810TIP3   OH277844   1.203   0.495   6.201 -0.0795  0.0268  0.3832
18810TIP3    H177845   1.188   0.403   6.226  1.3760 -0.6576 -1.1056
18810TIP3    H277846   1.291   0.513   6.232  0.6001  0.1123 -1.5256
18811TIP3   OH277847   4.789   0.988  14.291  0.2708  0.0448  0.0285
18811TIP3    H177848   4.852   1.007  14.221 -0.8524  0.8380 -0.8029
18811TIP3    H277849   4.763   0.898  14.276 -0.9322  0.5925 -1.4081
18812TIP3   OH277850   4.063   6.070  16.228  0.2164 -0.0082  0.3603
18812TIP3    H177851   3.969   6.073  16.213  0.2495 -0.4592  0.0540
18812TIP3    H277852   4.101   6.116  16.152  0.2728 -0.3461  0.1859
18813TIP3   OH277853   0.307   0.147  15.617  0.0303 -0.0757  0.0076
18813TIP3    H177854   0.332   0.231  15.580 -0.2589  0.2141  0.4537
18813TIP3    H277855   0.335   0.082  15.553 -0.0161  0.3837 -0.4797
18814TIP3   OH277856   4.466   4.761   6.239 -0.6928  0.2485  0.3007
18814TIP3    H177857   4.382   4.734   6.277 -1.1608 -1.8038 -1.9301
18814TIP3    H277858   4.491   4.838   6.289 -2.9039 -0.2506  2.3820
18815TIP3   OH277859   2.260   5.047  11.405  0.0685  0.2846 -0.4754
18815TIP3    H177860   2.246   5.140  11.424  1.2998  0.4561 -0.2980
18815TIP3    H277861   2.244   5.039  11.311 -0.4883  0.5721 -0.4133
18816TIP3   OH277862   5.971   6.327   1.238 -0.3255 -0.3509  0.1870
18816TIP3    H177863   5.879   6.352   1.239 -0.6885 -1.3137 -2.3898
18816TIP3    H277864   5.971   6.234   1.217  1.2555 -0.2498 -0.4440
18817TIP3   OH277865   3.261   2.950   4.975 -0.1593 -0.2871 -0.5135
18817TIP3    H177866   3.167   2.933   4.967 -0.2976 -1.2608  2.2742
18817TIP3    H277867   3.300   2.864   4.985  0.8424  0.2055 -0.0992
18818TIP3   OH277868   6.638   3.877  16.800 -0.8566  0.0688 -0.1185
18818TIP3    H177869   6.693   3.955  16.805 -0.2096 -0.3952  0.2372
18818TIP3    H277870   6.585   3.890  16.722 -1.3646  1.2432  0.3856
18819TIP3   OH277871   5.696   1.783   6.400 -0.3237 -0.0527 -0.2191
18819TIP3    H177872   5.605   1.812   6.391 -1.2654 -1.8452  2.3506
18819TIP3    H277873   5.691   1.688   6.401  1.3710 -0.1809  1.4800
18820TIP3   OH277874   2.682   3.335  13.482  0.1952 -0.4810  0.1266
18820TIP3    H177875   2.731   3.361  13.560 -0.2550 -1.6447  0.8209
18820TIP3    H277876   2.600   3.384  13.487 -0.1266 -1.0600  0.7731
18821TIP3   OH277877   5.455   3.796  15.587  0.4330 -0.2115  0.0225
18821TIP3    H177878   5.395   3.722  15.582 -0.4987  0.5597 -0.4769
18821TIP3    H277879   5.421   3.850  15.658  1.4195 -0.5101  0.7440
18822TIP3   OH277880   0.306   3.304   5.485 -0.4417 -0.1967 -0.1846
18822TIP3    H177881   0.334   3.215   5.508 -0.6410 -0.1300  0.3405
18822TIP3    H277882   0.383   3.344   5.445  0.3091  0.0691  1.4483
18823TIP3   OH277883   4.641   1.168   0.679  0.3497 -0.4442 -0.2087
18823TIP3    H177884   4.561   1.195   0.633  0.1774  0.4752  0.5874
18823TIP3    H277885   4.612   1.155   0.770  0.8467 -1.3987 -0.1788
18824TIP3   OH277886   2.780   1.270   0.328  0.5483  0.0159  0.5969
18824TIP3    H177887   2.792   1.190   0.380  0.0703 -1.0217 -0.8378
18824TIP3    H277888   2.730   1.242   0.252  0.8066  1.6047 -0.1958
18825TIP3   OH277889   1.750   5.626  14.213 -0.1060 -0.7498  0.3245
18825TIP3    H177890   1.695   5.629  14.135  0.1171  0.4689  0.1967
18825TIP3    H277891   1.726   5.704  14.262  2.4164  0.5635 -0.3779
18826TIP3   OH277892   2.506   6.400   5.810 -0.8870  0.5370  0.2351
18826TIP3    H177893   2.572   6.453   5.855  0.7282 -0.2825 -1.0366
18826TIP3    H277894   2.446   6.463   5.771 -1.2909  1.2889  1.9782
18827TIP3   OH277895   0.789   1.448   2.754  0.9191 -0.2249  0.1876
18827TIP3    H177896   0.803   1.481   2.665  0.9819  0.3117  0.3922
18827TIP3    H277897   0.751   1.362   2.741  0.7668 -0.0840 -0.3626
18828TIP3   OH277898   1.955   5.563   0.142 -0.3613 -0.1274  0.4706
18828TIP3    H177899   2.016   5.538   0.212 -1.8061 -0.4265  1.6913
18828TIP3    H277900   1.946   5.484   0.089 -0.3882 -0.3669  0.8295
18829TIP3   OH277901   2.157   0.698   1.001  0.4192  0.4610  0.5258
18829TIP3    H177902   2.185   0.608   1.015  2.5691  0.9580 -0.2313
18829TIP3    H277903   2.162   0.711   0.906 -0.9305  1.0836  0.5123
18830TIP3   OH277904   4.093   3.466  12.442  0.0152 -0.1698 -0.3346
18830TIP3    H177905   4.042   3.391  12.409  2.0680 -1.2547 -1.2074
18830TIP3    H277906   4.184   3.439  12.433  0.8471  2.5361 -0.9055
18831TIP3   OH277907   6.693   3.685   5.442 -0.1180  0.8345 -0.1781
18831TIP3    H177908   6.742   3.732   5.510  3.4834  0.9066 -2.5759
18831TIP3    H277909   6.697   3.593   5.469  2.3908  0.6952 -0.7544
18832TIP3   OH277910   1.398   2.861   5.398 -0.2523 -0.0663  0.1234
18832TIP3    H177911   1.314   2.905   5.385 -1.0426 -0.6200  2.7537
18832TIP3    H277912   1.376   2.768   5.400  0.4840 -0.2418  0.3710
18833TIP3   OH277913   3.877   5.486  17.309 -0.1549 -0.4538  0.2374
18833TIP3    H177914   3.926   5.446  17.380  0.2885 -0.8701 -0.2991
18833TIP3    H277915   3.926   5.566  17.287 -0.5377 -0.0858  0.6898
18834TIP3   OH277916   0.827   5.379   1.704  0.0186  0.3321  0.3393
18834TIP3    H177917   0.857   5.320   1.635  0.8010  0.8261  0.2546
18834TIP3    H277918   0.903   5.391   1.761 -0.7475 -0.4894  1.6065
18835TIP3   OH277919   6.343   3.122   2.621 -0.3260  0.3855  0.4336
18835TIP3    H177920   6.260   3.078   2.641  0.8972 -1.4563  1.8308
18835TIP3    H277921   6.321   3.186   2.553 -2.5819 -1.1321 -0.3762
18836TIP3   OH277922   2.957   2.581  16.818  0.5061 -0.2023 -0.1678
18836TIP3    H177923   2.910   2.664  16.830 -0.6187 -0.8642  0.1197
18836TIP3    H277924   2.983   2.556  16.907 -2.8108 -2.2071  0.4233
18837TIP3   OH277925   4.503   6.409   2.153  0.1560  0.6022  0.1917
18837TIP3    H177926   4.508   6.329   2.206 -2.5786  0.5045  0.4717
18837TIP3    H277927   4.594   6.435   2.140  1.0457 -1.1535  2.2173
18838TIP3   OH277928   5.454   4.946   4.787  0.0573 -0.8791  0.0622
18838TIP3    H177929   5.391   4.893   4.835  0.0168 -0.3361  0.6272
18838TIP3    H277930   5.487   4.888   4.718 -1.2192 -1.0895 -0.3842
18839TIP3   OH277931   0.057   1.616  12.790 -0.4100  0.0808 -0.2158
18839TIP3    H177932   0.056   1.628  12.695  0.6734  2.1993 -0.0110
18839TIP3    H277933   0.146   1.639  12.816 -0.9517  0.4456  1.4103
18840TIP3   OH277934   3.463   4.892  12.189 -0.0403 -0.0277 -0.0609
18840TIP3    H177935   3.519   4.927  12.120  1.8520 -0.5709  1.1356
18840TIP3    H277936   3.404   4.832  12.143  1.5859 -0.8557 -1.1504
18841TIP3   OH277937   0.756   2.683  16.863 -0.0636  0.4265 -0.2717
18841TIP3    H177938   0.691   2.634  16.814 -0.4463  1.4141 -0.7855
18841TIP3    H277939   0.763   2.638  16.947  1.3075 -1.8821 -1.5320
18842TIP3   OH277940   5.529   1.523  14.644  0.3135  0.5731  0.1015
18842TIP3    H177941   5.619   1.535  14.674  0.5508 -1.4871  0.3622
18842TIP3    H277942   5.522   1.429  14.625 -2.2905  0.3059  1.8005
18843TIP3   OH277943   0.205   5.350  16.863  0.4555 -0.3826  0.3212
18843TIP3    H177944   0.280   5.331  16.919  0.2951 -0.0510  0.6477
18843TIP3    H277945   0.166   5.429  16.900  0.9097  0.4093 -0.8057
18844TIP3   OH277946   3.683   6.205  15.270  0.5681  0.4188  0.0502
18844TIP3    H177947   3.677   6.192  15.176  1.1743 -0.3262  0.1085
18844TIP3    H277948   3.620   6.143  15.306  0.9198  0.1296  0.1703
18845TIP3   OH277949   0.249   0.663   2.445 -0.1934  0.1304 -0.5230
18845TIP3    H177950   0.236   0.568   2.443  0.4766  0.0345 -0.6006
18845TIP3    H277951   0.304   0.681   2.368  0.1565  0.5096 -0.1846
18846TIP3   OH277952   4.500   2.007   2.827 -0.1422  0.0680 -0.1103
18846TIP3    H177953   4.444   2.043   2.896  0.9420  0.6635  0.4783
18846TIP3    H277954   4.492   1.912   2.838 -1.9845  0.0780 -0.8413
18847TIP3   OH277955   5.853   1.866  10.863 -0.1746  0.2066  0.5512
18847TIP3    H177956   5.852   1.888  10.770  0.8855  1.0216  0.7089
18847TIP3    H277957   5.792   1.928  10.903  0.9224  1.2531  0.6560
18848TIP3   OH277958   3.321   4.259   5.142 -0.6449  0.2198  0.4518
18848TIP3    H177959   3.382   4.224   5.207  1.0293  1.7690 -0.2126
18848TIP3    H277960   3.309   4.351   5.167  0.8954  1.1689 -1.9685
18849TIP3   OH277961   0.831   3.417  11.531  0.0651  1.0656  0.1206
18849TIP3    H177962   0.916   3.374  11.532 -0.1104  0.5662 -1.6621
18849TIP3    H277963   0.834   3.472  11.453 -1.1908  1.1348  0.1052
18850TIP3   OH277964   3.878   1.038   1.961 -0.3989  0.0607 -0.5169
18850TIP3    H177965   3.804   0.995   1.917 -0.3498  0.7955 -1.3601
18850TIP3    H277966   3.932   1.070   1.889  0.4746 -0.0088  0.0991
18851TIP3   OH277967   5.811   5.343  15.548  0.2204  0.1798  0.4547
18851TIP3    H177968   5.825   5.388  15.631 -0.8767 -1.5614  1.6597
18851TIP3    H277969   5.844   5.255  15.562 -0.1492 -0.2086 -0.9079
18852TIP3   OH277970   4.250   1.707  15.652 -0.1778 -0.4667 -0.7105
18852TIP3    H177971   4.294   1.790  15.670 -0.0642 -0.7777  0.4737
18852TIP3    H277972   4.176   1.731  15.596 -1.0294  0.6656  0.8229
18853TIP3   OH277973   1.640   6.352  17.337  0.1061 -0.1202 -0.2246
18853TIP3    H177974   1.604   6.420  17.280  0.9006  1.3731  0.9961
18853TIP3    H277975   1.731   6.345  17.311  0.3740  0.2928  0.5603
18854TIP3   OH277976   0.765   1.899   4.402  0.2544 -0.5779  0.1211
18854TIP3    H177977   0.841   1.842   4.391 -0.9003 -2.4640  1.3999
18854TIP3    H277978   0.771   1.961   4.329  2.2079 -1.5828 -0.6428
18855TIP3   OH277979   6.132   3.901   1.660  0.1006  0.0865 -0.2184
18855TIP3    H177980   6.045   3.897   1.699  0.3845  1.1387  0.5730
18855TIP3    H277981   6.116   3.932   1.571 -0.3414  0.2437 -0.0893
18856TIP3   OH277982   4.592   2.820   5.645  0.2063  0.3611 -0.1004
18856TIP3    H177983   4.500   2.839   5.660 -0.2550 -2.2924  1.0045
18856TIP3    H277984   4.638   2.899   5.674 -1.6769  1.7510 -0.7128
18857TIP3   OH277985   2.861   5.642  16.575 -0.1512 -0.2268 -0.2236
18857TIP3    H177986   2.806   5.614  16.501 -1.9193 -0.4212  1.1062
18857TIP3    H277987   2.806   5.703  16.624  1.7547  1.5402 -0.1843
18858TIP3   OH277988   0.972   0.843   0.983  0.0107  0.3272  0.2596
18858TIP3    H177989   1.019   0.920   1.015  0.1687  0.5323 -0.4571
18858TIP3    H277990   0.962   0.858   0.889 -0.5229 -0.2270  0.2215
18859TIP3   OH277991   6.715   3.546   0.048 -0.0076  0.4103  0.2199
18859TIP3    H177992   6.651   3.616   0.057 -0.1543  0.3435 -0.3059
18859TIP3    H277993   6.799   3.589   0.062 -0.0107  0.9106 -1.1673
18860TIP3   OH277994   3.773   0.327  12.125 -0.2556 -0.0248 -0.0647
18860TIP3    H177995   3.847   0.298  12.072 -0.1145 -0.6082  0.4381
18860TIP3    H277996   3.772   0.267  12.200 -1.0206  0.1981  0.1149
18861TIP3   OH277997   3.180   0.073   4.670  0.0034  0.3820 -0.0238
18861TIP3    H177998   3.164  -0.017   4.640 -0.4251 -0.2181  1.8923
18861TIP3    H277999   3.140   0.078   4.756  1.7024  1.8186  0.7606
18862TIP3   OH278000   0.534   2.558  13.122  0.5314 -1.1349 -0.2340
18862TIP3    H178001   0.441   2.580  13.129  0.5480 -0.6049 -1.4734
18862TIP3    H278002   0.577   2.623  13.178  0.2871 -0.2392 -1.0598
18863TIP3   OH278003   5.745   2.345  17.161  0.3176  0.2851 -0.0359
18863TIP3    H178004   5.735   2.438  17.184 -1.1936  0.1245  0.1065
18863TIP3    H278005   5.827   2.318  17.202  0.6648  1.5073  0.1084
18864TIP3   OH278006   3.325   5.614   1.513 -0.0433 -0.3432 -0.2124
18864TIP3    H178007   3.288   5.582   1.430 -0.9918  0.2700 -0.0424
18864TIP3    H278008   3.393   5.551   1.534  0.2754 -0.4694 -1.5081
18865TIP3   OH278009   6.067   5.494   5.958  0.4383 -0.3410 -0.3268
18865TIP3    H178010   6.150   5.540   5.961  0.1887  0.1208  2.2510
18865TIP3    H278011   6.088   5.404   5.985  0.2095 -0.3736 -0.2516
18866TIP3   OH278012   4.392   0.761   1.028 -0.0238  0.3755 -0.1495
18866TIP3    H178013   4.383   0.770   0.933  1.3395 -0.8105 -0.4200
18866TIP3    H278014   4.466   0.702   1.040  0.0437  0.7630  1.6703
18867TIP3   OH278015   1.448   6.494  14.875  0.3874 -0.2539  0.2651
18867TIP3    H178016   1.397   6.552  14.931 -0.5230 -2.1151  1.4712
18867TIP3    H278017   1.527   6.475  14.926  0.2699 -0.7508  0.2662
18868TIP3   OH278018   6.147   4.596  11.475  0.2049  0.2757 -0.0229
18868TIP3    H178019   6.100   4.605  11.392 -1.0933  1.4459  0.7953
18868TIP3    H278020   6.162   4.686  11.504  0.7219 -0.1134  0.9766
18869TIP3   OH278021   6.322   5.905  17.177  0.1365 -0.3787  0.0764
18869TIP3    H178022   6.291   5.832  17.123 -0.9767  0.7879 -0.9214
18869TIP3    H278023   6.243   5.951  17.204  0.8072  0.3490  0.8605
18870TIP3   OH278024   6.560   1.255  11.542 -0.3092 -0.1271  0.4745
18870TIP3    H178025   6.606   1.335  11.519  0.0786 -0.6390 -0.5470
18870TIP3    H278026   6.612   1.185  11.504 -2.0086 -0.7095 -0.8899
18871TIP3   OH278027   5.175   6.151  13.085  0.3952  0.2789 -0.0743
18871TIP3    H178028   5.199   6.153  12.993  1.1006  2.7237  0.0923
18871TIP3    H278029   5.257   6.167  13.132 -0.0543 -0.2888  0.9613
18872TIP3   OH278030   3.932   4.459   0.225 -0.4720 -0.4557 -0.4474
18872TIP3    H178031   3.889   4.536   0.262  1.0685 -0.7419  2.2067
18872TIP3    H278032   3.983   4.493   0.152  0.6124  1.2437  0.9980
18873TIP3   OH278033   1.969   5.753  17.182  0.5421 -0.2938 -0.1078
18873TIP3    H178034   1.957   5.663  17.213 -0.3737 -1.0731 -2.5040
18873TIP3    H278035   1.881   5.785  17.165  0.9490  0.3826 -1.0436
18874TIP3   OH278036   4.947   0.984   1.848 -0.3495 -0.0880  0.3612
18874TIP3    H178037   4.926   1.074   1.873  1.8865  0.6404 -0.1285
18874TIP3    H278038   5.034   0.969   1.886  0.1177 -1.3849 -1.1346
18875TIP3   OH278039   2.498   1.821  13.371  0.1294 -0.1447  0.0796
18875TIP3    H178040   2.523   1.907  13.403  0.3120 -0.0181 -0.4047
18875TIP3    H278041   2.579   1.782  13.340 -0.2093  0.1599 -1.2294
18876TIP3   OH278042   4.650   5.099   2.813  0.0385 -0.1256  0.6812
18876TIP3    H178043   4.675   5.087   2.905 -1.2055 -2.0730  0.8308
18876TIP3    H278044   4.569   5.148   2.816  0.3013  0.3177  0.5812
18877TIP3   OH278045   6.187   4.624   5.306 -0.0107  0.2079  0.3207
18877TIP3    H178046   6.263   4.568   5.321 -1.0628 -1.6043 -0.6612
18877TIP3    H278047   6.217   4.689   5.242  0.1374 -1.9745 -1.9671
18878TIP3   OH278048   4.624   3.318  12.643  0.3706  0.2018  0.5561
18878TIP3    H178049   4.554   3.261  12.674  0.3752  0.2247  0.6073
18878TIP3    H278050   4.685   3.259  12.598  1.6645 -0.2419  2.7284
18879TIP3   OH278051   0.111   5.913  11.988 -0.1850  0.3556 -0.0999
18879TIP3    H178052   0.158   5.994  11.968  0.6278  0.1721  1.0045
18879TIP3    H278053   0.095   5.874  11.902  0.9449  0.8393 -0.5542
18880TIP3   OH278054   4.304   1.104  11.260  0.0118 -0.0648  0.2511
18880TIP3    H178055   4.350   1.039  11.206 -0.0367  0.0459  0.0745
18880TIP3    H278056   4.374   1.154  11.303  0.1394  1.3758 -1.5062
18881TIP3   OH278057   3.880   3.527   5.729  0.8686 -0.4425 -0.1723
18881TIP3    H178058   3.883   3.487   5.816  1.3258  0.9619  0.4847
18881TIP3    H278059   3.960   3.498   5.686 -0.2433 -2.6922 -0.8856
18882TIP3   OH278060   2.730   1.452   1.461 -0.0823 -0.4329  0.2378
18882TIP3    H178061   2.726   1.532   1.407 -0.0307 -1.0618 -0.7243
18882TIP3    H278062   2.668   1.393   1.420 -0.0858 -0.9042  0.9226
18883TIP3   OH278063   2.627   1.837  12.826 -0.3778 -0.3476  0.1274
18883TIP3    H178064   2.686   1.765  12.804 -1.7282 -1.2920 -0.5569
18883TIP3    H278065   2.539   1.799  12.818 -1.1229  1.3489 -0.1483
18884TIP3   OH278066   5.410   6.748   3.050  0.1816 -0.1116 -0.5374
18884TIP3    H178067   5.371   6.753   3.137 -0.4303 -0.1172 -0.8100
18884TIP3    H278068   5.499   6.784   3.061 -0.4151  1.3328 -0.2227
18885TIP3   OH278069   1.383   5.441  11.794  0.1898 -0.2028  0.4769
18885TIP3    H178070   1.429   5.388  11.860  3.3046  2.4672  0.7157
18885TIP3    H278071   1.291   5.427  11.813  0.8063 -3.8630  1.7540
18886TIP3   OH278072   5.369   0.391   0.758  0.3699 -0.2227 -0.1488
18886TIP3    H178073   5.422   0.455   0.711  0.2178 -1.3510 -1.9523
18886TIP3    H278074   5.428   0.317   0.771 -0.1903 -0.7249 -0.4285
18887TIP3   OH278075   4.008   0.632   4.850  0.2449  0.4694 -0.5534
18887TIP3    H178076   3.934   0.691   4.836 -2.0365 -1.3323  2.6617
18887TIP3    H278077   4.058   0.672   4.921  0.8475  0.3007 -0.8684
18888TIP3   OH278078   2.203   6.270  14.586 -0.3117 -0.5641 -0.1658
18888TIP3    H178079   2.212   6.177  14.607 -0.9773 -0.6085 -0.0373
18888TIP3    H278080   2.265   6.314  14.642 -1.2165 -0.7844  1.0484
18889TIP3   OH278081   2.183   1.940   0.308  0.1566  0.3614  0.1322
18889TIP3    H178082   2.269   1.898   0.305 -0.2941 -0.5537 -0.5020
18889TIP3    H278083   2.130   1.889   0.248 -0.7488  1.1249  0.2649
18890TIP3   OH278084   2.179   4.522  11.335  0.0635 -0.1144  0.2961
18890TIP3    H178085   2.155   4.609  11.304 -0.7495 -1.0337 -1.8734
18890TIP3    H278086   2.198   4.473  11.256  1.6030 -1.6312  1.5334
18891TIP3   OH278087   0.907   4.878   1.994 -0.7469  0.1198 -0.4826
18891TIP3    H178088   1.001   4.896   1.990  0.3974 -4.8292 -1.5099
18891TIP3    H278089   0.885   4.886   2.087  1.4807 -1.5385  0.2549
18892TIP3   OH278090   1.866   4.895  14.450  0.1702  0.1110  0.1950
18892TIP3    H178091   1.946   4.845  14.465 -0.9461 -2.2499 -1.0227
18892TIP3    H278092   1.862   4.905  14.355 -0.1919  1.6258  0.3566
18893TIP3   OH278093   1.002   2.563  11.978 -0.3387  0.3294  0.0771
18893TIP3    H178094   0.939   2.627  11.947  1.4393  2.4920  0.6313
18893TIP3    H278095   0.951   2.503  12.032 -2.0742  1.2899 -0.4086
18894TIP3   OH278096   0.833   5.083  11.228 -0.1796 -0.1376  0.1463
18894TIP3    H178097   0.902   5.069  11.164  0.1054 -0.9727  0.6081
18894TIP3    H278098   0.758   5.113  11.178  0.0103 -0.8698 -0.5976
18895TIP3   OH278099   3.898   2.239   4.273 -0.5921  0.1769 -0.3443
18895TIP3    H178100   3.905   2.145   4.254 -0.9284 -0.1123  0.8961
18895TIP3    H278101   3.826   2.246   4.335 -1.6364  1.4575 -1.6349
18896TIP3   OH278102   2.159   1.425  12.488 -0.2199 -0.4197  0.5141
18896TIP3    H178103   2.199   1.351  12.441 -0.2665  0.0374 -0.2573
18896TIP3    H278104   2.117   1.384  12.564  0.2001 -1.1225  0.3858
18897TIP3   OH278105   1.253   4.501   6.424  0.2702 -0.2313 -0.6918
18897TIP3    H178106   1.303   4.561   6.480 -2.0170  1.1822 -0.0530
18897TIP3    H278107   1.212   4.440   6.484  1.2218 -1.4631 -1.2269
18898TIP3   OH278108   5.156   1.670  16.842  0.7047  0.0060  0.3281
18898TIP3    H178109   5.135   1.744  16.898  1.8576  0.5925  0.0301
18898TIP3    H278110   5.251   1.678  16.827  0.7734 -1.2931 -0.0392
18899TIP3   OH278111   6.373   0.700  14.706  0.0028  0.4351  0.0309
18899TIP3    H178112   6.359   0.767  14.639 -1.3935  0.9670  0.8199
18899TIP3    H278113   6.397   0.750  14.785  2.5950 -0.2222 -0.2352
18900TIP3   OH278114   5.721   4.727   2.597 -0.0751 -0.3209 -0.1934
18900TIP3    H178115   5.695   4.803   2.648 -0.8275 -0.7362  0.0611
18900TIP3    H278116   5.678   4.653   2.640  1.5072 -1.0570  0.2149
18901TIP3   OH278117   2.140   2.916   0.294  0.3782 -0.1086 -0.3310
18901TIP3    H178118   2.177   2.995   0.335 -1.1758  0.6336 -0.2793
18901TIP3    H278119   2.058   2.946   0.255 -0.9653 -1.9939  0.8948
18902TIP3   OH278120   0.266   0.454  15.222 -0.1311  0.3090  0.1813
18902TIP3    H178121   0.333   0.490  15.164 -0.1231 -1.5962 -1.0977
18902TIP3    H278122   0.314   0.428  15.301  0.7365 -1.2189 -0.7984
18903TIP3   OH278123   4.778   3.375   5.547 -0.1978  0.2297 -0.5446
18903TIP3    H178124   4.761   3.287   5.514  2.1024 -1.1251  1.5599
18903TIP3    H278125   4.692   3.408   5.575 -1.2313 -0.9206 -2.2082
18904TIP3   OH278126   0.246   2.958   1.935  0.6847  0.3273 -0.1637
18904TIP3    H178127   0.328   2.971   1.981  0.2799  2.4094  0.0418
18904TIP3    H278128   0.247   3.023   1.865 -0.6753  0.2020 -0.3225
18905TIP3   OH278129   3.252   0.380  11.469  0.0847  0.2662 -0.2607
18905TIP3    H178130   3.334   0.330  11.469 -0.0811 -0.0340  1.0215
18905TIP3    H278131   3.233   0.394  11.561 -1.6367 -0.2171 -0.5110
18906TIP3   OH278132   5.329   0.003   0.311 -0.6701  0.4705  0.1547
18906TIP3    H178133   5.374   0.080   0.347  1.0975 -0.1538 -0.6180
18906TIP3    H278134   5.386  -0.071   0.333 -2.2774 -0.6221  0.7643
18907TIP3   OH278135   1.673   0.247   5.643 -0.5441 -0.3488 -0.0329
18907TIP3    H178136   1.630   0.189   5.707 -1.0357 -0.1183 -0.1546
18907TIP3    H278137   1.764   0.250   5.673 -1.2114  1.6719  2.1124
18908TIP3   OH278138   5.965   2.717   3.872 -0.7916 -0.0383 -0.4016
18908TIP3    H178139   5.952   2.690   3.782  0.2277 -2.7164  0.1806
18908TIP3    H278140   6.008   2.803   3.865  0.4642 -0.7630 -2.4822
18909TIP3   OH278141   4.018   2.758   0.470 -0.4189  1.1178 -1.1216
18909TIP3    H178142   3.991   2.691   0.533  2.0151 -0.5801 -1.7476
18909TIP3    H278143   4.036   2.835   0.523  0.8857 -0.0619  0.2306
18910TIP3   OH278144   2.587   4.990   3.004 -0.5720  0.1825  0.3053
18910TIP3    H178145   2.543   4.966   3.085 -0.8491  0.7832  0.3382
18910TIP3    H278146   2.654   4.923   2.992 -0.7409 -0.0893  0.8605
18911TIP3   OH278147   6.344   4.176  13.783  0.0594  0.1322  0.2186
18911TIP3    H178148   6.336   4.177  13.688 -1.7090  1.6603  0.3205
18911TIP3    H278149   6.430   4.213  13.800  0.2672  0.1434 -0.7835
18912TIP3   OH278150   4.466   5.960  10.796 -0.2991 -0.1330  0.1290
18912TIP3    H178151   4.414   6.032  10.760 -0.2391  0.7965  1.7862
18912TIP3    H278152   4.405   5.911  10.851 -0.2134 -1.0710 -0.5856
18913TIP3   OH278153   2.571   0.443   1.335  0.0318  0.5448  0.1722
18913TIP3    H178154   2.500   0.461   1.397  0.8647  0.5738  1.1452
18913TIP3    H278155   2.628   0.520   1.342  0.5077  0.2195 -0.1027
18914TIP3   OH278156   4.618   2.498   1.044  0.2534  0.2653  0.1863
18914TIP3    H178157   4.589   2.472   0.956 -1.7441  1.3961  0.4579
18914TIP3    H278158   4.559   2.452   1.103 -0.6421  2.1204  0.7991
18915TIP3   OH278159   1.193   4.510   0.271  0.0738 -0.0891  0.4067
18915TIP3    H178160   1.132   4.578   0.242  0.5464  0.8130  1.4639
18915TIP3    H278161   1.188   4.443   0.203 -2.0573 -0.0330  0.4401
18916TIP3   OH278162   2.107   4.951   2.954 -0.2999 -0.5165  0.1338
18916TIP3    H178163   2.123   4.975   3.045 -0.1644  0.7444 -0.2025
18916TIP3    H278164   2.024   4.904   2.956 -0.6372  0.0780  0.8323
18917TIP3   OH278165   4.591   5.392  17.168  0.7411  0.0398 -0.1836
18917TIP3    H178166   4.565   5.313  17.215  1.0124  0.1369  0.1413
18917TIP3    H278167   4.669   5.423  17.215 -0.2846  1.3833  0.6981
18918TIP3   OH278168   0.288   3.471   5.160 -0.3835  0.1486  0.1303
18918TIP3    H178169   0.259   3.562   5.155 -1.8206 -0.2644  0.6929
18918TIP3    H278170   0.367   3.475   5.215  0.1877  1.1782 -0.7276
18919TIP3   OH278171   0.447   5.366   2.947  0.5187 -0.3811 -0.5825
18919TIP3    H178172   0.383   5.307   2.987  2.0617 -2.0944 -0.4667
18919TIP3    H278173   0.397   5.419   2.887 -1.1809 -0.8326  0.3725
18920TIP3   OH278174   3.057   5.458  15.630 -0.1419 -0.0929  0.4777
18920TIP3    H178175   3.097   5.498  15.553 -0.2368  1.5692  1.2536
18920TIP3    H278176   3.091   5.368  15.630 -0.2049 -0.1670 -1.5237
18921TIP3   OH278177   4.312   3.415   5.779  0.3102 -0.4128  0.2702
18921TIP3    H178178   4.292   3.352   5.848 -0.3083 -1.0310 -0.4606
18921TIP3    H278179   4.315   3.499   5.824  0.8255 -0.9134  1.2041
18922TIP3   OH278180   3.404   0.158   3.167 -0.5309 -0.3170 -0.3993
18922TIP3    H178181   3.374   0.078   3.210  0.2018 -1.1187 -1.3322
18922TIP3    H278182   3.430   0.216   3.239  1.1025 -1.7885  0.2609
18923TIP3   OH278183   6.227   1.856  10.766 -0.4010 -0.1321  0.0406
18923TIP3    H178184   6.229   1.798  10.691  2.8219 -0.8016  0.4942
18923TIP3    H278185   6.204   1.941  10.730  1.7954 -0.2592 -1.9336
18924TIP3   OH278186   1.534   1.375  14.547  0.6790  0.4506 -0.1935
18924TIP3    H178187   1.601   1.374  14.615  0.1061 -1.0297  0.3850
18924TIP3    H278188   1.469   1.439  14.578 -0.3367 -1.2945  1.4569
18925TIP3   OH278189   5.872   6.259   0.043 -0.0161 -0.0307  0.0036
18925TIP3    H178190   5.801   6.311   0.080  0.5559  1.4035 -0.8518
18925TIP3    H278191   5.936   6.323   0.011  0.6308 -1.2412 -1.2725
18926TIP3   OH278192   6.485   4.447   1.508  0.4319 -0.1333  0.1499
18926TIP3    H178193   6.436   4.514   1.555  1.0992 -0.1476  0.8871
18926TIP3    H278194   6.548   4.413   1.572  1.7252  0.2017 -0.8890
18927TIP3   OH278195   2.916   1.453   3.282  0.4050  0.2043 -0.0226
18927TIP3    H178196   2.844   1.398   3.313  0.9457 -0.7730 -0.4782
18927TIP3    H278197   2.948   1.410   3.203  3.0043 -0.7334  1.4119
18928TIP3   OH278198   5.281   0.616  15.166  0.7033  0.1607  0.4271
18928TIP3    H178199   5.246   0.642  15.081  0.0822  2.1085  1.2263
18928TIP3    H278200   5.275   0.520  15.166  3.3461 -0.1908 -2.7894
18929TIP3   OH278201   2.386   3.022   3.759 -0.2069  0.3301  0.3580
18929TIP3    H178202   2.421   3.111   3.765  1.9630 -0.4750  0.7462
18929TIP3    H278203   2.460   2.966   3.781 -1.6331 -1.5797  0.5601
18930TIP3   OH278204   5.207   0.818   2.273 -0.8204 -0.4340  0.7844
18930TIP3    H178205   5.130   0.761   2.276 -0.7166 -0.5624  1.1191
18930TIP3    H278206   5.246   0.809   2.360 -1.2479  0.7816  1.1177
18931TIP3   OH278207   2.496   2.522  14.251  0.1915  0.4035 -0.8013
18931TIP3    H178208   2.472   2.440  14.294  2.1355  1.0771  1.8474
18931TIP3    H278209   2.496   2.502  14.157  0.1476 -2.4899 -0.2526
18932TIP3   OH278210   5.749   3.945  13.642  0.5071  0.0329  0.1756
18932TIP3    H178211   5.815   4.007  13.613  1.1492  0.6387  2.6364
18932TIP3    H278212   5.666   3.977  13.606  0.9840  1.7128  0.5055
18933TIP3   OH278213   0.127   3.363   4.657  0.0005 -0.0855  0.7452
18933TIP3    H178214   0.040   3.330   4.676  0.0311 -0.2518  0.6014
18933TIP3    H278215   0.167   3.377   4.743  1.3673 -4.0043  0.9771
18934TIP3   OH278216   5.896   1.615  11.897 -0.5851  0.2848  0.5567
18934TIP3    H178217   5.872   1.549  11.962 -1.8494  1.3080  1.1885
18934TIP3    H278218   5.947   1.679  11.946 -0.6176  0.5177  0.2870
18935TIP3   OH278219   0.568   5.010  15.612  0.1270 -0.3411 -0.7377
18935TIP3    H178220   0.578   5.090  15.662  0.2689 -1.9534  1.9948
18935TIP3    H278221   0.473   5.000  15.602  0.0921 -0.0781 -0.6648
18936TIP3   OH278222   0.910   1.652   3.466 -0.1723 -0.2603  0.4725
18936TIP3    H178223   1.006   1.643   3.464 -0.2440 -1.0320 -1.5427
18936TIP3    H278224   0.877   1.563   3.465 -0.8810 -0.0191 -0.8678
18937TIP3   OH278225   5.213   1.028   1.924  0.0978 -0.0072 -0.2436
18937TIP3    H178226   5.193   1.080   2.002 -2.0148  0.7474 -1.2278
18937TIP3    H278227   5.276   1.080   1.876 -1.1607  1.1753 -0.6682
18938TIP3   OH278228   1.735   3.193  12.053 -0.2366 -0.3031 -0.0377
18938TIP3    H178229   1.643   3.168  12.049 -0.1205 -1.0238  1.3365
18938TIP3    H278230   1.734   3.287  12.070 -0.6926 -0.1091 -1.0535
18939TIP3   OH278231   5.652   1.123   0.542  0.5183 -0.4091 -0.1136
18939TIP3    H178232   5.637   1.174   0.622  0.7091 -1.7783  0.8458
18939TIP3    H278233   5.619   1.178   0.472  0.3553  0.8519  0.9115
18940TIP3   OH278234   3.800   1.520   0.475  1.2029  0.0313  0.3369
18940TIP3    H178235   3.747   1.524   0.555 -1.7093  3.5848 -1.4619
18940TIP3    H278236   3.861   1.593   0.484  0.3402  0.9478 -0.8768
18941TIP3   OH278237   1.422   0.174  14.978  0.1061 -0.3289 -0.3349
18941TIP3    H178238   1.431   0.269  14.992  0.5755 -0.5818  1.2892
18941TIP3    H278239   1.377   0.167  14.894  0.7987  1.3166 -0.9056
18942TIP3   OH278240   4.602   1.286   3.573  0.2682  0.1190 -0.0214
18942TIP3    H178241   4.565   1.258   3.490 -0.5253 -0.1531  0.4173
18942TIP3    H278242   4.692   1.309   3.552 -0.0881  0.6291 -1.0774
18943TIP3   OH278243   5.068   2.080  11.953 -0.0134  0.9729  0.2877
18943TIP3    H178244   4.983   2.041  11.936 -0.8873  3.0352 -0.3351
18943TIP3    H278245   5.108   2.022  12.020 -1.1700 -0.9262 -0.5805
18944TIP3   OH278246   3.634   3.115  16.416  0.0044  0.4231 -0.1086
18944TIP3    H178247   3.649   3.153  16.329  0.9298  0.4137  0.0394
18944TIP3    H278248   3.595   3.186  16.467  0.5603  0.7976 -0.1954
18945TIP3   OH278249   6.378   5.658  14.088 -0.0664  1.1503  0.6835
18945TIP3    H178250   6.408   5.743  14.056 -0.6702  0.9643 -0.4053
18945TIP3    H278251   6.286   5.671  14.108 -0.2448  0.6698  0.2005
18946TIP3   OH278252   6.563   3.237  12.861  0.0222 -0.2481  0.5527
18946TIP3    H178253   6.621   3.261  12.788  0.1054  0.5009  0.8631
18946TIP3    H278254   6.478   3.220  12.819  0.3827 -1.0777  0.1310
18947TIP3   OH278255   2.495   3.280   3.902 -0.1670  0.5213 -0.2716
18947TIP3    H178256   2.507   3.336   3.979 -0.9833  2.2059 -1.2854
18947TIP3    H278257   2.500   3.191   3.935  1.3900  1.1834  1.4044
18948TIP3   OH278258   6.733   2.324  16.598 -0.0422  0.4986  0.3149
18948TIP3    H178259   6.693   2.407  16.572  1.0402  1.0292  0.2427
18948TIP3    H278260   6.802   2.350  16.660  1.0553 -0.2265 -0.5644
18949TIP3   OH278261   3.146   4.648   3.940  0.6428  0.4921  0.3108
18949TIP3    H178262   3.156   4.559   3.972  0.5676  0.5394  0.4703
18949TIP3    H278263   3.053   4.656   3.921  0.9573 -0.1106 -1.6607
18950TIP3   OH278264   0.728   6.086   4.345  0.0625  0.4694 -0.4455
18950TIP3    H178265   0.704   6.064   4.435 -0.4786 -0.3230 -0.7748
18950TIP3    H278266   0.657   6.142   4.314 -0.9335 -1.0841 -1.0982
18951TIP3   OH278267   2.469   1.455  13.583 -0.5578 -0.4195  0.3685
18951TIP3    H178268   2.521   1.395  13.529 -0.5798 -1.7063  1.7229
18951TIP3    H278269   2.403   1.400  13.624  0.0777  0.3028  2.4948
18952TIP3   OH278270   1.927   0.048   5.200 -0.5893  0.2125 -0.6241
18952TIP3    H178271   1.965  -0.010   5.135  1.8115  1.9524 -0.8624
18952TIP3    H278272   1.833   0.027   5.199 -0.0080 -2.7281 -1.5590
18953TIP3   OH278273   1.276   6.196   4.923 -0.6078  0.4799 -0.8352
18953TIP3    H178274   1.188   6.214   4.957 -0.2789 -0.0914  0.3889
18953TIP3    H278275   1.269   6.108   4.885 -0.0939 -0.4858  1.1718
18954TIP3   OH278276   2.924   6.149  12.341  0.6616 -0.1389  0.0352
18954TIP3    H178277   2.924   6.239  12.308  1.2632 -1.1096 -2.9807
18954TIP3    H278278   3.010   6.138  12.382  0.2091  0.8962  1.3356
18955TIP3   OH278279   2.494   2.717   0.712  0.0358 -0.2306  0.8254
18955TIP3    H178280   2.456   2.632   0.691  2.3802 -1.4008  1.0469
18955TIP3    H278281   2.539   2.703   0.796  3.3367  0.1916 -0.7223
18956TIP3   OH278282   0.628   4.774  11.172 -0.2184 -0.0163  0.1328
18956TIP3    H178283   0.562   4.822  11.122  0.0377 -0.9251 -1.1303
18956TIP3    H278284   0.694   4.750  11.107  1.3160  0.7719  1.3509
18957TIP3   OH278285   3.407   0.689   0.378 -0.8665 -0.3359 -0.1156
18957TIP3    H178286   3.358   0.672   0.298 -2.3539  0.7773  0.5056
18957TIP3    H278287   3.387   0.780   0.400  0.3738 -0.2871  0.9441
18958TIP3   OH278288   4.433   3.745   1.452 -0.1586  0.4154  0.4068
18958TIP3    H178289   4.492   3.795   1.395 -1.3517  0.3120 -0.9851
18958TIP3    H278290   4.401   3.808   1.516 -1.4276  1.4356 -1.1570
18959TIP3   OH278291   1.861   1.657   2.831  0.3661  0.1335 -0.2458
18959TIP3    H178292   1.772   1.663   2.863 -0.4003  1.1968 -2.3323
18959TIP3    H278293   1.878   1.563   2.822 -1.0151 -0.0764 -0.9459
18960TIP3   OH278294   0.727   2.882  15.667  0.0151  0.5691  0.9175
18960TIP3    H178295   0.817   2.900  15.639  0.0426  1.3675  1.5113
18960TIP3    H278296   0.735   2.849  15.756 -0.2313 -0.1608  0.6858
18961TIP3   OH278297   0.053   1.945  16.292 -0.0770  1.0194  0.1695
18961TIP3    H178298  -0.035   1.907  16.295 -0.7761  2.6406  1.0007
18961TIP3    H278299   0.040   2.039  16.305  1.5831  1.6226 -1.9152
18962TIP3   OH278300   6.683   5.648  12.985  0.2367  0.3293  0.2066
18962TIP3    H178301   6.706   5.707  13.057 -0.6640  1.7160 -0.5920
18962TIP3    H278302   6.725   5.687  12.908 -2.9227  1.8186 -0.9171
18963TIP3   OH278303   0.710   1.478  15.416  0.3329  0.1732 -0.0352
18963TIP3    H178304   0.684   1.523  15.496 -1.4854 -0.6865 -0.0977
18963TIP3    H278305   0.760   1.402  15.447 -1.3455 -0.8024  0.3955
18964TIP3   OH278306   1.112   0.009  15.256  0.3661 -0.4760  0.3778
18964TIP3    H178307   1.126  -0.038  15.339 -1.8569 -0.6294  0.7199
18964TIP3    H278308   1.030  -0.027  15.222 -0.5855  1.9984 -0.1563
18965TIP3   OH278309   1.433   2.833   6.138  0.3593 -0.2595 -0.0131
18965TIP3    H178310   1.393   2.903   6.189  0.9168  0.1544 -0.1398
18965TIP3    H278311   1.505   2.802   6.191 -0.2065 -1.1073  0.2775
18966TIP3   OH278312   5.160   4.661  15.165 -0.0235  0.0717 -0.4840
18966TIP3    H178313   5.141   4.567  15.170  3.2854 -0.7658 -0.5808
18966TIP3    H278314   5.210   4.679  15.245  1.3624  1.1395 -1.5323
18967TIP3   OH278315   6.290   1.727  16.085  0.1906  0.7148 -0.3089
18967TIP3    H178316   6.248   1.669  16.022  0.4391 -0.9275  0.9396
18967TIP3    H278317   6.273   1.686  16.170  3.5286  0.3957  0.3518
18968TIP3   OH278318   3.407   0.364   4.873  0.1107 -0.0220 -0.3386
18968TIP3    H178319   3.437   0.283   4.914  1.2263  0.4581 -0.1854
18968TIP3    H278320   3.485   0.419   4.868 -0.4304  0.6805 -1.3258
18969TIP3   OH278321   4.037   4.161  13.254  0.0554 -0.4932  0.4976
18969TIP3    H178322   4.070   4.162  13.344 -4.4563 -1.1035  2.4618
18969TIP3    H278323   4.044   4.251  13.224 -0.9023  0.3620  2.6573
18970TIP3   OH278324   4.781   6.044   4.406 -0.0046  0.4067  0.6380
18970TIP3    H178325   4.749   6.046   4.496 -0.4746 -0.9094  0.5192
18970TIP3    H278326   4.701   6.043   4.353  0.0678 -3.4261  0.3480
18971TIP3   OH278327   1.273   4.684   3.636  0.4373 -0.1461 -0.2665
18971TIP3    H178328   1.188   4.719   3.611  0.4559 -1.9234 -3.3189
18971TIP3    H278329   1.325   4.762   3.658 -1.4402  1.1136 -0.0180
18972TIP3   OH278330   5.412   2.561   5.872 -0.3963 -0.3823 -0.4251
18972TIP3    H178331   5.485   2.541   5.814  0.1074  0.6472 -0.1509
18972TIP3    H278332   5.434   2.518   5.954 -0.4595 -0.6861 -0.5629
18973TIP3   OH278333   0.144   1.943  13.144 -0.2629 -0.0222  0.4748
18973TIP3    H178334   0.200   1.993  13.203 -0.5690 -0.7043  1.3543
18973TIP3    H278335   0.109   1.872  13.197 -3.3568  1.3345  0.5041
18974TIP3   OH278336   5.947   1.223   0.480 -0.3059 -0.4285  0.2388
18974TIP3    H178337   5.880   1.158   0.459 -0.6565  0.1803 -0.5762
18974TIP3    H278338   5.931   1.245   0.572 -1.2708 -0.2468  0.0426
18975TIP3   OH278339   2.504   3.845  15.789  0.0570 -0.0862 -0.3932
18975TIP3    H178340   2.542   3.759  15.772  0.2424  0.1309 -1.1209
18975TIP3    H278341   2.577   3.898  15.822 -0.0418 -0.1863 -0.0091
18976TIP3   OH278342   0.725   1.528   5.102  0.1179 -0.0875 -0.6157
18976TIP3    H178343   0.699   1.509   5.012  2.0221  0.5989 -1.3551
18976TIP3    H278344   0.701   1.620   5.115 -0.4301 -0.2688 -0.2923
18977TIP3   OH278345   4.630   3.289   3.076  0.1116  0.1235  0.0258
18977TIP3    H178346   4.703   3.315   3.133 -0.3016  2.1670 -0.2882
18977TIP3    H278347   4.657   3.206   3.037  1.9662  0.4960  0.4522
18978TIP3   OH278348   1.240   2.268  15.352  0.1321  0.2900  0.5993
18978TIP3    H178349   1.207   2.184  15.383 -2.0017  1.5739  2.0105
18978TIP3    H278350   1.332   2.250  15.330  0.0612 -2.1367  1.8848
18979TIP3   OH278351   4.441   4.408   1.246  0.3082  0.0854 -0.1620
18979TIP3    H178352   4.504   4.372   1.307  0.1123  0.2843  0.1602
18979TIP3    H278353   4.360   4.415   1.296  0.6302  2.0736  0.1479
18980TIP3   OH278354   4.737   4.051   0.776 -0.1140  0.2540  0.2864
18980TIP3    H178355   4.712   4.095   0.695  1.4829  1.2432  0.2697
18980TIP3    H278356   4.831   4.070   0.785  0.5714 -2.7920  0.5560
18981TIP3   OH278357   5.493   3.172  10.611 -0.1982  0.3763  0.1260
18981TIP3    H178358   5.553   3.128  10.551 -0.5297 -0.6384  0.5268
18981TIP3    H278359   5.483   3.112  10.684 -0.4214  1.2576  0.8466
18982TIP3   OH278360   0.257   4.507  16.220 -0.0267  0.3567 -0.1069
18982TIP3    H178361   0.343   4.495  16.261  0.1952  0.9866 -0.3714
18982TIP3    H278362   0.196   4.465  16.280  0.6116 -1.4741 -0.6448
18983TIP3   OH278363   0.368   1.173  14.722 -0.1197 -0.0790 -0.5717
18983TIP3    H178364   0.292   1.229  14.735 -0.3397 -0.2226 -1.2016
18983TIP3    H278365   0.345   1.091  14.767 -0.9406 -0.6291 -1.9357
18984TIP3   OH278366   3.595   0.364   3.086 -0.4057  0.0367  0.1258
18984TIP3    H178367   3.597   0.282   3.036 -1.5594  0.7255 -1.1060
18984TIP3    H278368   3.510   0.364   3.129 -0.1988  0.3504  0.5392
18985TIP3   OH278369   0.455   6.734  17.070  0.3271  0.7230 -0.1436
18985TIP3    H178370   0.544   6.769  17.071  0.6316 -0.0153 -0.2722
18985TIP3    H278371   0.399   6.809  17.053  1.0142  1.0416 -1.0834
18986TIP3   OH278372   0.722   0.820  15.896  0.1802  0.7226  0.2422
18986TIP3    H178373   0.641   0.773  15.877  0.4813 -0.0967  0.9179
18986TIP3    H278374   0.718   0.898  15.841  0.5459 -1.0071 -2.4468
18987TIP3   OH278375   2.682   0.975   4.522 -0.2409 -0.0112 -0.0128
18987TIP3    H178376   2.684   1.030   4.600  0.1854  1.5162 -1.0607
18987TIP3    H278377   2.710   0.889   4.553 -0.4578  0.4629  1.5828
18988TIP3   OH278378   5.780   0.355  13.615 -0.0959  0.3501  0.3164
18988TIP3    H178379   5.847   0.358  13.548 -0.5562  0.7701 -0.1370
18988TIP3    H278380   5.702   0.321  13.570  0.2038 -1.6345  1.1912
18989TIP3   OH278381   1.127   1.972  13.728  0.0485  0.2630  0.0452
18989TIP3    H178382   1.143   2.061  13.699 -0.6179  0.0137 -1.1409
18989TIP3    H278383   1.061   1.981  13.797  1.6168  0.8499  1.5540
18990TIP3   OH278384   1.682   5.195   3.684  0.7433  0.2934  0.1011
18990TIP3    H178385   1.742   5.120   3.680 -1.1633 -1.2930 -1.0695
18990TIP3    H278386   1.675   5.215   3.777  1.2097 -1.1144  0.4656
18991TIP3   OH278387   3.796   6.349   3.471  0.4075 -0.0997 -0.1168
18991TIP3    H178388   3.766   6.277   3.526  1.3723 -1.0888 -0.8541
18991TIP3    H278389   3.789   6.317   3.381 -2.1386  1.8534 -0.7512
18992TIP3   OH278390   5.541   6.382  13.410  0.1294  0.0432  0.1872
18992TIP3    H178391   5.575   6.387  13.321  0.9812  0.4377  0.5259
18992TIP3    H278392   5.594   6.315  13.452 -0.3538 -0.2311  0.3688
18993TIP3   OH278393   4.905   5.900   2.786 -0.4974 -0.2950 -0.6327
18993TIP3    H178394   4.925   5.880   2.695  0.1520  1.8094 -1.0253
18993TIP3    H278395   4.937   5.990   2.798 -1.3811 -0.1936  1.4166
18994TIP3   OH278396   4.842   1.843   3.680 -0.0140  0.2510 -1.0072
18994TIP3    H178397   4.769   1.798   3.637 -0.7493  1.1119 -0.6920
18994TIP3    H278398   4.841   1.932   3.644 -0.7993  1.0778  0.9106
18995TIP3   OH278399   0.301   0.128  11.290  0.1150  0.4501 -0.1979
18995TIP3    H178400   0.333   0.129  11.199 -0.0897 -0.8563 -0.2976
18995TIP3    H278401   0.371   0.171  11.340  1.4923 -1.1821 -0.6089
18996TIP3   OH278402   3.206   5.632   0.147 -0.4946 -0.0208  0.4909
18996TIP3    H178403   3.290   5.643   0.191 -0.3692 -0.9837  0.5046
18996TIP3    H278404   3.178   5.543   0.170 -2.3697  0.8690  1.9598
18997TIP3   OH278405   3.134   2.488   2.387 -0.0588 -0.4311  0.4818
18997TIP3    H178406   3.190   2.553   2.343  1.3197 -1.4437  0.6691
18997TIP3    H278407   3.139   2.511   2.480  1.2785 -1.3743  0.6751
18998TIP3   OH278408   1.516   5.938  15.805 -0.0802 -0.5690 -0.0337
18998TIP3    H178409   1.482   5.930  15.715  0.7616  1.8572 -0.6334
18998TIP3    H278410   1.439   5.957  15.858 -0.2369  1.1274 -0.7936
18999TIP3   OH278411   6.096   0.226   4.821 -0.7634 -0.6304 -0.0615
18999TIP3    H178412   6.148   0.213   4.901 -0.7442 -0.8213 -0.1031
18999TIP3    H278413   6.006   0.209   4.849 -0.9650  0.9348  0.2991
19000TIP3   OH278414   4.535   5.963  16.429  0.3919 -0.1483 -0.0259
19000TIP3    H178415   4.556   6.057  16.432  0.8516 -0.2077 -0.8777
19000TIP3    H278416   4.440   5.959  16.431  0.3595  0.3634 -0.3879
19001TIP3   OH278417   3.509   6.688  15.311 -0.4616  0.0459  0.0049
19001TIP3    H178418   3.520   6.597  15.282 -0.0710  0.0482  0.1394
19001TIP3    H278419   3.415   6.705  15.302 -0.3117  0.1772 -1.6344
19002TIP3   OH278420   1.012   6.434   4.048  0.0691  0.0696  0.0634
19002TIP3    H178421   0.984   6.516   4.090 -0.1658  0.4030 -0.7311
19002TIP3    H278422   0.978   6.365   4.106  0.3084  0.5292  0.7643
19003TIP3   OH278423   5.452   1.874   6.329  0.0377 -0.4733 -0.5712
19003TIP3    H178424   5.385   1.820   6.286 -0.6405 -1.0161  1.0797
19003TIP3    H278425   5.402   1.938   6.380  0.8329  1.6598 -2.3554
19004TIP3   OH278426   4.161   1.924  16.128  0.2501 -0.2469 -0.4195
19004TIP3    H178427   4.170   1.892  16.218 -2.2700  0.6895  0.2348
19004TIP3    H278428   4.108   1.858  16.084 -1.2147  0.7916 -0.2849
19005TIP3   OH278429   3.088   1.586   4.250 -0.0878 -0.2214 -0.4449
19005TIP3    H178430   3.042   1.636   4.318 -0.0576 -0.0628 -0.5421
19005TIP3    H278431   3.067   1.631   4.169 -1.0341 -1.0561 -0.6918
19006TIP3   OH278432   0.446   5.963  17.331 -0.3715  0.2524 -0.1028
19006TIP3    H178433   0.431   6.007  17.415 -0.6884  2.4748 -1.2365
19006TIP3    H278434   0.429   6.031  17.266 -0.2832 -1.4482 -1.9866
19007TIP3   OH278435   3.577   4.076  14.632 -0.7674  0.0426 -0.4829
19007TIP3    H178436   3.574   4.040  14.721 -1.0579  1.6882  0.2070
19007TIP3    H278437   3.638   4.149  14.638  0.3478 -0.7252 -2.0116
19008TIP3   OH278438   5.409   5.789  13.559  0.6046 -0.5376 -0.0616
19008TIP3    H178439   5.432   5.871  13.517  0.2745 -0.4752 -0.1207
19008TIP3    H278440   5.493   5.747  13.578  0.7607 -0.5174 -0.6829
19009TIP3   OH278441   6.163   1.810  11.531  0.0890 -0.8451 -0.4237
19009TIP3    H178442   6.227   1.811  11.460  0.4281  1.4707 -0.1677
19009TIP3    H278443   6.213   1.828  11.610 -0.6918 -0.1384 -0.0659
19010TIP3   OH278444   5.850   2.636   3.632  0.4534  0.2953  0.1063
19010TIP3    H178445   5.779   2.586   3.673 -0.4322  2.0693  0.8821
19010TIP3    H278446   5.902   2.571   3.585 -2.2123 -1.0023 -1.2798
19011TIP3   OH278447   3.355   6.665   1.347 -0.0011 -0.4895  0.0576
19011TIP3    H178448   3.273   6.661   1.398  0.1946 -0.7918  0.3540
19011TIP3    H278449   3.356   6.753   1.310 -1.3407 -1.0265 -1.4076
19012TIP3   OH278450   1.906   4.381  15.981 -0.2749 -0.6446 -0.2721
19012TIP3    H178451   1.884   4.426  16.063  0.0407 -0.6773 -0.1672
19012TIP3    H278452   1.962   4.442  15.934  1.7562 -1.6395  0.7127
19013TIP3   OH278453   1.184   3.438   4.335  0.1225 -0.3700  0.4068
19013TIP3    H178454   1.186   3.513   4.276 -0.0669 -0.0259  0.8295
19013TIP3    H278455   1.153   3.365   4.281  1.8353 -0.5398 -0.4269
19014TIP3   OH278456   3.351   1.527  13.011 -0.2749 -0.3751 -0.1720
19014TIP3    H178457   3.269   1.485  13.037  1.0464 -2.3701  0.9716
19014TIP3    H278458   3.394   1.550  13.093  0.5724  0.1677 -0.7442
19015TIP3   OH278459   3.089   2.054   2.392  0.7856  0.2831  0.1892
19015TIP3    H178460   3.022   1.986   2.384  2.0824 -1.0055 -0.1790
19015TIP3    H278461   3.142   2.026   2.467  1.8621  0.4040 -0.5055
19016TIP3   OH278462   5.200   5.886  13.202 -0.4193  0.3473  0.1461
19016TIP3    H178463   5.120   5.897  13.151 -1.7932  0.9283  2.2818
19016TIP3    H278464   5.259   5.954  13.169 -1.9475  1.9235  0.4852
19017TIP3   OH278465   4.489   2.060  14.286  0.0557 -0.1963 -1.0166
19017TIP3    H178466   4.568   2.091  14.242  1.3674 -1.2734  0.4492
19017TIP3    H278467   4.499   1.965  14.290  0.4524 -0.1390  2.2247
19018TIP3   OH278468   3.334   6.555   2.059  0.1201 -0.3018  0.2531
19018TIP3    H178469   3.309   6.625   1.998  1.7474 -0.9140 -1.2383
19018TIP3    H278470   3.381   6.492   2.004  1.0003 -1.2705  2.0231
19019TIP3   OH278471   2.370   4.892   4.723  0.0145 -0.0936  0.1139
19019TIP3    H178472   2.450   4.888   4.775  1.1224  0.1547 -1.5060
19019TIP3    H278473   2.384   4.830   4.651 -1.0681  0.2581 -0.4294
19020TIP3   OH278474   1.185   3.116   0.209 -0.3864  0.1162 -0.5157
19020TIP3    H178475   1.193   3.085   0.119  0.1842 -1.0624 -0.0763
19020TIP3    H278476   1.196   3.038   0.263 -0.5928  0.8222  0.5881
19021TIP3   OH278477   0.186   5.910  16.587 -0.2790  0.3312  0.0292
19021TIP3    H178478   0.214   5.999  16.605 -0.1920  0.1047  1.0676
19021TIP3    H278479   0.246   5.880  16.518 -0.8750  1.3537 -0.9659
19022TIP3   OH278480   5.099   4.263  13.094  0.7963  0.1688  0.2597
19022TIP3    H178481   5.115   4.172  13.118 -0.3435 -0.0202  0.3587
19022TIP3    H278482   5.050   4.299  13.169 -0.6572  0.2459 -0.6831
19023TIP3   OH278483   6.189   2.748  16.838  0.1707  0.5309 -0.0241
19023TIP3    H178484   6.275   2.783  16.817  0.5073 -1.1217 -1.6450
19023TIP3    H278485   6.129   2.820  16.822  1.0045  0.9344 -1.4820
19024TIP3   OH278486   1.824   6.503  10.652  0.0634 -0.4507 -0.1066
19024TIP3    H178487   1.913   6.519  10.620  0.5450 -0.4576  1.1631
19024TIP3    H278488   1.793   6.589  10.681 -0.5535 -0.3548 -1.0138
19025TIP3   OH278489   0.032   2.584   4.250 -0.3718  0.3914 -0.6375
19025TIP3    H178490  -0.033   2.529   4.205 -1.5107  0.6458  0.6348
19025TIP3    H278491   0.031   2.667   4.202 -0.7868  0.3034 -0.7825
19026TIP3   OH278492   5.629   3.211  15.293 -0.2875  0.0153 -0.4629
19026TIP3    H178493   5.540   3.199  15.260 -0.8415 -1.9075  1.4719
19026TIP3    H278494   5.638   3.143  15.361  3.3105 -1.1550 -1.8912
19027TIP3   OH278495   3.813   1.799  12.498  0.0335 -0.4752  0.4493
19027TIP3    H178496   3.888   1.788  12.439  0.0424  0.9502  0.1678
19027TIP3    H278497   3.853   1.827  12.581 -0.1939  0.7708  0.1585
19028TIP3   OH278498   2.993   4.724   3.332 -0.0482 -0.3786  0.6401
19028TIP3    H178499   3.014   4.773   3.411  1.4720 -1.6815  1.1021
19028TIP3    H278500   2.903   4.750   3.311 -0.2574  0.5069  2.4070
19029TIP3   OH278501   4.551   2.805  13.701 -0.1690 -0.0671 -0.3069
19029TIP3    H178502   4.459   2.797  13.677  0.0845 -2.0391 -0.8322
19029TIP3    H278503   4.557   2.765  13.788  0.0270  1.0163  0.1905
19030TIP3   OH278504   1.872   2.075  12.645  0.1867 -0.1273  0.8366
19030TIP3    H178505   1.782   2.090  12.672 -0.4982 -0.6404 -1.0156
19030TIP3    H278506   1.921   2.149  12.680 -1.3279  1.2557  0.1566
19031TIP3   OH278507   0.283   1.594   6.562 -0.0134 -0.1912 -0.2483
19031TIP3    H178508   0.261   1.530   6.629 -0.1959  0.5044  0.3774
19031TIP3    H278509   0.229   1.571   6.487 -1.9416  0.6636  0.7872
19032TIP3   OH278510   6.337   2.019   3.912  0.1931  0.6173  0.0317
19032TIP3    H178511   6.369   2.047   3.998  1.8481  1.3969 -0.7945
19032TIP3    H278512   6.416   2.015   3.858 -0.9551  1.1432 -1.7335
19033TIP3   OH278513   6.066   6.161   2.338 -0.4480  0.2203  0.2237
19033TIP3    H178514   6.128   6.226   2.306  0.5527 -0.5179  0.6190
19033TIP3    H278515   6.006   6.146   2.265  0.5363  0.1045 -0.5833
19034TIP3   OH278516   5.503   3.636   0.622 -0.1521 -0.0819 -0.1255
19034TIP3    H178517   5.596   3.639   0.644  0.1083  1.6912 -1.2558
19034TIP3    H278518   5.458   3.631   0.707  0.9620 -1.6615  0.4008
19035TIP3   OH278519   5.920   2.810   5.479  0.1178 -0.0143 -0.1657
19035TIP3    H178520   5.952   2.752   5.409 -0.9499 -1.0023  0.1311
19035TIP3    H278521   5.992   2.812   5.542  0.9250  0.5407 -1.0627
19036TIP3   OH278522   5.032   5.517  12.790 -0.2439 -0.3567 -0.1625
19036TIP3    H178523   5.125   5.529  12.808 -0.6743  1.1109  1.2926
19036TIP3    H278524   5.001   5.604  12.765 -1.6479 -0.3002  1.5640
19037TIP3   OH278525   1.987   6.038   2.413 -0.1406 -0.0784 -0.2225
19037TIP3    H178526   2.010   6.080   2.331  0.5352  2.1579  1.0278
19037TIP3    H278527   1.908   5.988   2.394  0.1786  0.1423 -2.2698
19038TIP3   OH278528   2.587   4.961  14.779  0.2496  0.0811 -0.6749
19038TIP3    H178529   2.615   4.970  14.870  1.7181  1.1258 -1.1815
19038TIP3    H278530   2.501   5.003  14.776  1.0206  1.7904 -0.1200
19039TIP3   OH278531   3.323   5.463   2.004 -0.0790  0.7057  0.2097
19039TIP3    H178532   3.235   5.427   1.998  0.3228 -0.2221 -0.3616
19039TIP3    H278533   3.376   5.393   2.041  0.5136  1.0804  0.0951
19040TIP3   OH278534   1.110   4.233   3.759  0.1989 -0.0854  0.4018
19040TIP3    H178535   1.040   4.190   3.711 -1.9495  1.7562  1.6937
19040TIP3    H278536   1.103   4.326   3.735  1.3572  0.3375  1.5579
19041TIP3   OH278537   3.819   6.036  14.221 -0.7840 -0.5990  0.0880
19041TIP3    H178538   3.822   6.004  14.311  0.1140  0.3255  0.4158
19041TIP3    H278539   3.795   6.129  14.229 -2.8342 -0.9938 -0.7893
19042TIP3   OH278540   0.932   2.291  15.323  0.9052 -0.2029 -0.3194
19042TIP3    H178541   0.872   2.353  15.283 -1.5808 -1.7786  0.6742
19042TIP3    H278542   0.936   2.218  15.261  3.0124  0.4332 -1.0239
19043TIP3   OH278543   5.354   1.441  17.244  0.1796 -0.6213 -0.0466
19043TIP3    H178544   5.404   1.507  17.196 -1.7561  0.1921 -1.0909
19043TIP3    H278545   5.274   1.430  17.192 -0.2339 -2.6665  0.9436
19044TIP3   OH278546   4.485   1.442  14.215  0.0999  0.8797  0.4663
19044TIP3    H178547   4.539   1.508  14.171 -0.5571  2.3580  1.7574
19044TIP3    H278548   4.503   1.361  14.168  1.2042  1.9032 -0.9810
19045TIP3   OH278549   0.084   5.888   5.384  0.0348 -1.0404  0.3052
19045TIP3    H178550   0.123   5.855   5.303  0.6083  0.7563 -0.1903
19045TIP3    H278551   0.147   5.952   5.417  0.1507 -2.1959  2.5720
19046TIP3   OH278552   0.208   5.880  11.399 -0.5487 -0.3442  0.1474
19046TIP3    H178553   0.283   5.906  11.345  0.2748 -0.1006  1.3675
19046TIP3    H278554   0.144   5.950  11.388 -1.1238 -1.0877 -1.8006
19047TIP3   OH278555   1.483   6.386   2.105  0.6950 -0.1768 -1.0715
19047TIP3    H178556   1.423   6.461   2.107  0.4498 -0.3853  0.8956
19047TIP3    H278557   1.426   6.309   2.107  0.9948 -0.4171 -1.4748
19048TIP3   OH278558   3.881   4.169   2.007 -0.6420  0.4307 -0.4182
19048TIP3    H178559   3.873   4.264   1.999 -0.6100  0.3378 -1.8856
19048TIP3    H278560   3.933   4.143   1.931  0.7825 -0.5930  0.8455
19049TIP3   OH278561   1.234   4.485   5.690  0.5964 -0.2484 -0.0696
19049TIP3    H178562   1.274   4.417   5.635  0.1855 -0.5233 -0.0266
19049TIP3    H278563   1.249   4.456   5.780  0.7740 -0.0773 -0.0411
19050TIP3   OH278564   0.231   1.613  13.379 -0.1938  0.1000 -0.2322
19050TIP3    H178565   0.324   1.607  13.402 -0.4400 -1.9800  0.4669
19050TIP3    H278566   0.196   1.679  13.439  0.2099 -1.5608  1.9868
19051TIP3   OH278567   0.452   1.859   5.055 -0.1621 -0.0669  0.2285
19051TIP3    H178568   0.445   1.921   4.982  1.0817 -1.0328 -0.7702
19051TIP3    H278569   0.384   1.885   5.116 -0.1753  1.7832 -0.5278
19052TIP3   OH278570   6.603   3.905   2.694 -0.8578 -0.1115 -0.0426
19052TIP3    H178571   6.663   3.835   2.667 -0.2318 -0.0819  1.2087
19052TIP3    H278572   6.535   3.860   2.744 -0.8565  0.0948  0.1419
19053TIP3   OH278573   0.729   1.810  17.298  0.0312 -0.3826 -0.2240
19053TIP3    H178574   0.787   1.885  17.311  1.2726 -1.2179 -0.7858
19053TIP3    H278575   0.787   1.734  17.300 -1.0673 -1.2568 -0.6538
19054TIP3   OH278576   0.889   6.504  15.354  0.2314 -0.3631 -0.1392
19054TIP3    H178577   0.818   6.440  15.348 -1.3762  1.0700  1.9749
19054TIP3    H278578   0.861   6.576  15.297 -0.4050  0.4780  1.1784
19055TIP3   OH278579   6.408   2.674  11.759 -0.7826  0.1246  0.1317
19055TIP3    H178580   6.483   2.694  11.702 -2.5524 -1.1107 -2.8867
19055TIP3    H278581   6.436   2.598  11.810  0.1893 -0.0374 -0.6171
19056TIP3   OH278582   3.730   3.757  11.236  0.3398  0.2218 -0.3981
19056TIP3    H178583   3.709   3.743  11.143 -0.3982 -1.8195  0.0108
19056TIP3    H278584   3.686   3.684  11.281  1.4475  0.6406  1.4569
19057TIP3   OH278585   4.687   4.731   4.161 -0.0920  0.8934 -0.3977
19057TIP3    H178586   4.615   4.787   4.132 -0.8503  0.4655  0.6043
19057TIP3    H278587   4.766   4.782   4.142 -0.6471  1.4185 -1.4044
19058TIP3   OH278588   2.053   2.977   3.607  0.3782 -0.5627 -0.4126
19058TIP3    H178589   2.059   3.041   3.678  1.7395 -0.8920 -0.1938
19058TIP3    H278590   2.047   2.893   3.651  2.7313 -0.9047 -0.5949
19059TIP3   OH278591   0.915   0.615   3.979 -0.2942  0.1634 -0.6508
19059TIP3    H178592   1.008   0.615   3.954  0.0736 -0.4153  0.6577
19059TIP3    H278593   0.916   0.607   4.074 -1.7339 -1.7801 -0.7608
19060TIP3   OH278594   5.336   5.597  11.851 -0.0803 -0.4530 -0.3183
19060TIP3    H178595   5.354   5.684  11.817  0.5568  0.1564  1.4447
19060TIP3    H278596   5.339   5.607  11.946 -1.0539 -2.1863 -0.0488
19061TIP3   OH278597   2.459   6.699  13.836 -0.3435 -0.0600  0.0933
19061TIP3    H178598   2.459   6.668  13.746  0.5045 -0.2943  0.1623
19061TIP3    H278599   2.422   6.627  13.887 -2.1997  0.6243 -0.2206
19062TIP3   OH278600   2.047   5.060  11.667 -0.1226 -0.3382 -0.2527
19062TIP3    H178601   2.040   4.972  11.629  0.6872 -0.6621  0.3267
19062TIP3    H278602   1.986   5.113  11.615 -2.0443 -1.6234  0.5458
19063TIP3   OH278603   1.284   3.918  14.340  0.1156 -0.4548 -0.5317
19063TIP3    H178604   1.348   3.972  14.387 -1.1400  1.9571 -1.4311
19063TIP3    H278605   1.203   3.929  14.390 -0.4359 -0.5601 -1.3907
19064TIP3   OH278606   0.472   0.593  13.914  0.0594 -0.5739 -0.9724
19064TIP3    H178607   0.514   0.598  14.000 -0.6347 -0.4177 -0.6331
19064TIP3    H278608   0.541   0.614  13.852  0.8232 -1.7013 -0.5224
19065TIP3   OH278609   2.376   2.467   0.990  0.3837  0.0013  0.3671
19065TIP3    H178610   2.304   2.474   0.928  0.6147 -0.1774  0.0713
19065TIP3    H278611   2.346   2.514   1.068  0.4595  1.0660 -0.2210
19066TIP3   OH278612   4.989   0.004  13.999 -0.9498  0.1774  0.6114
19066TIP3    H178613   5.067  -0.030  14.043 -1.7544 -1.8828  0.5690
19066TIP3    H278614   4.922   0.006  14.068 -2.1493 -2.8231 -0.2922
19067TIP3   OH278615   2.067   4.615  12.774  0.0452  0.6404 -0.4639
19067TIP3    H178616   2.067   4.643  12.682  0.3798 -0.8000 -0.9333
19067TIP3    H278617   1.975   4.604  12.795 -0.0126  0.3129 -0.8608
19068TIP3   OH278618   0.343   3.558   1.792  0.0305 -0.1138 -0.2795
19068TIP3    H178619   0.280   3.593   1.854 -0.7165 -1.5003 -0.2177
19068TIP3    H278620   0.293   3.540   1.712  0.3785 -0.9346 -0.3350
19069TIP3   OH278621   0.014   2.468  15.930  0.5386  0.3892  0.1465
19069TIP3    H178622   0.091   2.465  15.873 -1.6588  0.3501 -3.0884
19069TIP3    H278623   0.018   2.387  15.981  0.0166 -2.4939 -3.9156
19070TIP3   OH278624   3.050   3.645  13.251  0.0794 -0.5354  0.6993
19070TIP3    H178625   2.981   3.709  13.268  0.2653  0.1068 -0.7974
19070TIP3    H278626   3.131   3.694  13.262  0.3321 -1.2005  2.1012
19071TIP3   OH278627   1.219   2.483  16.479  0.1754  0.2349 -0.7022
19071TIP3    H178628   1.226   2.577  16.497 -0.1040  0.4621 -1.7294
19071TIP3    H278629   1.243   2.441  16.562  0.4696  1.2055 -0.2799
19072TIP3   OH278630   3.541   5.294   0.962 -0.1723  0.4249 -0.0768
19072TIP3    H178631   3.624   5.247   0.962  0.8031  2.0492  0.1544
19072TIP3    H278632   3.534   5.331   0.874 -0.0757  1.2075  0.2313
19073TIP3   OH278633   1.244   5.244   5.802 -0.2754 -0.5278 -0.2594
19073TIP3    H178634   1.263   5.199   5.885 -1.3966 -0.8086 -0.1465
19073TIP3    H278635   1.183   5.185   5.756 -0.7186  0.2626 -0.6975
19074TIP3   OH278636   0.994   0.573   2.027 -0.4503 -0.6442 -0.6591
19074TIP3    H178637   0.932   0.512   1.986 -1.1982  0.0010 -0.5037
19074TIP3    H278638   0.959   0.587   2.115  0.9288 -1.7174  0.1109
19075TIP3   OH278639   0.838   6.678   5.476  0.5317 -0.7676 -0.2918
19075TIP3    H178640   0.759   6.634   5.506  0.3397 -0.7474 -0.7728
19075TIP3    H278641   0.879   6.710   5.557  0.0182 -0.7138 -0.0490
19076TIP3   OH278642   3.189   6.092   2.793  0.5900  0.1919 -0.0739
19076TIP3    H178643   3.232   6.176   2.807  0.9485  0.7055 -3.3760
19076TIP3    H278644   3.103   6.102   2.834  1.6456  1.0233  2.1143
19077TIP3   OH278645   2.467   2.997  13.465  0.0569 -0.7550 -0.6801
19077TIP3    H178646   2.499   2.986  13.554 -1.9362 -0.7951  0.0732
19077TIP3    H278647   2.484   2.913  13.423  0.3686 -0.9668 -0.1358
19078TIP3   OH278648   1.999   3.726  11.907  0.5067  0.0938  0.6133
19078TIP3    H178649   2.057   3.798  11.884  0.1367  1.1340  2.7016
19078TIP3    H278650   2.049   3.674  11.969 -0.2592  0.1789  1.3105
19079TIP3   OH278651   2.768   0.526   2.735 -0.0710 -0.6044 -0.2082
19079TIP3    H178652   2.698   0.585   2.708 -0.0822 -0.6385 -0.2535
19079TIP3    H278653   2.725   0.441   2.746 -0.0475 -0.6129 -0.1809
19080TIP3   OH278654   5.686   4.179  14.486 -0.5565  0.5025 -0.0552
19080TIP3    H178655   5.591   4.176  14.492 -0.5734  1.9006  0.7594
19080TIP3    H278656   5.704   4.170  14.392 -1.5891  1.9822 -0.4228
19081TIP3   OH278657   1.769   2.602  15.289  0.1917 -0.3479  0.6394
19081TIP3    H178658   1.750   2.509  15.293  0.5893 -0.5426 -1.1454
19081TIP3    H278659   1.699   2.639  15.235  0.1959  0.3443  1.0862
19082TIP3   OH278660   6.476   3.605  17.107  0.2231  0.1622 -0.0025
19082TIP3    H178661   6.391   3.573  17.136 -0.5120  1.2839 -0.8696
19082TIP3    H278662   6.456   3.676  17.046  1.7518 -0.8381 -1.7486
19083TIP3   OH278663   4.802   4.997  14.633 -0.2044  0.3297  0.0090
19083TIP3    H178664   4.859   4.950  14.694 -1.0693  0.8175  1.2296
19083TIP3    H278665   4.719   5.004  14.679 -0.5357  1.7221 -0.7626
19084TIP3   OH278666   6.110   3.823   4.714 -0.2573  0.0333  0.1481
19084TIP3    H178667   6.082   3.910   4.686 -0.4277 -0.5608 -1.6133
19084TIP3    H278668   6.028   3.775   4.728 -0.1622  0.0940  0.9497
19085TIP3   OH278669   6.608   2.534  11.137 -0.4543 -0.3631  0.1249
19085TIP3    H178670   6.654   2.462  11.181  0.7498  1.0758  1.3140
19085TIP3    H278671   6.551   2.571  11.205 -1.4385 -0.4763 -0.6188
19086TIP3   OH278672   4.700   3.898   6.087  0.2242 -0.5931  0.3472
19086TIP3    H178673   4.760   3.838   6.042 -1.0739 -1.0011 -0.9149
19086TIP3    H278674   4.742   3.984   6.078  0.0840 -0.6820 -1.5707
19087TIP3   OH278675   0.044   1.385  12.012  0.2421 -0.7210 -0.1735
19087TIP3    H178676   0.069   1.323  11.943  2.1064  0.4062 -0.5880
19087TIP3    H278677   0.035   1.469  11.966  1.3120  0.0072  0.8922
19088TIP3   OH278678   3.389   2.555  15.107 -0.0653 -0.6642  0.0953
19088TIP3    H178679   3.394   2.646  15.079  2.4664 -0.6460  0.3995
19088TIP3    H278680   3.422   2.505  15.032 -2.0447 -1.4306 -0.3182
19089TIP3   OH278681   6.655   1.618   3.705  0.1434 -0.5420  0.1538
19089TIP3    H178682   6.725   1.682   3.691  0.1411 -0.7924 -1.1151
19089TIP3    H278683   6.574   1.667   3.687  0.1720 -1.0277 -1.3874
19090TIP3   OH278684   1.391   6.315   6.375 -0.2050 -0.4258 -0.4820
19090TIP3    H178685   1.441   6.239   6.346  0.9959  0.4522 -0.7923
19090TIP3    H278686   1.409   6.321   6.469  0.6997  0.1616 -0.6757
19091TIP3   OH278687   5.315   5.056   4.530 -0.5247  0.0369 -0.1002
19091TIP3    H178688   5.225   5.025   4.526 -0.1344 -1.2317  0.7579
19091TIP3    H278689   5.309   5.141   4.573 -1.2592 -0.2330  0.3401
19092TIP3   OH278690   4.971   1.638  15.140 -0.0675  0.1785  0.2843
19092TIP3    H178691   4.916   1.631  15.218 -0.7076  0.0770 -0.1687
19092TIP3    H278692   4.939   1.715  15.094 -0.6711 -0.6040 -0.6235
19093TIP3   OH278693   2.528   4.072   3.213 -0.3942  0.2589 -0.0215
19093TIP3    H178694   2.584   4.148   3.231  0.1681  0.0471 -0.8396
19093TIP3    H278695   2.587   4.007   3.175 -0.8401 -0.6583  0.7954
19094TIP3   OH278696   2.210   3.892   6.088  0.1142  0.1439  0.3502
19094TIP3    H178697   2.210   3.963   6.152 -1.6543  0.9232 -0.4479
19094TIP3    H278698   2.159   3.823   6.129 -1.4148  0.8154 -0.3193
19095TIP3   OH278699   4.424   4.989  14.102  0.2262 -0.1113  0.4071
19095TIP3    H178700   4.388   4.949  14.181 -1.9971 -0.0313 -0.4809
19095TIP3    H278701   4.357   4.973  14.035  2.0323 -0.1765 -1.4713
19096TIP3   OH278702   3.441   6.291  12.931  0.7165 -0.6973 -0.3136
19096TIP3    H178703   3.418   6.203  12.902  2.4496 -1.2482 -0.1107
19096TIP3    H278704   3.486   6.331  12.856 -1.7367  0.7822 -1.1249
19097TIP3   OH278705   1.878   4.201  13.293  0.0374 -0.2377  0.1127
19097TIP3    H178706   1.816   4.248  13.349 -0.0776 -1.4440  1.0539
19097TIP3    H278707   1.849   4.219  13.204 -1.5876 -0.6473  0.5283
19098TIP3   OH278708   4.914   5.787  13.644  0.0956 -0.3282  0.0766
19098TIP3    H178709   4.912   5.860  13.707 -0.5773 -1.8263  1.9084
19098TIP3    H278710   5.004   5.755  13.648 -0.3374 -1.5119  1.7186
19099TIP3   OH278711   0.854   0.728  12.716 -0.4989 -0.3555  0.7266
19099TIP3    H178712   0.855   0.799  12.653  0.4806  2.2872  3.4894
19099TIP3    H278713   0.767   0.733  12.756 -0.9364 -1.6854  0.0005
19100TIP3   OH278714   5.193   5.318  14.652 -0.6100 -0.5386 -0.0517
19100TIP3    H178715   5.203   5.410  14.674  1.0800 -1.2320  2.5153
19100TIP3    H278716   5.132   5.283  14.717 -1.2293 -1.2550 -0.9890
19101TIP3   OH278717   0.715   6.264  15.300  0.1875  0.1519 -0.0527
19101TIP3    H178718   0.707   6.215  15.381  1.0884 -0.6701 -0.4441
19101TIP3    H278719   0.796   6.232  15.259 -0.1446  0.6774 -1.1852
19102TIP3   OH278720   6.703   2.337  15.249  0.0527 -0.2195 -0.5103
19102TIP3    H178721   6.679   2.357  15.339 -0.5158 -2.8023 -0.0070
19102TIP3    H278722   6.799   2.344  15.248  0.1062 -0.6624  0.4516
19103TIP3   OH278723   1.533   2.144   2.044  0.0442 -0.2444 -0.6431
19103TIP3    H178724   1.559   2.160   1.954 -1.9099  0.2019 -1.1633
19103TIP3    H278725   1.506   2.052   2.045  2.2277 -0.9520  0.0902
19104TIP3   OH278726   3.288   3.263  17.318  0.4513 -0.6780 -0.2345
19104TIP3    H178727   3.251   3.245  17.231 -0.6139  0.5736 -0.0591
19104TIP3    H278728   3.227   3.221  17.379 -0.9948  1.7216  0.0771
19105TIP3   OH278729   5.362   2.935  12.220  0.2187 -0.3479 -0.2919
19105TIP3    H178730   5.437   2.911  12.165  0.5086  0.1635 -0.1312
19105TIP3    H278731   5.397   3.000  12.281 -0.4450  0.1990 -0.4733
19106TIP3   OH278732   6.246   6.167  15.970  0.0602  0.3945  0.0066
19106TIP3    H178733   6.339   6.148  15.984 -0.2640 -0.0849  1.6794
19106TIP3    H278734   6.236   6.258  15.995 -0.2069 -0.0166  1.5186
19107TIP3   OH278735   5.644   1.872   1.347 -0.4976 -0.2490 -0.2547
19107TIP3    H178736   5.588   1.923   1.405  0.6729  0.5792  0.2004
19107TIP3    H278737   5.597   1.869   1.264 -1.0245  0.7833 -0.0134
19108TIP3   OH278738   3.861   2.342  13.626 -0.3797  0.4183  0.4346
19108TIP3    H178739   3.884   2.417  13.681  1.6407  1.0740 -1.1690
19108TIP3    H278740   3.945   2.310  13.593 -1.4221 -0.7031 -1.2630
19109TIP3   OH278741   4.709   0.804  11.780 -0.2127  0.5336  0.5033
19109TIP3    H178742   4.739   0.825  11.691 -3.4761 -0.8168 -1.0918
19109TIP3    H278743   4.754   0.723  11.802  0.3171  0.6549 -0.0865
19110TIP3   OH278744   2.870   5.652   5.164 -0.2182 -1.1650 -0.2024
19110TIP3    H178745   2.808   5.724   5.148 -0.7736 -1.2990  1.1863
19110TIP3    H278746   2.860   5.595   5.089 -1.0971 -0.6906 -0.4662
19111TIP3   OH278747   1.772   3.111   3.510 -0.0036  0.2162 -0.5771
19111TIP3    H178748   1.791   3.067   3.427  0.3751  0.3809 -0.5787
19111TIP3    H278749   1.758   3.040   3.572  2.1773  0.0465 -0.2046
19112TIP3   OH278750   3.348   2.194   4.879  0.1199  0.2009  0.2518
19112TIP3    H178751   3.275   2.205   4.940  0.2039 -0.6611  0.5296
19112TIP3    H278752   3.414   2.255   4.909 -0.7235  1.4656 -0.3922
19113TIP3   OH278753   5.182   1.735   6.333 -0.5156 -0.1677  0.3082
19113TIP3    H178754   5.203   1.692   6.415  3.3599  0.0621 -0.3783
19113TIP3    H278755   5.196   1.668   6.266  0.6516  0.7631 -0.4154
19114TIP3   OH278756   1.018   3.254   3.936 -0.3839 -0.3440 -0.5125
19114TIP3    H178757   0.939   3.203   3.915 -1.7356  0.9497  1.1179
19114TIP3    H278758   1.036   3.233   4.027  1.8583 -1.4321 -1.1523
19115TIP3   OH278759   6.108   0.591  10.579 -0.2682 -0.3831  0.0178
19115TIP3    H178760   6.151   0.652  10.519 -0.0376 -0.5448  0.0150
19115TIP3    H278761   6.173   0.574  10.647 -0.5478 -0.1587  0.3427
19116TIP3   OH278762   1.442   6.562  16.014  0.3771 -0.5693  0.3568
19116TIP3    H178763   1.436   6.652  15.982 -1.2188 -0.3766  1.1394
19116TIP3    H278764   1.368   6.516  15.974 -0.3391 -0.8795  1.9576
19117TIP3   OH278765   6.067   4.704  14.933 -0.8880 -0.1546  0.0589
19117TIP3    H178766   6.000   4.755  14.888 -1.0750 -0.9244 -0.5705
19117TIP3    H278767   6.024   4.671  15.012 -0.4095  1.6188  1.1035
19118TIP3   OH278768   2.929   1.278   3.074 -0.0319 -0.0064  0.2659
19118TIP3    H178769   2.924   1.196   3.124 -1.2063  1.4465  2.7284
19118TIP3    H278770   3.022   1.301   3.076  0.1581 -0.7523  0.4323
19119TIP3   OH278771   3.201   6.255  13.514 -0.9026 -0.8235  0.2203
19119TIP3    H178772   3.191   6.346  13.543  5.1298  0.6456 -1.0557
19119TIP3    H278773   3.206   6.204  13.595 -0.2691  0.6504  1.1451
19120TIP3   OH278774   0.628   3.016  11.473 -0.3867 -0.3762 -0.4201
19120TIP3    H178775   0.577   2.943  11.509 -2.1844  1.2069  0.4700
19120TIP3    H278776   0.651   3.068  11.550 -0.1111  0.5589 -1.1264
19121TIP3   OH278777   4.725   1.183   0.068  0.0128  0.0951  0.4787
19121TIP3    H178778   4.804   1.147   0.108  0.0074  0.0760  0.4719
19121TIP3    H278779   4.731   1.156  -0.024 -0.0654 -0.0165  0.5051
19122TIP3   OH278780   4.644   3.841   3.812 -0.3964  0.5006  0.3889
19122TIP3    H178781   4.598   3.763   3.845 -0.1713 -0.8078 -2.1103
19122TIP3    H278782   4.613   3.913   3.867 -0.7620 -1.2978  2.6798
19123TIP3   OH278783   1.077   1.718  13.629  0.0639 -0.5878  0.3445
19123TIP3    H178784   1.127   1.799  13.626 -0.4090 -0.2908  0.5136
19123TIP3    H278785   1.075   1.694  13.722 -0.1996 -0.5417  0.3516
19124TIP3   OH278786   3.444   2.459  11.968 -0.2642  0.7028 -0.0727
19124TIP3    H178787   3.464   2.480  12.059  2.5933 -0.6674 -0.2512
19124TIP3    H278788   3.417   2.367  11.971  2.1080 -0.0919 -0.7413
19125TIP3   OH278789   3.287   4.681  13.075  0.0907 -0.7597  0.1194
19125TIP3    H178790   3.276   4.724  12.991 -0.7533 -0.8484  0.1819
19125TIP3    H278791   3.225   4.608  13.074  1.1246 -1.6832  0.2248
19126TIP3   OH278792   3.486   3.063  12.273 -0.5705 -0.4158  0.5112
19126TIP3    H178793   3.443   3.091  12.193 -0.5186 -0.4250  0.4797
19126TIP3    H278794   3.475   2.968  12.275 -0.3427 -0.4459  0.3800
19127TIP3   OH278795   4.809   0.096   0.689  0.2431 -0.0342 -0.0883
19127TIP3    H178796   4.824   0.015   0.738  3.6267  1.0748  0.9509
19127TIP3    H278797   4.768   0.067   0.607 -1.0863 -2.4501  1.3061
19128TIP3   OH278798   4.364   5.881  12.605  0.5262 -0.3306  0.0903
19128TIP3    H178799   4.360   5.799  12.557  2.7121 -0.1591 -0.4523
19128TIP3    H278800   4.351   5.949  12.538 -0.6336 -0.1764  0.4405
19129TIP3   OH278801   0.925   3.078   2.189 -0.0886  0.0691 -0.4877
19129TIP3    H178802   0.885   3.001   2.148  0.3299 -0.5229  0.1896
19129TIP3    H278803   1.018   3.073   2.164  0.3116 -0.6548  1.0029
19130TIP3   OH278804   0.015   2.637   5.453  0.0244  0.2177 -0.2368
19130TIP3    H178805  -0.026   2.612   5.536 -0.2235 -1.2850 -0.7753
19130TIP3    H278806   0.086   2.573   5.442 -1.0870 -0.7756 -2.0462
19131TIP3   OH278807   5.726   2.266   2.760  0.0664 -0.8511 -0.2622
19131TIP3    H178808   5.774   2.198   2.712  0.1793 -0.3490 -0.8684
19131TIP3    H278809   5.784   2.342   2.759 -0.6314 -0.3137 -0.7871
19132TIP3   OH278810   5.288   0.404   5.793  0.0569 -0.0086 -0.3706
19132TIP3    H178811   5.274   0.460   5.869  2.2985  0.8962 -0.5544
19132TIP3    H278812   5.351   0.338   5.823  0.4730 -0.0306 -1.2664
19133TIP3   OH278813   1.970   2.510   3.448  0.5004 -0.0116  0.2427
19133TIP3    H178814   1.942   2.511   3.356 -0.1254 -2.9589  0.2927
19133TIP3    H278815   2.058   2.548   3.447 -0.0688  1.3946 -1.2944
19134TIP3   OH278816   1.280   1.435   4.562 -0.3412 -0.3496 -0.3032
19134TIP3    H178817   1.301   1.472   4.477 -0.2817 -1.0730 -0.6104
19134TIP3    H278818   1.188   1.456   4.576  0.0950  1.3106  0.2632
19135TIP3   OH278819   5.532   5.853   0.866  0.6969  0.0798 -0.4873
19135TIP3    H178820   5.547   5.773   0.917  1.3854  0.2073 -0.4774
19135TIP3    H278821   5.440   5.873   0.879  0.8009 -0.0232  0.5272
19136TIP3   OH278822   3.935   1.717  13.882 -0.5089  0.3031  0.1584
19136TIP3    H178823   3.998   1.645  13.879  0.3364  1.0537 -1.0617
19136TIP3    H278824   3.854   1.680  13.848  0.0144 -0.0111 -0.7839
19137TIP3   OH278825   4.413   6.112   5.325 -0.1353 -0.4842 -0.1918
19137TIP3    H178826   4.479   6.175   5.299  0.2940 -1.6384 -2.0909
19137TIP3    H278827   4.447   6.073   5.406  1.7932 -1.4156 -1.3885
19138TIP3   OH278828   2.594   5.216  14.641  0.0674  0.2033  0.3990
19138TIP3    H178829   2.674   5.265  14.619  0.3989 -0.1732  0.7545
19138TIP3    H278830   2.626   5.134  14.679 -0.4809 -0.3136 -0.2278
19139TIP3   OH278831   5.818   4.549   3.068 -0.7039  0.3493 -0.3989
19139TIP3    H178832   5.785   4.579   3.152 -1.6746  0.2521 -0.7324
19139TIP3    H278833   5.835   4.629   3.019  0.2278  0.4142  0.0168
19140TIP3   OH278834   2.843   6.063   2.128 -0.7428 -0.3535  0.4449
19140TIP3    H178835   2.759   6.077   2.171 -0.5860  1.1427  0.3142
19140TIP3    H278836   2.876   5.981   2.164 -2.2371 -0.9485  0.5183
19141TIP3   OH278837   4.904   4.208  17.141 -0.7814 -0.1061  0.0426
19141TIP3    H178838   4.995   4.206  17.114 -0.5926 -1.8612  0.6712
19141TIP3    H278839   4.862   4.138  17.091 -1.5858  0.1233  0.3773
19142TIP3   OH278840   0.547   2.694   5.182 -0.5659  0.4709 -0.3129
19142TIP3    H178841   0.529   2.788   5.183  0.5057  0.7036 -0.8738
19142TIP3    H278842   0.553   2.672   5.089 -0.0931 -0.0035 -0.1738
19143TIP3   OH278843   2.243   3.190  17.347  0.0911 -0.1042  0.1593
19143TIP3    H178844   2.260   3.259  17.411 -1.2360  0.6931 -0.3023
19143TIP3    H278845   2.251   3.234  17.262  0.7454 -0.8874 -0.2042
19144TIP3   OH278846   3.172   4.446   1.264 -0.1116 -0.1246  0.1738
19144TIP3    H178847   3.095   4.485   1.305 -0.1238 -0.9163  0.9425
19144TIP3    H278848   3.140   4.363   1.227 -0.1247  0.6123 -1.5643
19145TIP3   OH278849   3.365   0.351  15.802 -0.3021  0.0699  0.7339
19145TIP3    H178850   3.378   0.345  15.897  0.4920  0.8877  0.6989
19145TIP3    H278851   3.452   0.335  15.765 -0.1338  1.8265  0.2665
19146TIP3   OH278852   2.817   2.338   6.315 -0.0533 -0.5425  0.4147
19146TIP3    H178853   2.883   2.400   6.346 -0.2114 -0.6100  0.8917
19146TIP3    H278854   2.768   2.387   6.249  0.6086 -0.5613 -0.1050
19147TIP3   OH278855   2.575   6.474  11.793  0.4695 -0.1415  0.4836
19147TIP3    H178856   2.574   6.568  11.809  0.6052  0.0940 -0.8015
19147TIP3    H278857   2.483   6.450  11.783  0.4947  0.0783 -0.3487
19148TIP3   OH278858   2.402   1.191   3.384  0.2779  0.4599  0.4016
19148TIP3    H178859   2.371   1.177   3.294 -0.5299  0.4929  0.6601
19148TIP3    H278860   2.461   1.119   3.401  0.3926  0.4215 -0.1415
19149TIP3   OH278861   1.320   3.788   3.091 -0.2564 -0.0575  0.0572
19149TIP3    H178862   1.331   3.820   3.002  0.5770 -0.0447  0.1604
19149TIP3    H278863   1.406   3.753   3.115 -0.3192  0.4274  1.0441
19150TIP3   OH278864   4.799   5.862  13.043 -0.5488  0.1551 -0.4309
19150TIP3    H178865   4.805   5.767  13.043 -0.5479  0.1352  0.8100
19150TIP3    H278866   4.780   5.885  13.135 -0.1103  1.3637 -0.6207
19151TIP3   OH278867   6.457   6.739   2.289  0.3552 -0.2126 -0.0040
19151TIP3    H178868   6.458   6.648   2.319  0.3354 -1.3990 -3.2412
19151TIP3    H278869   6.535   6.778   2.330 -0.9125 -0.8694  3.3794
19152TIP3   OH278870   3.781   3.798   4.712  0.1615 -0.8485 -0.0250
19152TIP3    H178871   3.756   3.825   4.800  0.0352  0.3803 -0.4092
19152TIP3    H278872   3.699   3.780   4.667  0.1514 -0.2752 -0.2447
19153TIP3   OH278873   6.152   1.685  12.763  0.0662  0.0228 -0.6491
19153TIP3    H178874   6.170   1.664  12.854  0.1322  0.0434 -0.6570
19153TIP3    H278875   6.234   1.663  12.717  0.6678  1.6826 -0.4503
19154TIP3   OH278876   1.996   3.288   6.242  0.1692  0.5471 -0.4797
19154TIP3    H178877   2.014   3.361   6.183  0.4178  0.7641 -0.1402
19154TIP3    H278878   1.954   3.328   6.318 -0.9285  0.1639 -0.8661
19155TIP3   OH278879   1.173   5.484   4.523  0.0105 -0.0065  0.5940
19155TIP3    H178880   1.120   5.492   4.444 -1.0902  0.7754  1.3738
19155TIP3    H278881   1.262   5.474   4.491 -0.3459  0.8513 -0.7498
19156TIP3   OH278882   5.062   3.016   5.422 -0.4177  0.1409 -0.4783
19156TIP3    H178883   5.149   2.978   5.413  0.2291  1.0449  1.3166
19156TIP3    H278884   5.006   2.942   5.447  0.2975 -0.0942  0.4903
19157TIP3   OH278885   2.526   1.899   3.253 -0.3790  0.2362  0.8223
19157TIP3    H178886   2.514   1.866   3.164 -0.8666  0.8094  0.6649
19157TIP3    H278887   2.611   1.865   3.281 -1.0372 -1.5094  0.8421
19158TIP3   OH278888   0.873   0.429   6.412 -0.2448  0.3544 -0.3266
19158TIP3    H178889   0.924   0.358   6.452  1.1815  1.2758 -0.4596
19158TIP3    H278890   0.792   0.386   6.384 -0.0181 -0.9331  0.8448
19159TIP3   OH278891   1.893   2.955   0.591  0.4796 -0.4576 -0.2033
19159TIP3    H178892   1.972   2.939   0.642 -0.0489 -1.9892  0.2048
19159TIP3    H278893   1.894   3.049   0.572  0.4451  0.3317  3.0924
19160TIP3   OH278894   2.003   2.472   5.534  0.0749 -0.2466  0.1501
19160TIP3    H178895   1.986   2.513   5.619 -0.3844 -0.3632  0.1179
19160TIP3    H278896   1.916   2.455   5.497  0.2011  2.6004 -1.7297
19161TIP3   OH278897   6.660   1.267  15.336  0.9918 -0.3065  0.5773
19161TIP3    H178898   6.678   1.360  15.350  1.2028 -0.0213 -1.2895
19161TIP3    H278899   6.565   1.260  15.338  0.9906 -0.4798  2.8678
19162TIP3   OH278900   5.555   0.048  15.252  0.4601  0.4130 -0.0504
19162TIP3    H178901   5.525   0.114  15.314 -0.6434 -0.5094  0.4299
19162TIP3    H278902   5.474   0.006  15.222  1.2036 -1.6884  0.7447
19163TIP3   OH278903   2.026   0.482  15.504 -0.0695 -0.0216 -0.0561
19163TIP3    H178904   1.997   0.397  15.470  0.5767  0.0063 -0.6859
19163TIP3    H278905   2.121   0.475  15.508  0.0060  0.7637 -0.3527
19164TIP3   OH278906   4.130   1.467  13.013 -0.1356  0.1018  0.0355
19164TIP3    H178907   4.049   1.416  13.007  0.1143 -0.3326  0.3222
19164TIP3    H278908   4.103   1.551  13.051 -0.2207 -0.5935  1.5676
19165TIP3   OH278909   4.968   3.271   2.516  0.9124 -0.3465  0.3987
19165TIP3    H178910   4.972   3.352   2.464 -0.2546 -0.8932 -0.5900
19165TIP3    H278911   5.046   3.222   2.491  0.8463 -0.1867 -0.1245
19166TIP3   OH278912   2.624   4.464  13.995  0.3372  0.0916 -0.6602
19166TIP3    H178913   2.696   4.493  13.938  0.7484  1.7620  0.6197
19166TIP3    H278914   2.659   4.472  14.083 -1.2504  0.4593 -0.0306
19167TIP3   OH278915   5.126   5.810   2.017 -0.3609 -0.2477 -0.7876
19167TIP3    H178916   5.094   5.846   1.934  1.9308 -0.0737 -1.6641
19167TIP3    H278917   5.074   5.730   2.030 -0.9295 -0.1538 -2.2558
19168TIP3   OH278918   1.646   0.900  11.573 -0.4929  0.1700  0.2236
19168TIP3    H178919   1.627   0.943  11.490 -1.9029  0.4489  0.6613
19168TIP3    H278920   1.591   0.821  11.573  2.5560 -2.1532 -0.8731
19169TIP3   OH278921   4.081   3.343   6.195  0.2114 -0.3408 -0.2001
19169TIP3    H178922   4.146   3.282   6.161  1.3560  0.7335  0.0045
19169TIP3    H278923   4.085   3.418   6.135 -1.3000 -0.5157 -0.5572
19170TIP3   OH278924   4.373   0.884   0.129  0.6218  0.2416  0.6840
19170TIP3    H178925   4.368   0.972   0.090  1.8162  0.5066  1.0781
19170TIP3    H278926   4.375   0.900   0.223  2.4275 -0.0837  0.7367
19171TIP3   OH278927   3.167   2.937   2.828  0.8343  0.0697  0.1728
19171TIP3    H178928   3.074   2.920   2.811  1.3378 -0.3838 -2.5523
19171TIP3    H278929   3.189   2.878   2.900 -0.4460 -1.5747 -0.7173
19172TIP3   OH278930   6.486   1.366   5.401  0.4511 -0.1463 -0.1132
19172TIP3    H178931   6.412   1.426   5.407  0.8647  0.3479  0.0441
19172TIP3    H278932   6.446   1.281   5.380 -0.2429 -0.0802  0.8600
19173TIP3   OH278933   0.692   3.739   4.437 -0.1339 -0.0567 -0.3255
19173TIP3    H178934   0.659   3.650   4.429  0.7764 -0.2400 -2.7171
19173TIP3    H278935   0.639   3.778   4.507 -0.5807 -2.4154  0.7447
19174TIP3   OH278936   5.882   4.429   1.376 -0.3626 -0.1209  0.2910
19174TIP3    H178937   5.910   4.490   1.308  1.2234  0.9115  1.7726
19174TIP3    H278938   5.957   4.370   1.387 -0.2131  0.2881  1.7093
19175TIP3   OH278939   4.717   6.331   2.983  0.2387  0.0575  0.8226
19175TIP3    H178940   4.793   6.307   3.037  1.3397 -0.4427 -0.8500
19175TIP3    H278941   4.734   6.421   2.957 -0.1882  0.2304  1.1328
19176TIP3   OH278942   6.094   3.194  13.430 -0.0011  0.3569 -0.4283
19176TIP3    H178943   6.137   3.223  13.350  0.9984  0.0426 -0.0301
19176TIP3    H278944   6.138   3.243  13.500  0.2492 -0.5256  0.0514
19177TIP3   OH278945   5.729   4.105   2.636 -0.3345  0.4271  0.3801
19177TIP3    H178946   5.633   4.104   2.635 -0.3493 -0.2314 -1.5583
19177TIP3    H278947   5.752   4.197   2.623 -0.7291  0.4630 -0.1134
19178TIP3   OH278948   5.618   2.321  12.157  0.2072  0.1330 -0.4910
19178TIP3    H178949   5.568   2.241  12.174 -0.9016  0.6734 -1.1104
19178TIP3    H278950   5.552   2.388  12.142  1.1030  0.6683 -2.3311
19179TIP3   OH278951   5.836   6.376  12.958  0.4681 -0.1328 -0.3670
19179TIP3    H178952   5.904   6.436  12.927  0.0232  0.7966  0.3891
19179TIP3    H278953   5.796   6.341  12.878 -1.5954  3.2578 -1.0419
19180TIP3   OH278954   2.409   2.770   2.463  0.5724 -0.5068  0.1019
19180TIP3    H178955   2.434   2.787   2.372 -0.5828 -0.5687 -0.2421
19180TIP3    H278956   2.443   2.682   2.481 -0.6091 -1.1813 -0.8216
19181TIP3   OH278957   0.572   3.241  17.034  0.3825 -0.0246 -0.2779
19181TIP3    H178958   0.604   3.250  17.124  3.2901  0.1562 -1.2419
19181TIP3    H278959   0.494   3.186  17.042  1.3356 -1.1620  2.2303
19182TIP3   OH278960   1.007   1.114  11.431  0.0228  0.4188 -0.0836
19182TIP3    H178961   0.914   1.129  11.447  0.3692  2.5949  0.2694
19182TIP3    H278962   1.011   1.085  11.340 -0.9582  0.6808 -0.2271
19183TIP3   OH278963   6.375   4.683  16.549 -0.1242  0.4649 -0.4125
19183TIP3    H178964   6.328   4.602  16.570  0.3769  0.4651  0.7758
19183TIP3    H278965   6.310   4.738  16.505 -0.6096 -0.3743 -0.7794
19184TIP3   OH278966   4.488   4.109   5.174 -0.6482  0.4376  0.1907
19184TIP3    H178967   4.411   4.060   5.201 -0.2710 -0.0558  0.3988
19184TIP3    H278968   4.481   4.115   5.079 -0.4451 -0.4792  0.1033
19185TIP3   OH278969   1.017   4.284  13.471  0.1172  0.0678  0.1982
19185TIP3    H178970   1.021   4.201  13.518 -0.7189  0.4847  1.0454
19185TIP3    H278971   1.033   4.261  13.379 -0.9072 -1.1496  0.2909
19186TIP3   OH278972   0.593   6.391  10.362  0.4994  0.0335 -0.1923
19186TIP3    H178973   0.563   6.358  10.277 -2.1631  0.0616  0.6546
19186TIP3    H278974   0.606   6.312  10.415  0.3316  0.0803 -0.0789
19187TIP3   OH278975   4.070   0.074   4.529  0.5636 -0.6575 -0.0337
19187TIP3    H178976   4.121   0.147   4.494  1.7763 -1.6978 -0.4993
19187TIP3    H278977   3.984   0.111   4.546  1.1149  0.8487 -0.3884
19188TIP3   OH278978   3.821   4.534   4.136  0.2778  0.2879  0.4634
19188TIP3    H178979   3.903   4.580   4.154  0.6224  0.6610 -1.7852
19188TIP3    H278980   3.845   4.465   4.075 -1.0956  0.5284 -0.4003
19189TIP3   OH278981   2.639   3.760  16.107  0.5090 -0.6923  0.5672
19189TIP3    H178982   2.658   3.741  16.015  0.0029 -0.9200  0.5019
19189TIP3    H278983   2.692   3.698  16.156 -1.0747 -2.2947  0.3594
19190TIP3   OH278984   5.378   0.956   5.809  0.1356 -0.2613 -0.3212
19190TIP3    H178985   5.366   0.980   5.901  1.0344 -2.0348  0.3156
19190TIP3    H278986   5.469   0.980   5.790  0.8599 -2.3755  0.1531
19191TIP3   OH278987   4.721   2.015  16.253  0.5936  0.7580  0.1417
19191TIP3    H178988   4.633   2.052  16.257 -0.4358 -0.7811 -4.0380
19191TIP3    H278989   4.776   2.088  16.224 -0.3090  0.6029 -2.1321
19192TIP3   OH278990   0.052   4.355  13.739 -0.0506  0.0816  0.1216
19192TIP3    H178991  -0.043   4.356  13.732 -0.0346  0.5560 -0.0724
19192TIP3    H278992   0.083   4.373  13.650  0.2273 -0.7638  0.0411
19193TIP3   OH278993   0.847   4.077   1.938  0.3460  0.3744  0.0754
19193TIP3    H178994   0.844   4.050   1.846  0.2982 -1.7130  0.6510
19193TIP3    H278995   0.933   4.117   1.949  0.6633 -0.0819 -0.6862
19194TIP3   OH278996   4.951   5.597   2.040 -0.1966 -0.0963 -0.4284
19194TIP3    H178997   4.951   5.509   2.002 -0.2361 -0.1712 -0.2559
19194TIP3    H278998   4.866   5.633   2.015 -0.3635 -0.2730 -0.1201
19195TIP3   OH278999   6.436   2.091   0.966 -0.1213 -0.2696 -0.8193
19195TIP3    H179000   6.459   2.150   1.038 -0.3773  0.1807 -1.1048
19195TIP3    H279001   6.470   2.134   0.888 -2.6099  0.8585 -1.3914
19196TIP3   OH279002   2.753   4.137   1.604 -0.9287 -0.2424  0.4932
19196TIP3    H179003   2.804   4.197   1.659 -0.5441 -0.3989  0.3100
19196TIP3    H279004   2.683   4.105   1.662 -0.4702 -0.4763  0.9214
19197TIP3   OH279005   0.878   3.263  15.939 -0.0156  0.0936 -0.5063
19197TIP3    H179006   0.917   3.345  15.969 -2.1686  0.2261  2.1944
19197TIP3    H279007   0.847   3.283  15.850 -1.6577  2.6565  0.5475
19198TIP3   OH279008   2.006   3.538  11.663  1.0523 -0.5599  0.3356
19198TIP3    H179009   1.976   3.629  11.667  1.4671 -0.2954 -1.8085
19198TIP3    H279010   2.101   3.544  11.666  1.0769 -0.9579  0.3820
19199TIP3   OH279011   5.981   1.474   1.220 -0.7916 -0.2672 -0.1040
19199TIP3    H179012   6.055   1.522   1.183  0.0970 -1.0903  0.5358
19199TIP3    H279013   6.003   1.463   1.313 -0.7949 -2.1371 -0.2755
19200TIP3   OH279014   5.984   3.386  17.343  0.3058 -0.2099 -0.1464
19200TIP3    H179015   6.046   3.322  17.376 -1.8866 -0.3057  4.5638
19200TIP3    H279016   5.907   3.335  17.319 -0.4820  0.3661  1.0451
19201TIP3   OH279017   3.839   1.949   2.866 -0.5024 -0.0098 -0.4267
19201TIP3    H179018   3.882   1.868   2.840 -1.8337 -0.5619 -1.0091
19201TIP3    H279019   3.908   2.016   2.860 -0.2355 -0.4120 -3.6829
19202TIP3   OH279020   1.718   3.857  11.906  0.1091  0.2188 -0.3274
19202TIP3    H179021   1.736   3.916  11.833  0.2761  0.2423 -0.2694
19202TIP3    H279022   1.696   3.774  11.865 -0.0355  0.2978 -0.4096
19203TIP3   OH279023   6.308   0.573   1.571  0.6173 -0.1706 -0.6863
19203TIP3    H179024   6.273   0.656   1.603  0.9940  0.2247 -1.2771
19203TIP3    H279025   6.255   0.506   1.614 -0.5974  0.3960 -1.2754
19204TIP3   OH279026   3.514   5.589  17.173 -0.0391 -0.0922  0.4758
19204TIP3    H179027   3.586   5.560  17.117 -0.0356  1.9506 -0.6401
19204TIP3    H279028   3.436   5.580  17.118 -0.1047  1.4271  0.2888
19205TIP3   OH279029   3.503   0.023  13.464 -0.1127  0.6585 -0.4813
19205TIP3    H179030   3.487  -0.032  13.540 -0.5620 -2.5173 -2.6698
19205TIP3    H279031   3.598   0.019  13.451  0.2312  2.8088  0.9161
19206TIP3   OH279032   6.233   4.439   1.824 -0.0178  0.5873  0.4701
19206TIP3    H179033   6.217   4.345   1.828 -0.2941  0.6654  2.0738
19206TIP3    H279034   6.325   4.448   1.849  0.1170  0.7281 -0.0654
19207TIP3   OH279035   4.143   3.408  12.099  0.1954  0.0709 -0.1721
19207TIP3    H179036   4.209   3.382  12.163 -0.8032  0.5115  1.0626
19207TIP3    H279037   4.192   3.458  12.033  1.1019  0.2884  0.6495
19208TIP3   OH279038   4.375   5.597  14.904 -0.0925 -0.0613 -0.1199
19208TIP3    H179039   4.401   5.646  14.983 -0.9862 -0.9299  0.7489
19208TIP3    H279040   4.334   5.518  14.938 -0.3626 -0.5271 -1.4797
19209TIP3   OH279041   1.294   2.060  16.420 -0.2575  0.1753 -0.4904
19209TIP3    H179042   1.273   2.070  16.513 -0.5796  2.1069 -0.7330
19209TIP3    H279043   1.238   2.124  16.376  1.8527  1.2855 -1.7271
19210TIP3   OH279044   5.673   1.114  13.345  0.1798  0.6402  0.3575
19210TIP3    H179045   5.732   1.039  13.337 -0.7418 -0.0891  0.2225
19210TIP3    H279046   5.674   1.155  13.259 -0.0949  0.1778  0.1337
19211TIP3   OH279047   0.214   4.991   1.090 -0.2735 -0.0147 -0.5004
19211TIP3    H179048   0.194   5.076   1.050 -0.7624  0.6047  1.0002
19211TIP3    H279049   0.189   5.001   1.182 -1.6385 -2.1990 -0.5417
19212TIP3   OH279050   6.411   2.139  13.060  0.1176 -0.0375  0.5928
19212TIP3    H179051   6.423   2.200  13.133  0.0784  1.0003 -0.2438
19212TIP3    H279052   6.436   2.053  13.095  1.9638  0.7329  1.2663
19213TIP3   OH279053   3.133   4.438  13.065 -0.4010  0.1955 -0.0382
19213TIP3    H179054   3.078   4.388  13.003 -0.2611 -1.2017  0.9201
19213TIP3    H279055   3.195   4.374  13.099 -0.7373  0.8280  1.8601
19214TIP3   OH279056   3.957   5.294  15.914 -0.3689 -0.1408 -0.1627
19214TIP3    H179057   3.939   5.275  16.006  1.4406  0.7786  0.4247
19214TIP3    H279058   4.014   5.223  15.886  1.5588  1.1374  0.3428
19215TIP3   OH279059   1.385   2.996   3.741  0.4459  0.0293  0.5862
19215TIP3    H179060   1.403   3.077   3.790 -0.5212  0.7980 -0.2764
19215TIP3    H279061   1.299   3.011   3.701 -0.4262 -2.0169  1.5748
19216TIP3   OH279062   3.218   5.525  16.686 -0.2840 -0.2818  0.3870
19216TIP3    H179063   3.256   5.554  16.603  0.5751 -0.9733  0.5214
19216TIP3    H279064   3.142   5.472  16.660 -0.6550  0.3938  0.0850
19217TIP3   OH279065   1.249   4.435   5.192 -0.1416 -0.2448  0.3713
19217TIP3    H179066   1.300   4.516   5.183 -2.5722  1.2113 -1.8279
19217TIP3    H279067   1.313   4.365   5.188  1.8131  1.5042 -0.8330
19218TIP3   OH279068   1.346   2.422   0.927  0.0325  0.5157 -0.2920
19218TIP3    H179069   1.299   2.463   0.855  1.3266  0.8898 -0.9510
19218TIP3    H279070   1.363   2.333   0.896  1.9391  1.1273 -1.1429
19219TIP3   OH279071   3.570   6.192  16.052  0.2862 -0.6954  0.2747
19219TIP3    H179072   3.501   6.134  16.020  1.2332 -0.7580 -1.8337
19219TIP3    H279073   3.525   6.252  16.111 -1.8041 -0.2034 -1.6584
19220TIP3   OH279074   4.836   6.506  15.968  0.0201 -0.6175 -0.1666
19220TIP3    H179075   4.776   6.432  15.955  0.5808 -1.0592 -0.3120
19220TIP3    H279076   4.910   6.487  15.910  0.6215 -0.4500  0.5290
19221TIP3   OH279077   6.690   5.263  17.387 -0.2485 -0.2857 -0.2191
19221TIP3    H179078   6.639   5.208  17.327 -1.2890 -0.0092  0.3908
19221TIP3    H279079   6.625   5.308  17.440  0.6385 -0.3994  1.0152
19222TIP3   OH279080   5.514   6.075   0.695  0.1286  0.7835  0.2281
19222TIP3    H179081   5.601   6.112   0.682  0.8937 -0.9885 -0.0665
19222TIP3    H279082   5.519   6.031   0.780  0.4267 -1.5295 -0.8877
19223TIP3   OH279083   3.524   3.453  15.194 -0.4641  0.1881  0.2227
19223TIP3    H179084   3.601   3.506  15.178  0.1702 -0.7449  0.0848
19223TIP3    H279085   3.520   3.444  15.289 -0.5520  0.4495  0.2440
19224TIP3   OH279086   2.791   4.710   3.567 -0.7082 -0.1344  0.0486
19224TIP3    H179087   2.751   4.708   3.480 -0.8445 -2.1587  0.1261
19224TIP3    H279088   2.731   4.661   3.623 -0.0923  0.2316  1.0644
19225TIP3   OH279089   0.349   5.557  11.410  0.4063 -0.2119 -0.2561
19225TIP3    H179090   0.277   5.582  11.352  0.0264  1.7420  0.9235
19225TIP3    H279091   0.405   5.635  11.413  2.3828 -1.5438 -0.8060
19226TIP3   OH279092   0.565   5.535  13.710 -1.4609  0.3104  0.2756
19226TIP3    H179093   0.515   5.553  13.631 -0.6171 -0.5958 -0.4935
19226TIP3    H279094   0.618   5.614  13.724 -0.3360 -0.1599 -1.0776
19227TIP3   OH279095   0.692   1.534  12.062  0.5427  0.4558  0.0702
19227TIP3    H179096   0.654   1.447  12.070  2.9466 -0.5999  0.8127
19227TIP3    H279097   0.624   1.593  12.096 -0.0456 -1.4293  2.4430
19228TIP3   OH279098   3.969   1.076   5.713 -0.0555 -0.6873  0.0619
19228TIP3    H179099   3.895   1.017   5.731 -0.0304 -1.5384 -2.3442
19228TIP3    H279100   3.928   1.160   5.693 -0.4034 -1.0957 -1.0276
19229TIP3   OH279101   5.839   4.518  12.544  0.4775 -0.2743 -0.1166
19229TIP3    H179102   5.831   4.428  12.577 -1.1688 -0.2833 -0.4418
19229TIP3    H279103   5.903   4.559  12.602  0.0954 -1.2264  1.0366
19230TIP3   OH279104   4.305   0.065  14.840  0.1364  0.2593  0.4282
19230TIP3    H179105   4.378   0.127  14.836 -1.1841  1.8616  0.5903
19230TIP3    H279106   4.324   0.011  14.917  1.7474 -0.1668 -0.2191
19231TIP3   OH279107   5.765   5.353  13.948 -0.4498 -0.3786 -0.1354
19231TIP3    H179108   5.727   5.425  13.899 -0.5851  0.8015  1.5986
19231TIP3    H279109   5.720   5.355  14.033  1.4591 -0.7072  0.9539
19232TIP3   OH279110   1.091   3.212  17.118 -0.0387 -0.3666 -0.0979
19232TIP3    H179111   1.120   3.178  17.034  0.7221 -3.9171  1.4129
19232TIP3    H279112   1.002   3.178  17.129  0.1401 -0.5624  0.8313
19233TIP3   OH279113   6.573   5.217   4.569 -0.4608  0.3424 -0.2438
19233TIP3    H179114   6.518   5.145   4.539  1.4299 -0.6142 -1.5840
19233TIP3    H279115   6.520   5.295   4.556 -1.9474 -0.6448 -0.3140
19234TIP3   OH279116   4.239   1.498  16.804  0.2858  0.1092  0.1040
19234TIP3    H179117   4.272   1.409  16.807 -1.4793 -0.7185 -2.1187
19234TIP3    H279118   4.304   1.546  16.753  1.9173  0.5246  2.4123
19235TIP3   OH279119   2.519   5.467   0.952  0.1094 -0.0263 -0.3397
19235TIP3    H179120   2.437   5.459   0.903 -0.0094 -0.2790 -0.1036
19235TIP3    H279121   2.588   5.463   0.885 -0.1138  2.3006 -0.7774
19236TIP3   OH279122   0.867   3.693   1.141  0.3656 -0.8174 -0.7563
19236TIP3    H179123   0.853   3.770   1.196 -1.7253  0.7556 -3.2855
19236TIP3    H279124   0.818   3.623   1.185  2.2858 -0.8130  1.5719
19237TIP3   OH279125   4.651   3.775  16.705  0.2420  0.4544  0.0566
19237TIP3    H179126   4.681   3.719  16.777 -0.8648  1.6165  1.4845
19237TIP3    H279127   4.729   3.791  16.652  0.9730 -0.8682  0.6905
19238TIP3   OH279128   6.395   5.896   3.808  0.1339  0.7064 -0.1734
19238TIP3    H179129   6.402   5.836   3.734  0.0431 -0.2149  0.5365
19238TIP3    H279130   6.457   5.966   3.790 -0.6722  1.0832 -1.6360
19239TIP3   OH279131   5.408   6.019   1.464 -0.0845  0.6320  0.5460
19239TIP3    H179132   5.479   5.965   1.500  1.5055  2.0390 -0.3316
19239TIP3    H279133   5.427   6.023   1.370 -2.4878 -0.5474 -0.0574
19240TIP3   OH279134   6.399   4.407   5.241 -0.1873  0.0577  0.0682
19240TIP3    H179135   6.465   4.339   5.255 -1.0062 -1.1344 -1.5327
19240TIP3    H279136   6.419   4.443   5.155 -2.0115 -0.8200 -0.7574
19241TIP3   OH279137   1.157   2.483  17.365  0.7149  0.3091 -0.6007
19241TIP3    H179138   1.226   2.539  17.329  1.1795 -0.0003 -0.2102
19241TIP3    H279139   1.172   2.397  17.324  0.7133  0.1799 -0.3344
19242TIP3   OH279140   1.708   6.696   3.987  0.4479 -0.1315  0.3177
19242TIP3    H179141   1.630   6.699   4.043  0.1502 -1.1807 -0.0220
19242TIP3    H279142   1.780   6.723   4.045  0.1114 -0.9955  1.1721
19243TIP3   OH279143   0.744   3.977  15.339  0.4894 -0.0077 -0.0759
19243TIP3    H179144   0.761   3.885  15.321 -0.3510 -0.6856  2.2957
19243TIP3    H279145   0.650   3.982  15.353  0.3345  1.4790 -1.3702
19244TIP3   OH279146   3.197   1.999  14.295  0.5740  0.2358 -0.2184
19244TIP3    H179147   3.246   2.027  14.217 -1.6360 -0.6032 -2.0101
19244TIP3    H279148   3.200   1.903  14.292  1.0562  0.1869  1.1728
19245TIP3   OH279149   1.200   2.139   2.233 -0.1916 -0.4872 -0.4812
19245TIP3    H179150   1.236   2.168   2.148 -0.6924  1.2902 -0.1369
19245TIP3    H279151   1.264   2.170   2.297 -0.9363  0.2261 -0.0668
19246TIP3   OH279152   4.150   2.309  15.054 -0.3179  0.3255 -0.0081
19246TIP3    H179153   4.148   2.404  15.041 -2.0905  1.0194  3.8801
19246TIP3    H279154   4.241   2.289  15.077 -0.2200  1.3639  0.5361
19247TIP3   OH279155   3.882   4.854   1.813 -0.6188 -0.6881 -0.1070
19247TIP3    H179156   3.960   4.834   1.761 -1.4936 -1.4967 -1.1732
19247TIP3    H279157   3.847   4.934   1.774 -0.5763 -0.5933  0.0530
19248TIP3   OH279158   2.609   2.547  11.908  0.0741 -1.0379  0.5395
19248TIP3    H179159   2.526   2.551  11.861 -0.8811  0.9754  2.1991
19248TIP3    H279160   2.603   2.468  11.961 -0.7104 -1.0363  0.4640
19249TIP3   OH279161   5.611   6.523  10.649  0.3810  0.6536 -0.8226
19249TIP3    H179162   5.694   6.557  10.684  0.9355 -2.0242  0.7566
19249TIP3    H279163   5.625   6.520  10.554  2.5345 -0.5361 -0.5461
19250TIP3   OH279164   3.284   0.345   4.636  0.4448  0.1440  0.1755
19250TIP3    H179165   3.313   0.365   4.725 -1.0286  1.2905  0.4502
19250TIP3    H279166   3.251   0.256   4.641  1.6031 -0.2902  0.4304
19251TIP3   OH279167   0.288   1.974   3.596 -0.3569  0.4217 -0.0394
19251TIP3    H179168   0.368   1.926   3.575 -0.3658 -0.2044  1.2253
19251TIP3    H279169   0.221   1.907   3.603 -0.7525  0.8190  0.0378
19252TIP3   OH279170   1.663   5.968   3.073 -0.2747 -0.8542 -0.2315
19252TIP3    H179171   1.600   5.999   3.008  1.2227 -0.0373 -1.3728
19252TIP3    H279172   1.635   6.008   3.155 -0.6323  0.3946 -0.9293
19253TIP3   OH279173   3.054   1.757  12.660 -0.0247  0.0773 -0.1685
19253TIP3    H179174   2.970   1.721  12.687 -0.3443 -0.4349 -1.7187
19253TIP3    H279175   3.074   1.825  12.724 -1.4023 -0.1027  0.4666
19254TIP3   OH279176   1.930   3.973  12.070  0.7455 -0.3888 -0.3828
19254TIP3    H179177   1.870   3.936  12.134  1.6257 -0.4248  0.4555
19254TIP3    H279178   1.940   3.905  12.004 -0.8042 -0.0395 -1.0194
19255TIP3   OH279179   6.712   4.617   0.358 -0.4661 -0.2114  0.1071
19255TIP3    H179180   6.622   4.650   0.363 -0.7416 -0.8478 -0.4222
19255TIP3    H279181   6.749   4.661   0.281 -0.0418  0.6808  0.8002
19256TIP3   OH279182   5.999   1.948  15.360  0.2284 -0.4121 -0.6816
19256TIP3    H179183   6.023   2.021  15.304 -0.5548  0.6290  0.2846
19256TIP3    H279184   5.924   1.907  15.316 -0.5946  0.6002 -0.2652
19257TIP3   OH279185   2.685   2.528   4.515 -0.0332 -0.1311 -0.1390
19257TIP3    H179186   2.679   2.450   4.571 -1.8069 -0.3321 -0.5800
19257TIP3    H279187   2.686   2.601   4.576 -0.5853 -0.4128  0.2154
19258TIP3   OH279188   5.408   0.529  10.939  0.1344 -0.3258 -0.1511
19258TIP3    H179189   5.397   0.508  10.846 -2.8094  1.6173 -0.4012
19258TIP3    H279190   5.331   0.491  10.981  0.1999  0.8354  1.0790
19259TIP3   OH279191   1.684   2.977  16.901 -0.3380  0.3248  0.6612
19259TIP3    H179192   1.703   3.040  16.832  0.7655  0.6001  1.1957
19259TIP3    H279193   1.765   2.927  16.912 -0.8029 -0.3653  1.1018
19260TIP3   OH279194   5.919   5.425   5.533 -0.0277 -0.0151 -0.5817
19260TIP3    H179195   5.926   5.368   5.609 -0.9080  0.9065  0.2102
19260TIP3    H279196   5.829   5.416   5.503 -0.2279  1.0440 -0.3572
19261TIP3   OH279197   6.649   5.789   4.647 -0.0262 -0.6158  0.4013
19261TIP3    H179198   6.705   5.715   4.623  0.0121 -0.4834  0.0751
19261TIP3    H279199   6.563   5.749   4.663 -0.7209 -0.4721 -2.3693
19262TIP3   OH279200   2.599   5.285  16.280  0.0359 -0.7068  0.7003
19262TIP3    H179201   2.573   5.194  16.290 -1.8348 -0.1201  1.4906
19262TIP3    H279202   2.523   5.328  16.241  0.9380  0.5177  0.2028
19263TIP3   OH279203   2.892   4.897   3.943 -0.1305 -0.2128  0.1493
19263TIP3    H179204   2.893   4.945   3.860  1.7995 -0.6817 -0.1414
19263TIP3    H279205   2.845   4.816   3.923  0.6059 -0.4714 -0.5773
19264TIP3   OH279206   5.430   6.530  12.987  0.3161  0.2572  0.5713
19264TIP3    H179207   5.426   6.610  12.935 -0.5902 -0.0350  0.1732
19264TIP3    H279208   5.380   6.466  12.937  2.3054 -1.0389  0.1047
19265TIP3   OH279209   4.131   4.064  11.410  0.7662 -0.0279 -0.1274
19265TIP3    H179210   4.068   3.992  11.413  0.1856  0.5006  0.6896
19265TIP3    H279211   4.211   4.026  11.446  0.7345 -0.5136 -0.5450
19266TIP3   OH279212   6.239   6.028  11.628 -0.2280  0.0137  1.1759
19266TIP3    H179213   6.258   6.007  11.720 -2.1562  1.9938  2.0929
19266TIP3    H279214   6.284   6.111  11.612  0.8321 -0.7415  0.0033
19267TIP3   OH279215   4.408   2.353  16.507  0.2882  0.0982 -0.0078
19267TIP3    H179216   4.359   2.325  16.584 -0.3250 -1.0756 -0.7989
19267TIP3    H279217   4.470   2.281  16.491 -0.0429  0.0230 -0.9852
19268TIP3   OH279218   1.620   3.465  14.027  0.4191 -0.4092 -0.5803
19268TIP3    H179219   1.543   3.513  14.057 -1.6472 -2.0192 -2.9101
19268TIP3    H279220   1.666   3.527  13.971  0.9519  0.5943  0.8925
19269TIP3   OH279221   3.133   0.537  14.050  0.1295  0.7754 -0.1702
19269TIP3    H179222   3.223   0.505  14.056 -0.3106 -0.5005 -0.2348
19269TIP3    H279223   3.085   0.490  14.118 -0.9388 -0.1797 -1.5235
19270TIP3   OH279224   1.451   6.558  16.629 -0.7685  0.5604  0.5584
19270TIP3    H179225   1.525   6.619  16.638 -0.4841  0.6473 -1.6478
19270TIP3    H279226   1.374   6.613  16.646 -0.3933  0.5811  2.4047
19271TIP3   OH279227   0.555   4.956   0.599  0.4286 -0.1363 -0.5353
19271TIP3    H179228   0.646   4.931   0.584  0.8961  0.2944  1.2835
19271TIP3    H279229   0.515   4.877   0.636 -0.1439 -0.5469 -1.9922
19272TIP3   OH279230   0.068   4.159   0.921  0.1706  0.1648  0.9298
19272TIP3    H179231   0.051   4.106   0.999 -0.3030 -0.5104  0.3776
19272TIP3    H279232   0.161   4.178   0.925 -0.0049  0.8577  2.1091
19273TIP3   OH279233   3.296   4.430  15.638 -0.1424  0.0650 -0.5441
19273TIP3    H179234   3.367   4.412  15.700  0.7813 -0.4371 -1.7167
19273TIP3    H279235   3.297   4.525  15.627  1.4398 -0.0703 -1.7841
19274TIP3   OH279236   0.776   5.260   5.271 -0.0389 -0.3091  0.5329
19274TIP3    H179237   0.747   5.338   5.224  1.8505 -0.9441 -1.8803
19274TIP3    H279238   0.865   5.244   5.239 -0.5160 -3.7103  0.5509
19275TIP3   OH279239   4.188   1.189   3.373 -0.0700  0.5039  0.2387
19275TIP3    H179240   4.181   1.272   3.421 -0.6416  1.0373 -0.7355
19275TIP3    H279241   4.244   1.209   3.298  0.9288 -0.3576  0.7217
19276TIP3   OH279242   5.576   3.225   4.079 -0.7979 -0.0128 -0.1994
19276TIP3    H179243   5.637   3.154   4.059 -0.2685 -0.6732  3.1236
19276TIP3    H279244   5.505   3.215   4.015 -0.2420 -2.9069 -0.4966
19277TIP3   OH279245   3.841   4.732  15.682 -0.0551 -0.5838  0.3341
19277TIP3    H179246   3.925   4.776  15.693 -0.1889 -0.2120 -0.0962
19277TIP3    H279247   3.810   4.714  15.771  0.0369  0.1097  0.5057
19278TIP3   OH279248   1.755   4.822   4.017  0.5400  1.2040  0.3228
19278TIP3    H179249   1.781   4.734   3.990  0.4068  0.2298  3.1262
19278TIP3    H279250   1.832   4.876   4.000  1.7848 -0.1204  1.5018
19279TIP3   OH279251   3.277   1.623  12.741 -0.5520  0.0418  0.3439
19279TIP3    H179252   3.273   1.606  12.835 -0.6999  1.7272  0.6877
19279TIP3    H279253   3.188   1.652  12.718  0.0471  1.9324  0.2241
19280TIP3   OH279254   1.998   2.776  14.154 -0.3492  0.1031 -0.3744
19280TIP3    H179255   2.003   2.681  14.164  0.4597  0.1660 -0.1024
19280TIP3    H279256   2.037   2.811  14.234  1.6180  0.6466 -1.5142
19281TIP3   OH279257   4.941   0.777   1.549  0.3160  0.2605  0.6580
19281TIP3    H179258   4.987   0.761   1.631  1.3265 -0.3603 -0.0007
19281TIP3    H279259   4.887   0.699   1.537 -0.2531  0.5970  0.9960
19282TIP3   OH279260   1.644   5.204  11.706 -0.1214  0.2184 -0.2753
19282TIP3    H179261   1.640   5.108  11.703  0.2440  0.1089  1.5792
19282TIP3    H279262   1.701   5.223  11.780 -1.6936  1.8782  0.5648
19283TIP3   OH279263   2.470   3.929   1.970 -0.0395 -0.1262 -0.0435
19283TIP3    H179264   2.523   3.863   2.016 -1.3611 -0.6928  0.7342
19283TIP3    H279265   2.435   3.984   2.040 -0.1377  0.4887 -0.5745
19284TIP3   OH279266   1.391   3.585   3.260 -0.0803  0.7147 -0.3678
19284TIP3    H179267   1.442   3.518   3.304 -1.5720  0.2278  0.6985
19284TIP3    H279268   1.379   3.552   3.171  2.0610  1.2129 -0.8846
19285TIP3   OH279269   5.069   6.389   0.617  0.2783 -0.8336  0.3938
19285TIP3    H179270   5.155   6.349   0.603  0.9374  0.5962  0.2479
19285TIP3    H279271   5.082   6.482   0.598 -0.8728 -0.2779  2.0997
19286TIP3   OH279272   0.786   2.717   3.806 -1.1376  0.1810 -0.5049
19286TIP3    H179273   0.713   2.731   3.866  0.2890 -3.1530  2.3870
19286TIP3    H279274   0.817   2.805   3.784 -3.9286  1.6132  0.7154
19287TIP3   OH279275   5.011   5.424  11.436 -0.0645 -0.1464 -0.1393
19287TIP3    H179276   5.089   5.398  11.485 -0.1114  1.9375  1.1703
19287TIP3    H279277   5.033   5.510  11.400 -0.7495 -0.7791 -2.2404
19288TIP3   OH279278   2.167   6.467  14.382 -0.3823  0.1553  0.4696
19288TIP3    H179279   2.161   6.404  14.454  1.7968  0.2393  0.8057
19288TIP3    H279280   2.109   6.432  14.315 -1.0753 -0.9008  1.5659
19289TIP3   OH279281   2.095   3.484  15.137 -0.1982  0.8623 -0.1669
19289TIP3    H179282   2.134   3.571  15.122  0.4164  0.6053 -0.0700
19289TIP3    H279283   2.125   3.432  15.062 -0.1183  0.5803  0.0632
19290TIP3   OH279284   5.326   5.720  14.567  1.0309  0.0617 -0.2450
19290TIP3    H179285   5.247   5.672  14.592  1.3974  0.6487  2.2756
19290TIP3    H279286   5.398   5.664  14.597  1.5549  0.2629 -1.1004
19291TIP3   OH279287   4.614   1.507  11.254  0.4212  0.4327 -0.3426
19291TIP3    H179288   4.670   1.574  11.293 -0.4419  2.2174 -1.9521
19291TIP3    H279289   4.671   1.459  11.195  0.8322  0.4301  0.0504
19292TIP3   OH279290   2.352   4.192  14.390  0.7433  0.1263  0.5594
19292TIP3    H179291   2.428   4.247  14.410 -0.2337  1.3947  0.9250
19292TIP3    H279292   2.305   4.184  14.473 -0.4192  0.8054 -0.0045
19293TIP3   OH279293   2.240   4.626   5.186 -0.1674  0.5512 -0.1096
19293TIP3    H179294   2.330   4.620   5.155  0.0750  1.3135  0.4265
19293TIP3    H279295   2.195   4.554   5.141  0.8333 -0.2282  0.0794
19294TIP3   OH279296   4.711   1.436  13.811  0.3424 -0.3676 -0.4419
19294TIP3    H179297   4.669   1.520  13.788 -0.0917 -0.6223 -0.5899
19294TIP3    H279298   4.677   1.374  13.747  0.6596 -0.6623 -0.3267
19295TIP3   OH279299   1.262   5.690  13.152  0.2825  0.2727 -0.3636
19295TIP3    H179300   1.266   5.595  13.145 -0.9340  0.1407  0.4673
19295TIP3    H279301   1.323   5.721  13.085  2.6771 -1.1073  1.0409
19296TIP3   OH279302   1.770   3.664  14.822 -0.1017 -0.8780  0.4882
19296TIP3    H179303   1.775   3.588  14.880 -2.3738 -1.8519 -0.4953
19296TIP3    H279304   1.783   3.629  14.734 -2.3235 -0.3888 -0.0984
19297TIP3   OH279305   0.464   2.099   0.684  0.0633 -0.1944 -0.1623
19297TIP3    H179306   0.469   2.110   0.779  0.5880  1.2169 -0.3386
19297TIP3    H279307   0.501   2.012   0.668 -1.5153 -1.1595  1.0431
19298TIP3   OH279308   0.492   0.520  10.873  0.5061 -0.0948 -0.4258
19298TIP3    H179309   0.504   0.466  10.951 -2.1703 -2.4959 -1.5258
19298TIP3    H279310   0.566   0.498  10.816  0.7884 -0.6995  0.1687
19299TIP3   OH279311   2.160   0.348   6.478  0.1323  0.2490  0.0974
19299TIP3    H179312   2.114   0.361   6.561  0.5335  1.0730  0.2041
19299TIP3    H279313   2.172   0.253   6.472  1.7864  0.2672  1.9227
19300TIP3   OH279314   1.501   2.150  15.169 -0.5230 -0.0431 -0.2072
19300TIP3    H179315   1.421   2.183  15.128 -0.8298 -0.6425 -0.0982
19300TIP3    H279316   1.479   2.062  15.198  0.7089 -0.9137 -1.7406
19301TIP3   OH279317   0.676   3.844   2.204 -0.4769 -0.0918  0.5769
19301TIP3    H179318   0.637   3.911   2.261  1.4225  0.8220  0.8547
19301TIP3    H279319   0.716   3.782   2.265  0.8564  0.4590  0.3032
19302TIP3   OH279320   5.202   6.676  13.694  0.2516 -0.9722  0.4498
19302TIP3    H179321   5.106   6.684  13.692  0.1263 -2.0638  0.8928
19302TIP3    H279322   5.234   6.752  13.647 -0.8918 -1.7792 -1.7549
19303TIP3   OH279323   4.471   5.767   4.175  0.0016  0.4130 -0.3455
19303TIP3    H179324   4.431   5.684   4.202 -1.3412  0.9940 -0.4792
19303TIP3    H279325   4.485   5.814   4.257  0.6157  0.1338 -0.2830
19304TIP3   OH279326   3.779   2.882  11.458 -0.2074  0.0641 -0.3106
19304TIP3    H179327   3.780   2.795  11.498  0.8698  0.6145  0.9116
19304TIP3    H279328   3.802   2.866  11.366  0.0577 -0.9359 -0.0812
19305TIP3   OH279329   6.571   3.266  12.318  0.5225  1.2436  0.5453
19305TIP3    H179330   6.488   3.222  12.302 -0.3710  2.2729  2.0915
19305TIP3    H279331   6.577   3.332  12.249 -0.1477  1.4384  0.6712
19306TIP3   OH279332   1.229   4.766   0.730  0.2990 -0.3604  0.1710
19306TIP3    H179333   1.236   4.768   0.635 -1.0102  1.0759  0.0561
19306TIP3    H279334   1.134   4.764   0.747  0.4319 -4.1202  1.4724
19307TIP3   OH279335   4.763   0.614   6.296  0.5300  0.1876 -0.1528
19307TIP3    H179336   4.769   0.537   6.353  0.1840  0.1529 -0.1625
19307TIP3    H279337   4.669   0.632   6.289  0.6075  0.6015 -0.1643
19308TIP3   OH279338   4.163   0.864  16.624  0.0174 -0.2164 -0.3476
19308TIP3    H179339   4.240   0.919  16.640 -0.2316  0.8538 -2.3857
19308TIP3    H279340   4.133   0.838  16.711  2.4688 -0.4002  0.5312
19309TIP3   OH279341   0.509   6.576  16.088 -0.3046  0.4310  0.0605
19309TIP3    H179342   0.450   6.632  16.139  1.6457  0.4443  2.5089
19309TIP3    H279343   0.566   6.637  16.042 -1.2200  0.4033 -1.1723
19310TIP3   OH279344   4.536   5.430   2.249  0.5169 -0.2236 -0.1515
19310TIP3    H179345   4.484   5.350   2.258 -0.7394  0.6206  0.3276
19310TIP3    H279346   4.553   5.457   2.339 -0.6101  0.9967 -0.2725
19311TIP3   OH279347   4.590   3.571  12.433 -0.0284 -0.2468 -0.0155
19311TIP3    H179348   4.630   3.570  12.345  0.4737 -1.7430  0.1957
19311TIP3    H279349   4.515   3.629  12.424  0.8369  0.7684 -1.0561
19312TIP3   OH279350   0.672   6.192  14.721  0.1809  0.4361 -0.0635
19312TIP3    H179351   0.636   6.251  14.786 -1.4222  0.5430 -1.0174
19312TIP3    H279352   0.733   6.245  14.671 -0.8726  1.1690 -0.5920
19313TIP3   OH279353   6.233   3.395   1.651 -0.5659  0.3901  0.6433
19313TIP3    H179354   6.232   3.455   1.576  2.1375  1.0348  1.0156
19313TIP3    H279355   6.141   3.381   1.672 -1.3853  1.1037 -2.0609
19314TIP3   OH279356   4.592   1.481  14.929  0.1169  0.1335  0.0380
19314TIP3    H179357   4.588   1.526  14.845  1.9728 -1.5668 -1.0567
19314TIP3    H279358   4.585   1.388  14.907  1.3312 -0.3892  1.6590
19315TIP3   OH279359   0.106   4.784  15.877  0.1482  0.1074  0.2430
19315TIP3    H179360   0.059   4.820  15.802  0.4762  0.5911  0.2653
19315TIP3    H279361   0.117   4.858  15.936  1.1575  0.0651  0.1247
19316TIP3   OH279362   2.092   5.939  14.932  0.4761  0.1354 -0.4253
19316TIP3    H179363   2.096   5.861  14.877  1.2924  0.5025 -0.8962
19316TIP3    H279364   2.036   5.999  14.884  0.1238 -0.0309 -0.2245
19317TIP3   OH279365   3.620   0.598   3.501  0.5695  0.4716  0.5156
19317TIP3    H179366   3.657   0.510   3.508  0.7718  0.5114 -0.0196
19317TIP3    H279367   3.692   0.652   3.468  0.2895  0.7269  0.3153
19318TIP3   OH279368   5.973   0.000   2.014 -0.1620  0.3664 -0.9137
19318TIP3    H179369   6.047   0.059   1.998 -0.4589  0.9328 -0.2501
19318TIP3    H279370   5.920   0.006   1.934 -1.1064  2.3880 -0.2288
19319TIP3   OH279371   4.370   4.643   5.489 -0.3855 -1.0951 -0.4680
19319TIP3    H179372   4.408   4.566   5.448  1.9307 -0.5446  0.4715
19319TIP3    H279373   4.339   4.612   5.575  1.1748 -0.8915  0.1968
19320TIP3   OH279374   4.455   3.053  14.875 -0.1610 -0.0189  0.2479
19320TIP3    H179375   4.421   3.066  14.964  1.8381 -0.4088  1.1253
19320TIP3    H279376   4.472   3.142  14.843 -0.1580  0.0969  0.5630
19321TIP3   OH279377   3.020   3.315  13.856  0.3417 -0.1250 -0.0826
19321TIP3    H179378   3.028   3.352  13.944  0.3517  1.6187 -0.7850
19321TIP3    H279379   2.927   3.325  13.835  0.3335 -0.5770 -0.2623
19322TIP3   OH279380   1.409   2.345   4.484 -0.5875  0.2442 -0.3506
19322TIP3    H179381   1.429   2.428   4.527 -1.0206  0.0037  0.3318
19322TIP3    H279382   1.382   2.369   4.396 -0.6118  0.8210 -0.1877
19323TIP3   OH279383   3.704   6.621   1.890 -0.2232 -0.9961 -0.2318
19323TIP3    H179384   3.672   6.678   1.820 -0.5837 -1.6568 -0.6122
19323TIP3    H279385   3.627   6.572   1.918 -0.3900  0.1326  1.5081
19324TIP3   OH279386   0.016   0.184  13.979 -0.0638 -0.1233 -0.5219
19324TIP3    H179387  -0.001   0.235  14.058  0.0001 -1.3719  0.3382
19324TIP3    H279388  -0.072   0.159  13.949 -0.0646 -0.1548 -0.4936
19325TIP3   OH279389   2.697   1.343   4.707  0.1234 -0.5375 -0.0367
19325TIP3    H179390   2.773   1.343   4.649  2.1764 -0.5143  2.4921
19325TIP3    H279391   2.732   1.366   4.793 -3.2196  2.4272  0.7458
19326TIP3   OH279392   4.725   2.491  15.630  0.1018  0.2593 -0.1934
19326TIP3    H179393   4.635   2.524  15.624 -0.1362 -0.6336 -2.4113
19326TIP3    H279394   4.762   2.535  15.707 -2.6156 -0.3561  1.5961
19327TIP3   OH279395   6.042   4.944   5.151  0.5495 -0.0791  0.0618
19327TIP3    H179396   6.094   4.971   5.226  0.7568  0.8404 -0.3915
19327TIP3    H279397   5.952   4.938   5.184  0.2060  2.7486 -0.1186
19328TIP3   OH279398   6.522   0.293   5.359  0.4426 -0.3820 -1.0057
19328TIP3    H179399   6.574   0.262   5.285 -0.3255 -0.1378 -1.6623
19328TIP3    H279400   6.522   0.220   5.421  0.0239 -1.0815 -1.8163
19329TIP3   OH279401   4.868   2.872   5.545  0.2241  0.0323 -0.0727
19329TIP3    H179402   4.852   2.936   5.614  0.8491 -0.7798  0.8465
19329TIP3    H279403   4.785   2.867   5.497  0.1928  1.5677 -0.2066
19330TIP3   OH279404   3.588   3.852  15.256 -0.2411  0.1306 -0.5644
19330TIP3    H179405   3.502   3.888  15.281 -0.0949  0.2848 -0.2773
19330TIP3    H279406   3.622   3.915  15.192  0.3638  0.9562  0.5332
19331TIP3   OH279407   3.271   0.569   5.476 -0.1319  0.2921 -0.1348
19331TIP3    H179408   3.304   0.589   5.564 -0.0977  0.2838 -0.1458
19331TIP3    H279409   3.276   0.652   5.429 -1.6836  0.6970  0.3527
19332TIP3   OH279410   5.311   3.955   0.793  0.1458  0.1016  0.4065
19332TIP3    H179411   5.228   3.957   0.744  0.1454 -3.7950 -0.0723
19332TIP3    H279412   5.284   3.949   0.885  0.0642  2.5708  0.6040
19333TIP3   OH279413   2.962   5.825   6.553 -0.0770 -0.3333 -0.4304
19333TIP3    H179414   2.931   5.756   6.611  0.8450  1.5781  2.5260
19333TIP3    H279415   2.918   5.904   6.584  0.8583  0.8760 -2.0232
19334TIP3   OH279416   1.645   4.305  14.877 -0.9353  0.3850 -0.4284
19334TIP3    H179417   1.650   4.215  14.910  1.0398  0.1968 -1.0733
19334TIP3    H279418   1.659   4.296  14.783  0.2985  1.4135 -0.3706
19335TIP3   OH279419   5.076   2.690   4.464 -0.4297 -0.4628  0.0813
19335TIP3    H179420   5.097   2.629   4.534  0.9665  0.1448  0.2248
19335TIP3    H279421   4.983   2.709   4.476 -0.5017 -1.3253  0.9949
19336TIP3   OH279422   5.324   2.925  13.018  0.2736  0.3721  0.8591
19336TIP3    H179423   5.318   2.942  12.924  1.2770  1.2127  0.9318
19336TIP3    H279424   5.346   2.833  13.025  1.7387  0.6444  0.2027
19337TIP3   OH279425   6.558   3.849  13.823 -0.1494 -0.0278 -0.0709
19337TIP3    H179426   6.637   3.878  13.868 -0.8551 -1.6469  2.4374
19337TIP3    H279427   6.487   3.887  13.875 -1.0662  0.7923 -1.8421
19338TIP3   OH279428   2.253   1.031  16.772 -0.1014  0.8573  0.3530
19338TIP3    H179429   2.174   0.983  16.747  0.4248 -0.3914  0.9611
19338TIP3    H279430   2.246   1.115  16.727 -2.8023  1.6752  2.0677
19339TIP3   OH279431   4.618   3.268   4.777 -0.2262 -0.4597 -0.6084
19339TIP3    H179432   4.678   3.203   4.815 -2.5570 -1.4365  1.7633
19339TIP3    H279433   4.573   3.220   4.708 -1.1742 -1.1061  0.4190
19340TIP3   OH279434   2.448   5.498  13.553  0.8225 -0.3411 -0.4531
19340TIP3    H179435   2.425   5.432  13.488 -1.6791 -1.0114  1.0179
19340TIP3    H279436   2.438   5.581  13.507 -0.2812 -0.8273 -1.1082
19341TIP3   OH279437   5.717   0.112   1.469  0.7126  0.0056  0.3817
19341TIP3    H179438   5.730   0.158   1.386 -0.2682 -1.6443 -0.7544
19341TIP3    H279439   5.805   0.086   1.496  1.0050  0.1685 -0.3858
19342TIP3   OH279440   1.528   3.909  12.960  0.1821  0.4572 -0.2041
19342TIP3    H179441   1.491   3.997  12.962 -0.3393  0.3672 -2.7245
19342TIP3    H279442   1.466   3.858  12.907  1.5170 -0.8939 -0.5228
19343TIP3   OH279443   1.873   2.898  11.632 -0.1364  0.4976 -0.2009
19343TIP3    H179444   1.951   2.954  11.633 -0.7850  1.4560  1.9824
19343TIP3    H279445   1.861   2.871  11.723 -1.0067 -1.6214 -0.8842
19344TIP3   OH279446   3.897   5.539  14.687 -0.1767 -0.0505  0.2813
19344TIP3    H179447   3.806   5.510  14.692 -0.7560  1.3399 -1.3237
19344TIP3    H279448   3.895   5.630  14.714  0.8255 -0.1008  0.5912
19345TIP3   OH279449   0.359   4.362   6.071 -0.0978 -0.1206  0.8253
19345TIP3    H179450   0.438   4.414   6.087 -0.3582  0.6377 -0.2565
19345TIP3    H279451   0.294   4.426   6.042 -1.0682 -0.7613  1.5219
19346TIP3   OH279452   3.576   5.070   2.632 -0.0742  0.5735 -0.6585
19346TIP3    H179453   3.666   5.089   2.659  0.6219 -1.0723 -1.6439
19346TIP3    H279454   3.523   5.137   2.676  1.6283  1.6638 -0.1613
19347TIP3   OH279455   6.623   6.559  11.886  0.3437 -0.4006 -1.1153
19347TIP3    H179456   6.705   6.572  11.935  0.9212 -2.3384 -1.4850
19347TIP3    H279457   6.625   6.627  11.819 -0.5259  2.4315  1.4834
19348TIP3   OH279458   6.635   6.106  15.110  0.4244 -0.0601 -0.3975
19348TIP3    H179459   6.707   6.168  15.102 -0.5683  1.0165 -1.4080
19348TIP3    H279460   6.629   6.065  15.024  1.2690 -1.8287  0.3493
19349TIP3   OH279461   0.100   1.277  14.414 -0.1783  0.4808 -0.0662
19349TIP3    H179462   0.132   1.361  14.382 -2.0797  2.0468  1.8737
19349TIP3    H279463   0.040   1.299  14.485  2.0361 -2.6100  3.1172
19350TIP3   OH279464   0.697   3.586   0.945 -0.1559  0.0403 -0.6392
19350TIP3    H179465   0.742   3.502   0.950 -1.0641 -0.5098 -1.4257
19350TIP3    H279466   0.766   3.651   0.955  0.5186 -0.7930  0.3007
19351TIP3   OH279467   2.449   4.768  12.857 -0.0786 -0.2126 -0.2745
19351TIP3    H179468   2.461   4.863  12.863 -0.4846 -0.1060 -1.0639
19351TIP3    H279469   2.438   4.740  12.948 -0.3199  0.5421 -0.0607
19352TIP3   OH279470   1.287   1.443  16.656  0.0235  0.5352  0.2624
19352TIP3    H179471   1.264   1.376  16.592  0.8737 -1.1125  1.5866
19352TIP3    H279472   1.364   1.487  16.619 -1.4937  2.0158 -1.3854
19353TIP3   OH279473   6.396   0.495  17.001 -0.2011  0.1081  0.0709
19353TIP3    H179474   6.438   0.580  16.997 -1.7322  0.8767 -0.7043
19353TIP3    H279475   6.326   0.505  17.066  0.3576 -0.9433  0.8780
19354TIP3   OH279476   2.173   2.640  12.673  0.2253  0.2095 -0.6617
19354TIP3    H179477   2.254   2.596  12.700 -0.3522  0.0981  1.0284
19354TIP3    H279478   2.132   2.579  12.611 -0.0010 -1.1828  0.7747
19355TIP3   OH279479   2.875   1.064  16.484  0.1058  0.0562  0.0934
19355TIP3    H179480   2.894   1.074  16.391  0.5537  3.4721  0.4362
19355TIP3    H279481   2.950   1.015  16.518  2.5582  2.9745 -0.6350
19356TIP3   OH279482   3.964   5.998   3.268 -0.0269  0.3147 -0.5967
19356TIP3    H179483   4.050   5.977   3.231  0.0233 -0.2734 -0.1524
19356TIP3    H279484   3.984   6.054   3.344 -0.1094  1.2008 -1.2172
19357TIP3   OH279485   0.325   5.796   3.061  0.1862 -0.1339  1.0128
19357TIP3    H179486   0.307   5.889   3.074 -3.6058 -0.4021 -0.9242
19357TIP3    H279487   0.257   5.751   3.112 -0.4547 -1.6549 -1.0412
19358TIP3   OH279488   1.204   0.291  16.753  0.3065  0.1541 -0.5820
19358TIP3    H179489   1.278   0.289  16.693  0.8231 -1.7516  0.0472
19358TIP3    H279490   1.128   0.275  16.698  0.3786  1.7350 -1.1773
19359TIP3   OH279491   3.280   3.776   4.318  0.2226 -0.1977 -0.0092
19359TIP3    H179492   3.295   3.683   4.303 -0.6768 -0.4129  0.3748
19359TIP3    H279493   3.214   3.779   4.388 -0.3710  0.7144 -0.5859
19360TIP3   OH279494   1.946   6.266   2.981  0.0243  0.3553  0.0848
19360TIP3    H179495   1.987   6.188   2.944  0.2252 -0.2364  1.4991
19360TIP3    H279496   2.020   6.320   3.011 -0.1282  0.8937 -0.4956
19361TIP3   OH279497   3.987   4.076  11.921 -0.0332 -0.0028 -0.4034
19361TIP3    H179498   3.966   4.146  11.859 -1.3510 -0.8420 -0.9328
19361TIP3    H279499   3.913   4.016  11.916  0.6419 -0.9757  0.7301
19362TIP3   OH279500   2.831   3.719   3.164  0.1572 -0.3402 -0.1833
19362TIP3    H179501   2.787   3.634   3.162  1.0355 -0.8206  0.0311
19362TIP3    H279502   2.881   3.721   3.081  1.7227 -0.9390  0.6919
19363TIP3   OH279503   1.568   3.511  15.683 -0.5131  0.8201  0.7303
19363TIP3    H179504   1.640   3.574  15.680  0.4231 -0.2529 -0.6161
19363TIP3    H279505   1.495   3.556  15.641 -0.2423  1.4519  0.9221
19364TIP3   OH279506   4.477   3.557   3.393  0.1409  0.0814 -0.6738
19364TIP3    H179507   4.482   3.652   3.384  0.5791  0.0978 -0.3059
19364TIP3    H279508   4.385   3.539   3.408  0.4264  0.8510  3.1820
19365TIP3   OH279509   6.350   3.211  12.704 -0.1760  0.1894  0.4377
19365TIP3    H179510   6.309   3.183  12.622 -0.3137  0.5877  0.3712
19365TIP3    H279511   6.284   3.265  12.747 -0.0793  0.0376  0.7814
19366TIP3   OH279512   5.761   2.958   4.775 -0.0558  0.6984 -0.5005
19366TIP3    H179513   5.730   2.900   4.705  1.2377  1.2579 -1.5757
19366TIP3    H279514   5.695   2.949   4.844 -2.4758  1.5711 -2.5109
19367TIP3   OH279515   3.835   4.659  11.273 -0.0027  0.3129 -0.1893
19367TIP3    H179516   3.780   4.716  11.220 -0.6722  0.3764  0.5499
19367TIP3    H279517   3.775   4.593  11.307  0.2339  0.7443  1.1369
19368TIP3   OH279518   3.661   5.884  11.991 -0.2333 -0.0925 -0.0496
19368TIP3    H179519   3.616   5.823  11.933  2.1799 -2.2355  0.1352
19368TIP3    H279520   3.754   5.877  11.966  0.3268  2.4151  1.0043
19369TIP3   OH279521   2.444   4.644   1.955  0.1067 -0.2019 -0.7073
19369TIP3    H179522   2.373   4.674   2.013  0.4885  0.2411 -0.4552
19369TIP3    H279523   2.426   4.552   1.940  1.3201 -1.0150  2.1317
19370TIP3   OH279524   3.446   6.279  11.422 -0.3577  0.2273  0.3665
19370TIP3    H179525   3.445   6.311  11.332  0.5897 -0.0904  0.2265
19370TIP3    H279526   3.517   6.215  11.423  0.8454  1.5075  1.7773
19371TIP3   OH279527   1.372   1.196  11.313  0.3791  0.4787  0.0901
19371TIP3    H179528   1.334   1.182  11.227 -0.1981  2.3558 -0.0220
19371TIP3    H279529   1.342   1.122  11.366 -0.0188 -0.2072 -1.0751
19372TIP3   OH279530   5.504   2.013   2.130 -0.4180  0.6063  0.2955
19372TIP3    H179531   5.562   1.998   2.055 -1.5585  1.5218 -0.8216
19372TIP3    H279532   5.563   2.016   2.206  0.5289 -2.8448 -0.1575
19373TIP3   OH279533   5.327   4.252   2.812 -0.2401  0.1893  0.5226
19373TIP3    H179534   5.386   4.266   2.886 -0.7086 -0.9200  1.1292
19373TIP3    H279535   5.383   4.224   2.740  0.2616  1.6069  0.3300
19374TIP3   OH279536   3.806   5.640   3.828 -0.0258  0.3731 -0.0216
19374TIP3    H179537   3.759   5.701   3.884 -2.9006 -1.1445 -0.5920
19374TIP3    H279538   3.755   5.559   3.832  2.1877 -1.1977 -1.2949
19375TIP3   OH279539   5.034   5.873  14.579  0.6917  0.0040 -0.5840
19375TIP3    H179540   5.020   5.835  14.665  0.9135 -0.8004 -0.8981
19375TIP3    H279541   4.998   5.809  14.518 -0.8809  1.2507 -1.0358
19376TIP3   OH279542   0.345   2.184  15.080 -0.6651 -0.2405 -0.1936
19376TIP3    H179543   0.336   2.228  14.995 -2.0856  1.1872  0.6636
19376TIP3    H279544   0.439   2.169  15.089 -0.4805 -0.3754 -1.9787
19377TIP3   OH279545   1.146   2.417  14.443 -0.3965  1.2389  0.0527
19377TIP3    H179546   1.141   2.420  14.538  2.8294  1.3071  0.3410
19377TIP3    H279547   1.186   2.501  14.418 -1.1312  1.2010 -1.3662
19378TIP3   OH279548   3.859   3.327   0.354 -0.3196  0.0345 -0.0478
19378TIP3    H179549   3.874   3.393   0.422  0.8886  1.4119 -1.5840
19378TIP3    H279550   3.942   3.280   0.348  0.1659  1.0295 -1.6720
19379TIP3   OH279551   5.140   0.944   0.242  0.4652  0.1020 -0.2223
19379TIP3    H179552   5.189   1.021   0.215  0.0297  0.2554 -0.6039
19379TIP3    H279553   5.051   0.960   0.209  0.1277 -0.1091  0.5542
19380TIP3   OH279554   2.679   2.547   3.428 -0.3074 -0.0553 -0.6875
19380TIP3    H179555   2.612   2.588   3.483  1.5036  0.8885  0.9365
19380TIP3    H279556   2.696   2.462   3.469  1.0629  0.6605  0.3105
19381TIP3   OH279557   4.294   0.434  12.272 -0.5145 -0.7578 -0.0060
19381TIP3    H179558   4.333   0.364  12.324 -0.0791 -0.8754 -0.4787
19381TIP3    H279559   4.280   0.506  12.334 -0.3693 -1.0344  0.3518
19382TIP3   OH279560   4.031   6.373   3.590 -0.7164  0.5401  0.0958
19382TIP3    H179561   3.964   6.362   3.522 -0.2968  0.7778 -0.3575
19382TIP3    H279562   4.080   6.291   3.588 -0.8762  0.4376  0.3050
19383TIP3   OH279563   0.862   4.204  16.434  0.1904  0.2084  0.5095
19383TIP3    H179564   0.948   4.164  16.421 -0.6506 -1.8406  1.0029
19383TIP3    H279565   0.799   4.138  16.406 -1.2609  1.7517 -0.0725
19384TIP3   OH279566   2.479   1.538  12.651  0.3570  0.6058 -0.3556
19384TIP3    H179567   2.478   1.596  12.575  1.8698 -0.0191 -0.8853
19384TIP3    H279568   2.437   1.588  12.721  0.5365  1.8550 -1.1301
19385TIP3   OH279569   6.744   2.954  14.485  0.3184 -0.3955 -0.4637
19385TIP3    H179570   6.671   2.928  14.429 -0.2410 -0.8870  0.4700
19385TIP3    H279571   6.711   2.944  14.574  1.3949 -0.2308 -0.0292
19386TIP3   OH279572   3.227   2.437  12.741 -0.6037  0.0958 -0.1592
19386TIP3    H179573   3.268   2.503  12.797 -1.6590  0.3022  0.3857
19386TIP3    H279574   3.167   2.390  12.799 -0.5313 -0.7532 -0.7531
19387TIP3   OH279575   5.171   5.256  16.129 -0.1887  0.3269  0.2974
19387TIP3    H179576   5.082   5.237  16.156 -0.1559 -0.2012  0.0314
19387TIP3    H279577   5.182   5.350  16.146 -0.9248  0.4802 -0.0567
19388TIP3   OH279578   5.140   2.977   5.756  0.4046 -0.6820  0.3691
19388TIP3    H179579   5.062   2.994   5.809 -0.0637 -0.0916 -0.4964
19388TIP3    H279580   5.135   2.884   5.734 -0.5471 -0.4555 -0.4324
19389TIP3   OH279581   4.019   4.111  17.096  0.1064 -0.0341 -0.2118
19389TIP3    H179582   3.968   4.166  17.036 -2.3703 -0.6142  1.2345
19389TIP3    H279583   4.046   4.036  17.043 -2.2972 -0.6993 -0.5968
19390TIP3   OH279584   3.025   3.074   1.453  0.0916  0.2152 -0.3978
19390TIP3    H179585   2.955   3.024   1.411 -0.6900  0.0574  1.0359
19390TIP3    H279586   3.056   3.017   1.524  0.4453  1.0106  0.0976
19391TIP3   OH279587   2.888   0.561   2.411 -0.0668  0.1200 -0.0067
19391TIP3    H179588   2.949   0.551   2.485  0.4431  1.8060 -0.1486
19391TIP3    H279589   2.832   0.634   2.437 -0.3684  0.2379 -0.9569
19392TIP3   OH279590   6.193   1.989  15.542  0.5078  0.3879  0.4379
19392TIP3    H179591   6.198   1.920  15.608  2.1640  0.4713  0.4449
19392TIP3    H279592   6.124   1.960  15.482  0.5498 -0.8127  0.9461
19393TIP3   OH279593   0.425   0.542  12.401 -0.0032 -0.4612 -0.0418
19393TIP3    H179594   0.430   0.624  12.450  1.1071 -0.8378  0.5190
19393TIP3    H279595   0.511   0.534  12.361 -0.0626 -1.4022  0.0053
19394TIP3   OH279596   6.064   2.254  11.229  0.2974  0.1387 -0.4656
19394TIP3    H179597   6.057   2.288  11.318 -0.8887 -1.1047 -0.0412
19394TIP3    H279598   6.050   2.330  11.172 -0.2089  0.7195  0.4218
19395TIP3   OH279599   0.789   3.498  15.264 -0.3163 -0.3481 -0.6431
19395TIP3    H179600   0.771   3.405  15.280 -1.9523 -0.2076 -1.3962
19395TIP3    H279601   0.737   3.518  15.186  2.6482  0.4037 -2.5511
19396TIP3   OH279602   3.436   2.027  17.322  0.0669  0.5270 -0.1398
19396TIP3    H179603   3.470   2.108  17.362 -1.2456  1.3162 -0.5506
19396TIP3    H279604   3.395   2.057  17.241  1.3518 -0.8511 -1.3464
19397TIP3   OH279605   1.003   1.661   4.939  0.7522 -0.1204 -0.0700
19397TIP3    H179606   1.047   1.738   4.975 -1.6608  0.4592  1.9021
19397TIP3    H279607   1.023   1.591   5.001 -0.2478 -0.0807  0.3153
19398TIP3   OH279608   2.170   1.967  13.986 -1.3454 -0.0742 -0.3729
19398TIP3    H179609   2.175   1.872  13.984  0.2141 -0.0288 -1.8263
19398TIP3    H279610   2.121   1.990  13.907  0.2981  0.3475 -1.3160
19399TIP3   OH279611   5.686   6.215   3.855 -0.2208 -0.1406  0.7307
19399TIP3    H179612   5.664   6.268   3.779 -0.1323 -0.4932  0.4560
19399TIP3    H279613   5.782   6.216   3.858 -0.2432  0.8518  1.5408
19400TIP3   OH279614   0.065   0.601  14.934 -0.4112 -0.2065 -0.2400
19400TIP3    H179615   0.118   0.662  14.986  0.9492 -0.7353 -0.9739
19400TIP3    H279616   0.053   0.645  14.850  0.7655 -1.0144 -0.8515
19401TIP3   OH279617   2.564   0.394   4.588 -0.2515 -0.1904  0.3841
19401TIP3    H179618   2.638   0.423   4.534  0.4076  1.9941  2.3093
19401TIP3    H279619   2.603   0.335   4.653 -0.8155 -1.6798 -0.5626
19402TIP3   OH279620   6.431   3.236   3.878  0.2401  0.5327  0.0078
19402TIP3    H179621   6.460   3.326   3.865 -0.0032  0.6031 -0.0478
19402TIP3    H279622   6.339   3.243   3.902 -0.2703  0.2232 -1.6715
19403TIP3   OH279623   1.373   1.763  13.962 -0.7410 -0.1504  0.2011
19403TIP3    H179624   1.385   1.799  13.874 -0.1911 -0.4870  0.1290
19403TIP3    H279625   1.307   1.695  13.951 -3.3063  2.1321  0.7105
19404TIP3   OH279626   2.100   0.147   0.177  0.2386 -0.3608  0.5453
19404TIP3    H179627   2.109   0.099   0.095  0.5726  1.0699 -0.2782
19404TIP3    H279628   2.013   0.185   0.174 -0.1312 -1.1277  1.3201
19405TIP3   OH279629   0.950   1.650  17.351 -0.4986 -0.1186  0.0168
19405TIP3    H179630   1.028   1.699  17.324 -0.3114 -0.2488  0.3108
19405TIP3    H279631   0.919   1.695  17.430  1.3553 -2.1223  2.0418
19406TIP3   OH279632   0.569   0.444  12.033  0.1376  0.2837 -0.4277
19406TIP3    H179633   0.477   0.425  12.051  0.1714  0.2298 -0.3074
19406TIP3    H279634   0.616   0.398  12.102  0.2337  0.6649 -0.2386
19407TIP3   OH279635   5.440   0.211  14.515  0.2779 -0.6637 -0.0297
19407TIP3    H179636   5.470   0.163  14.439  3.1394 -0.7920  1.0580
19407TIP3    H279637   5.518   0.257  14.547 -1.2619  0.9424  1.6926
19408TIP3   OH279638   6.614   0.184  14.949  0.0361 -0.6797  0.4279
19408TIP3    H179639   6.649   0.205  14.862 -0.1612 -0.1495  0.4728
19408TIP3    H279640   6.665   0.239  15.009  0.5758 -1.4651  0.7200
19409TIP3   OH279641   5.807   6.077   2.544 -0.2634  0.3102 -0.5821
19409TIP3    H179642   5.745   6.006   2.560  2.1069 -1.8508 -0.4552
19409TIP3    H279643   5.831   6.069   2.452 -0.1921  1.1622 -0.6508
19410TIP3   OH279644   2.951   5.473  13.879  0.3877 -0.1652  0.2160
19410TIP3    H179645   2.955   5.453  13.785  2.4712  0.7662  0.0414
19410TIP3    H279646   3.013   5.411  13.919  1.8114  1.3910  0.5274
19411TIP3   OH279647   4.131   5.133  12.263  0.6406  0.2840  0.3452
19411TIP3    H179648   4.191   5.205  12.283 -1.1046  1.8745  0.0974
19411TIP3    H279649   4.120   5.087  12.346  0.6113  1.2368  0.8818
19412TIP3   OH279650   0.098   5.211   4.276 -0.4191  0.0968  0.1821
19412TIP3    H179651   0.040   5.282   4.303 -1.6398 -0.5888 -0.5259
19412TIP3    H279652   0.170   5.213   4.339 -0.1353  2.2920 -0.1407
19413TIP3   OH279653   6.378   2.308  13.814  0.1244 -0.5709 -0.0355
19413TIP3    H179654   6.401   2.220  13.787 -0.4151 -0.9424  0.6795
19413TIP3    H279655   6.349   2.352  13.734 -2.1997 -1.8767  0.0054
19414TIP3   OH279656   3.258   5.211   5.450 -0.8375  0.3232 -0.1143
19414TIP3    H179657   3.234   5.206   5.542  0.8936 -0.1645  0.3441
19414TIP3    H279658   3.292   5.300   5.438 -1.2840  0.4674 -0.3596
19415TIP3   OH279659   0.786   6.078  13.376 -0.5011 -0.1971  0.3283
19415TIP3    H179660   0.867   6.117  13.343 -0.2279  0.0299  1.2489
19415TIP3    H279661   0.757   6.021  13.305  0.0088  0.3742 -0.3488
19416TIP3   OH279662   2.028   1.619   0.449  0.0840 -0.3414 -0.6226
19416TIP3    H179663   1.997   1.642   0.537 -0.3410  0.1585 -0.8973
19416TIP3    H279664   2.122   1.638   0.452  0.0880 -0.4064 -0.2489
19417TIP3   OH279665   1.873   2.137   3.257 -0.0133  0.4001 -0.7445
19417TIP3    H179666   1.821   2.205   3.216  1.1442  1.7474 -0.0668
19417TIP3    H279667   1.963   2.169   3.253  0.5590 -1.0597 -0.3412
19418TIP3   OH279668   5.944   6.147   3.627 -0.7628 -0.0045  0.2330
19418TIP3    H179669   5.920   6.221   3.572  1.6710  0.0412 -0.8805
19418TIP3    H279670   6.017   6.178   3.680 -0.1905 -1.3534  0.2810
19419TIP3   OH279671   6.220   0.839  17.366  0.0533 -1.0904  0.1342
19419TIP3    H179672   6.209   0.829  17.271 -0.3332  0.6835 -0.0548
19419TIP3    H279673   6.315   0.843  17.379  0.1017  0.7970 -0.4940
19420TIP3   OH279674   5.286   6.514  13.904 -0.4394 -0.3105  0.2032
19420TIP3    H179675   5.272   6.584  13.968  1.8269  0.4661 -0.0519
19420TIP3    H279676   5.244   6.545  13.824 -1.5954 -0.4061  0.7555
19421TIP3   OH279677   1.303   1.638  15.347 -0.1555  0.3207  0.1147
19421TIP3    H179678   1.306   1.618  15.253 -0.8493  1.0514 -0.0837
19421TIP3    H279679   1.382   1.598  15.383  0.2201  0.1886 -0.8175
19422TIP3   OH279680   5.824   2.574   6.074  0.1930  0.5461 -0.2946
19422TIP3    H179681   5.864   2.528   6.148  3.8459 -1.6919 -3.2846
19422TIP3    H279682   5.745   2.524   6.054  0.6438 -0.5045  0.4496
19423TIP3   OH279683   3.828   5.677   0.222 -0.0135 -0.4048  0.2820
19423TIP3    H179684   3.915   5.687   0.183  0.9578 -0.1961  2.3660
19423TIP3    H279685   3.837   5.710   0.311 -1.8424 -1.7795  1.0623
19424TIP3   OH279686   4.550   6.677  13.534  0.4134  0.0075 -0.1180
19424TIP3    H179687   4.457   6.680  13.514  0.2357 -0.0686  0.6793
19424TIP3    H279688   4.580   6.768  13.524 -0.2556  0.5115  1.9391
19425TIP3   OH279689   2.162   1.188   0.327  0.0496 -0.8500  0.2299
19425TIP3    H179690   2.170   1.244   0.405 -2.2855  0.5560 -0.4214
19425TIP3    H279691   2.108   1.114   0.356  0.8083 -1.3350  0.4121
19426TIP3   OH279692   1.855   3.931   1.229 -0.8347 -0.1480  0.1582
19426TIP3    H179693   1.814   4.016   1.210 -0.5225  0.4517  1.9684
19426TIP3    H279694   1.846   3.921   1.324 -0.0091 -1.7091  0.1006
19427TIP3   OH279695   5.373   1.288  16.912 -0.4232 -0.4343  0.1550
19427TIP3    H179696   5.441   1.222  16.922  0.2861  0.2577 -0.0212
19427TIP3    H279697   5.307   1.264  16.976 -0.9368 -2.2374 -0.9572
19428TIP3   OH279698   4.344   5.305  13.841 -0.6567 -0.0910 -0.0301
19428TIP3    H179699   4.409   5.350  13.894 -1.0897  0.2579  0.2178
19428TIP3    H279700   4.342   5.354  13.758 -1.9082  1.0540  0.6392
19429TIP3   OH279701   6.665   6.467  11.607  0.2090 -0.1628  0.0553
19429TIP3    H179702   6.711   6.400  11.556 -1.8723 -1.8720  0.3225
19429TIP3    H279703   6.631   6.421  11.684 -2.3265  0.8753 -0.3384
19430TIP3   OH279704   0.824   4.248   6.209  0.3813 -0.0015 -0.0150
19430TIP3    H179705   0.895   4.216   6.265  0.5379 -0.8708 -0.6794
19430TIP3    H279706   0.750   4.192   6.228  0.0481  0.5132  0.2323
19431TIP3   OH279707   3.295   6.209   6.700 -0.0320  0.4325  0.2744
19431TIP3    H179708   3.207   6.186   6.730 -0.4417  0.3252 -0.9558
19431TIP3    H279709   3.306   6.160   6.619  1.3181  0.1567  0.6078
19432TIP3   OH279710   5.613   4.457  13.342 -0.1657 -0.3785  0.7510
19432TIP3    H179711   5.570   4.523  13.287 -0.9243 -2.0306 -0.7091
19432TIP3    H279712   5.700   4.493  13.359 -0.4750  0.8881 -0.1973
19433TIP3   OH279713   6.350   0.319  10.682  0.0159  0.1870 -0.3071
19433TIP3    H179714   6.353   0.406  10.721 -0.6185 -0.1254  0.4740
19433TIP3    H279715   6.441   0.297  10.665  0.0877  1.8845 -2.5747
19434TIP3   OH279716   6.528   2.583   2.576 -0.0390  0.1569 -0.2441
19434TIP3    H179717   6.609   2.598   2.624  0.4534  0.5117 -1.1594
19434TIP3    H279718   6.514   2.488   2.581  0.4909  0.0797 -0.1675
19435TIP3   OH279719   4.444   5.172   4.687 -0.2853  0.0974  0.2695
19435TIP3    H179720   4.379   5.239   4.672  1.5074  2.0136  0.5894
19435TIP3    H279721   4.470   5.142   4.600 -1.1855 -0.3046  0.1315
19436TIP3   OH279722   0.062   6.309  15.148 -0.5850  0.0530  0.2324
19436TIP3    H179723   0.041   6.402  15.150  3.1025  1.0931 -0.7293
19436TIP3    H279724   0.079   6.286  15.239 -0.2880  0.6932  0.3425
19437TIP3   OH279725   4.647   2.593   3.786  0.2914 -0.0498  0.4003
19437TIP3    H179726   4.663   2.500   3.777  0.3152 -0.0321  0.2466
19437TIP3    H279727   4.699   2.633   3.716 -1.5071 -0.1040 -1.0432
19438TIP3   OH279728   5.059   4.854   2.129  0.7725 -0.0983  0.0705
19438TIP3    H179729   5.038   4.926   2.070 -1.3321  0.2759  1.1796
19438TIP3    H279730   5.012   4.779   2.093  1.2463 -0.4148  0.0959
19439TIP3   OH279731   1.495   0.829  13.213 -0.1420  0.1217  0.0501
19439TIP3    H179732   1.469   0.737  13.224 -1.6571  0.6340  0.9470
19439TIP3    H279733   1.589   0.829  13.232  0.1350 -1.4151 -1.0583
19440TIP3   OH279734   1.544   0.557   0.129 -0.3637  0.0145 -0.8492
19440TIP3    H179735   1.573   0.525   0.043  0.6516 -1.2949 -0.0623
19440TIP3    H279736   1.613   0.529   0.189 -2.0558 -0.9762  0.7255
19441TIP3   OH279737   4.133   6.071   4.772  0.2637  0.8710  0.1015
19441TIP3    H179738   4.065   6.005   4.785  1.4305 -0.3408  0.1653
19441TIP3    H279739   4.085   6.149   4.742 -1.4718  0.8657  2.5550
19442TIP3   OH279740   4.639   1.950  15.994 -0.0523 -0.1560  0.1967
19442TIP3    H179741   4.674   1.964  16.082 -1.6279 -0.3287  0.8846
19442TIP3    H279742   4.659   2.030  15.947 -0.2977  0.4603  1.1139
19443TIP3   OH279743   2.620   0.932  15.126 -0.0795  1.3473  0.3781
19443TIP3    H179744   2.710   0.922  15.094 -0.6105  0.7682 -1.0405
19443TIP3    H279745   2.566   0.921  15.048 -1.5722 -1.7866  1.6935
19444TIP3   OH279746   5.943   4.633  15.449 -0.1258  0.0644 -0.1400
19444TIP3    H179747   5.926   4.561  15.388 -0.4693  1.2139 -1.4769
19444TIP3    H279748   5.907   4.604  15.532 -4.5764  0.4544 -1.6569
19445TIP3   OH279749   5.190   5.556  17.201 -0.0565 -0.2435 -0.0575
19445TIP3    H179750   5.253   5.622  17.174 -1.0514  1.1262  0.8286
19445TIP3    H279751   5.167   5.581  17.291 -0.3591 -1.8767  0.3473
19446TIP3   OH279752   0.593   4.661  16.613 -0.6388  0.0692  0.1195
19446TIP3    H179753   0.633   4.687  16.696 -1.4923 -0.9917  0.8919
19446TIP3    H279754   0.575   4.568  16.624  0.3462 -0.3796 -1.7396
19447TIP3   OH279755   4.389   4.112  14.604  0.4344  0.2601 -0.1772
19447TIP3    H179756   4.411   4.126  14.512  0.6945  0.9573 -0.0111
19447TIP3    H279757   4.432   4.183  14.651 -1.8409  1.4990  0.2044
19448TIP3   OH279758   0.657   3.742   1.375 -0.2006  0.1028  0.0183
19448TIP3    H179759   0.669   3.664   1.430  1.2550 -0.1994 -0.6669
19448TIP3    H279760   0.632   3.811   1.436 -0.1348 -0.5767  0.8362
19449TIP3   OH279761   2.368   2.228   1.142  0.3969 -0.0802  0.0898
19449TIP3    H179762   2.425   2.253   1.069  1.5111  1.0210  1.2842
19449TIP3    H279763   2.280   2.239   1.108  0.8846 -0.4297 -1.3611
19450TIP3   OH279764   2.200   5.219  13.658  0.2908 -0.2275 -0.5307
19450TIP3    H179765   2.258   5.174  13.718  0.6330 -1.3898 -1.6865
19450TIP3    H279766   2.248   5.222  13.575  0.3606  2.4486 -0.4883
19451TIP3   OH279767   6.227   2.945  13.531 -0.4033  0.0884  0.3958
19451TIP3    H179768   6.241   2.935  13.437 -0.1693 -1.7403  0.5865
19451TIP3    H279769   6.198   3.035  13.542 -0.1412  0.4176 -1.3931
19452TIP3   OH279770   1.967   4.336   4.607 -0.4915 -0.4239 -0.4661
19452TIP3    H179771   1.946   4.390   4.531 -1.0964  0.3401  0.2373
19452TIP3    H279772   1.883   4.312   4.645 -0.1889  0.7506  1.0330
19453TIP3   OH279773   1.608   4.894   5.940 -0.7093  0.1723 -0.3754
19453TIP3    H179774   1.683   4.873   5.886 -0.0281 -0.3493  0.7279
19453TIP3    H279775   1.622   4.985   5.967 -1.2571  0.5668 -1.3701
19454TIP3   OH279776   5.543   1.818  17.148  0.0473 -0.2555 -0.2288
19454TIP3    H179777   5.454   1.792  17.173  0.5260 -0.2288  1.6548
19454TIP3    H279778   5.538   1.913  17.135 -0.1612 -0.2236  0.0832
19455TIP3   OH279779   4.913   4.262   6.584  0.6001  0.1985 -0.2747
19455TIP3    H179780   4.881   4.319   6.515  0.2684  1.1859  0.6672
19455TIP3    H279781   4.906   4.174   6.548 -0.7796  0.5935 -1.0197
19456TIP3   OH279782   4.382   3.367   0.856  0.3276 -0.2021  0.1017
19456TIP3    H179783   4.437   3.372   0.778 -0.1022  0.3587 -0.1724
19456TIP3    H279784   4.363   3.459   0.878  0.0708 -0.3680  0.5982
19457TIP3   OH279785   3.457   2.387  14.861  0.2850 -0.0741  0.3656
19457TIP3    H179786   3.489   2.306  14.823  1.8249 -0.5566  2.4713
19457TIP3    H279787   3.388   2.360  14.921 -2.4949  0.7177 -2.2399
19458TIP3   OH279788   2.099   6.260   0.116 -0.6013  0.7464  0.0017
19458TIP3    H179789   2.158   6.247   0.190  0.2048  0.0853 -0.7298
19458TIP3    H279790   2.152   6.303   0.049 -1.3757  1.5216 -0.1346
19459TIP3   OH279791   4.703   4.921   4.698  0.0501  0.7962 -0.2023
19459TIP3    H179792   4.622   4.902   4.651 -0.5585  1.5512  0.5117
19459TIP3    H279793   4.674   4.961   4.780  1.1218  0.3610  0.4075
19460TIP3   OH279794   3.975   0.002  11.770 -0.7024  0.0138 -0.1260
19460TIP3    H179795   3.891   0.044  11.785 -0.9880  0.5785 -2.7627
19460TIP3    H279796   3.955  -0.077  11.719  0.2809 -0.5106  0.2511
19461TIP3   OH279797   3.847   0.925   1.487  0.1676  0.4061  0.0127
19461TIP3    H179798   3.855   0.937   1.392 -0.6784 -1.5866 -0.3459
19461TIP3    H279799   3.871   1.010   1.524  0.3359  1.2708 -1.9882
19462TIP3   OH279800   2.830   0.367   5.330  0.5351  0.0143 -0.0899
19462TIP3    H179801   2.876   0.448   5.355  0.1062  0.3212 -0.2779
19462TIP3    H279802   2.855   0.353   5.239  1.3898 -0.6151  0.2247
19463TIP3   OH279803   3.556   5.965  17.133 -0.0041 -0.0134  0.2184
19463TIP3    H179804   3.594   6.051  17.146  0.0862  0.0220 -0.2807
19463TIP3    H279805   3.608   5.926  17.063  0.3854 -0.7296  0.8816
19464TIP3   OH279806   4.728   4.817   2.740  0.5947  0.1652  0.7228
19464TIP3    H179807   4.720   4.906   2.775  0.7645  0.3176  0.3735
19464TIP3    H279808   4.639   4.794   2.713  0.8452  0.8949 -0.7963
19465TIP3   OH279809   1.835   3.541   5.393  0.5066 -0.3301  0.1385
19465TIP3    H179810   1.842   3.513   5.484  0.5086 -1.2158 -0.1333
19465TIP3    H279811   1.741   3.535   5.374  0.2280  1.6152  0.6198
19466TIP3   OH279812   4.173   4.895  16.225 -0.0441 -0.4133 -0.7459
19466TIP3    H179813   4.243   4.829  16.228 -0.5948 -1.0113  2.5814
19466TIP3    H279814   4.216   4.976  16.255 -0.7538 -0.9134  1.8956
19467TIP3   OH279815   5.927   1.667   3.674  0.0527 -0.2657  0.3787
19467TIP3    H179816   5.946   1.685   3.582  1.2128  0.6334  0.7680
19467TIP3    H279817   5.881   1.583   3.673 -0.5446  0.0470 -1.0667
19468TIP3   OH279818   6.527   0.902   4.529 -0.9160 -0.3210 -0.3286
19468TIP3    H179819   6.457   0.852   4.571  0.0569 -0.0208  1.7498
19468TIP3    H279820   6.567   0.952   4.600  0.7675  0.2698 -1.6316
19469TIP3   OH279821   3.626   1.316   5.379 -0.7339  0.5068  0.4348
19469TIP3    H179822   3.542   1.313   5.332 -1.0963  1.4606  0.9945
19469TIP3    H279823   3.608   1.275   5.463  0.1323 -1.9976 -0.5009
19470TIP3   OH279824   5.328   2.834  14.565  0.0808 -0.2456 -0.0341
19470TIP3    H179825   5.279   2.916  14.560 -0.5645 -0.6650 -1.0207
19470TIP3    H279826   5.419   2.860  14.552 -0.2138  0.2437 -1.3540
19471TIP3   OH279827   2.810   5.625   4.882 -0.8120  0.6165 -0.0216
19471TIP3    H179828   2.847   5.711   4.899  1.8824 -0.3858 -0.2884
19471TIP3    H279829   2.781   5.629   4.790  4.3006 -0.1692 -1.9910
19472TIP3   OH279830   2.965   2.730   4.688  0.0076  0.1076 -0.4724
19472TIP3    H179831   3.043   2.698   4.642  0.1264  1.0149 -0.9364
19472TIP3    H279832   2.897   2.732   4.621 -0.5260 -1.0157  0.0129
19473TIP3   OH279833   6.679   4.362   0.621  0.6234 -0.5126  0.5869
19473TIP3    H179834   6.646   4.403   0.701 -0.0575  1.3124 -0.5593
19473TIP3    H279835   6.600   4.341   0.571  0.9956  2.1712 -1.3595
19474TIP3   OH279836   1.105   2.922   3.909  0.5015 -0.4901  0.2903
19474TIP3    H179837   1.161   2.980   3.962 -0.4268 -1.7119  2.7911
19474TIP3    H279838   1.027   2.974   3.891 -0.4707 -0.8951  2.8017
19475TIP3   OH279839   2.993   4.490   3.526  0.1277  0.0473 -0.5656
19475TIP3    H179840   3.007   4.482   3.432  0.4324 -0.4210 -0.4856
19475TIP3    H279841   2.951   4.576   3.537  2.1563  1.1599 -0.9278
19476TIP3   OH279842   0.278   4.423  14.566 -0.6545 -0.4161 -0.4770
19476TIP3    H179843   0.282   4.497  14.505  2.1108 -0.8550 -0.9740
19476TIP3    H279844   0.272   4.464  14.653 -0.7053  0.3423 -0.8315
19477TIP3   OH279845   0.778   3.962  15.958 -0.3799 -0.1221 -0.3284
19477TIP3    H179846   0.872   3.977  15.963 -0.6256  1.4063  0.3053
19477TIP3    H279847   0.763   3.931  15.869  0.6748 -0.0223 -0.5489
19478TIP3   OH279848   2.079   5.336   2.901 -0.4849 -0.7328 -0.0747
19478TIP3    H179849   2.159   5.293   2.872 -1.2137 -1.8981 -0.4686
19478TIP3    H279850   2.101   5.429   2.907  1.0490 -1.1109  0.4410
19479TIP3   OH279851   5.355   6.185  11.780  0.0758 -0.1812  0.4386
19479TIP3    H179852   5.315   6.099  11.790 -0.4873 -0.1608 -1.2255
19479TIP3    H279853   5.301   6.228  11.713  0.8505  1.1487  0.6424
19480TIP3   OH279854   3.337   6.305  10.938 -0.4472 -0.2730 -0.5179
19480TIP3    H179855   3.326   6.370  11.007  0.7806 -1.4160  0.8322
19480TIP3    H279856   3.430   6.307  10.917 -0.6344 -0.6516 -1.4456
19481TIP3   OH279857   4.168   5.040   3.890  0.5484  0.1060 -0.3528
19481TIP3    H179858   4.243   5.001   3.935  0.0882  1.0761  1.3285
19481TIP3    H279859   4.095   5.027   3.950 -0.7851 -1.2436 -2.1617
19482TIP3   OH279860   6.271   5.277  11.598 -0.6156 -0.2647  0.4169
19482TIP3    H179861   6.247   5.202  11.543  1.3405 -3.9407  4.1143
19482TIP3    H279862   6.366   5.280  11.595 -0.5576  0.6077  2.1095
19483TIP3   OH279863   0.811   4.874   0.568 -0.7777 -0.7792  0.2282
19483TIP3    H179864   0.852   4.788   0.554  1.9154  0.2432  1.0394
19483TIP3    H279865   0.826   4.921   0.486 -2.9906 -1.2817 -0.5224
19484TIP3   OH279866   5.062   5.415  13.410  0.0730  0.3113  0.1282
19484TIP3    H179867   4.998   5.402  13.480  0.8726 -1.1411  0.6386
19484TIP3    H279868   5.132   5.466  13.452 -0.2366  0.9347 -0.1109
19485TIP3   OH279869   2.557   1.029  14.755  0.6897 -0.5237  0.1144
19485TIP3    H179870   2.525   1.076  14.679  0.5250  0.3722  0.7173
19485TIP3    H279871   2.628   0.975  14.722  2.0995  1.4781 -0.3482
19486TIP3   OH279872   6.527   2.851  15.635 -0.1447 -0.0120 -0.3046
19486TIP3    H179873   6.599   2.866  15.696 -1.1626 -2.5627  1.7139
19486TIP3    H279874   6.499   2.939  15.608  3.1574  1.0695 -0.6301
19487TIP3   OH279875   6.103   4.853  13.504  0.1158  0.1578 -0.2319
19487TIP3    H179876   6.181   4.807  13.533 -0.3031 -0.0292  0.6176
19487TIP3    H279877   6.078   4.809  13.422 -0.6124 -1.5310  0.8469
19488TIP3   OH279878   1.291   4.327  13.423  0.4377 -0.1243  0.0309
19488TIP3    H179879   1.344   4.385  13.477  2.9067 -2.2010  0.0494
19488TIP3    H279880   1.201   4.340  13.454  1.2754  1.5032  1.9898
19489TIP3   OH279881   6.467   0.181   1.501  0.2249 -0.1943 -0.2032
19489TIP3    H179882   6.499   0.095   1.475  0.2500 -0.1636 -0.2719
19489TIP3    H279883   6.545   0.228   1.530  0.3361  0.1064 -0.9894
19490TIP3   OH279884   3.860   1.661  15.086 -0.1698 -0.1346 -0.7076
19490TIP3    H179885   3.931   1.653  15.023 -0.6405  0.0039 -1.2646
19490TIP3    H279886   3.820   1.574  15.089  0.3309 -0.3550 -0.0071
19491TIP3   OH279887   6.023   3.576   0.921  0.5845  0.0677 -0.1179
19491TIP3    H179888   6.016   3.654   0.975  0.4103  0.4235 -0.6402
19491TIP3    H279889   6.075   3.603   0.845  0.1981 -0.2138 -0.4902
19492TIP3   OH279890   2.473   0.033   5.998  0.7608 -0.6004  0.2505
19492TIP3    H179891   2.386   0.050   5.962  1.3449  1.1585 -0.4313
19492TIP3    H279892   2.455  -0.006   6.084 -0.7037 -0.3993  0.0702
19493TIP3   OH279893   2.199   6.429   5.958  0.3524 -0.6644 -0.1294
19493TIP3    H179894   2.273   6.394   6.006  0.5425 -1.0121 -0.6676
19493TIP3    H279895   2.237   6.487   5.893  0.0616  0.2604  0.5050
19494TIP3   OH279896   0.493   3.597   3.694 -0.4550 -0.1180  0.2798
19494TIP3    H179897   0.450   3.512   3.705  1.3229 -1.2813 -1.1951
19494TIP3    H279898   0.549   3.605   3.772  1.5711 -1.7479 -0.9096
19495TIP3   OH279899   3.638   4.279   4.820 -0.3388 -0.8138 -0.3736
19495TIP3    H179900   3.687   4.198   4.832  0.3553 -0.6874 -2.0376
19495TIP3    H279901   3.669   4.313   4.736  0.7836  2.1541  1.0994
19496TIP3   OH279902   0.755   2.278  15.078 -0.4157  0.2839  0.2418
19496TIP3    H179903   0.729   2.198  15.124  1.7117  0.3823  1.7733
19496TIP3    H279904   0.728   2.349  15.137  0.1853  0.5323  0.2224
19497TIP3   OH279905   2.029   6.017   3.324 -0.7962 -0.1036  0.3724
19497TIP3    H179906   1.961   6.007   3.391 -0.0614 -0.5308  1.0830
19497TIP3    H279907   2.003   5.957   3.254 -2.5952  1.7263 -0.6464
19498TIP3   OH279908   0.990   4.307  11.999  0.3718 -0.0476  0.0278
19498TIP3    H179909   0.986   4.334  12.090 -2.0644  1.9696 -0.5415
19498TIP3    H279910   1.042   4.375  11.955  0.7089 -0.4776 -0.2529
19499TIP3   OH279911   5.180   1.096  12.690 -0.1918  0.1991  0.3440
19499TIP3    H179912   5.166   1.061  12.778 -0.2318  2.5594  1.3285
19499TIP3    H279913   5.273   1.113  12.684  0.1094 -1.5155 -0.7556
19500TIP3   OH279914   6.449   2.821  16.765 -0.4766 -0.0870 -1.0703
19500TIP3    H179915   6.511   2.855  16.700  0.5863 -0.2828 -0.1945
19500TIP3    H279916   6.458   2.726  16.758 -0.0848 -0.1066 -0.4084
19501TIP3   OH279917   6.608   2.634   5.716  0.0347 -0.0544  0.0291
19501TIP3    H179918   6.686   2.688   5.702  0.5177 -0.8200 -0.3820
19501TIP3    H279919   6.581   2.653   5.805  0.2400  0.7952 -0.0814
19502TIP3   OH279920   1.999   1.894  12.139  0.1304 -0.0683  0.0563
19502TIP3    H179921   2.036   1.825  12.084 -0.1977 -0.1404 -0.0747
19502TIP3    H279922   1.999   1.972  12.083  1.1887  0.2300  0.4383
19503TIP3   OH279923   0.376   6.098  12.947  0.0871  0.5718 -0.4520
19503TIP3    H179924   0.317   6.115  13.020 -1.1333  1.9753 -1.6833
19503TIP3    H279925   0.461   6.132  12.975 -0.2899  0.8035  0.4160
19504TIP3   OH279926   4.692   4.769  16.835  0.1592 -0.2031  0.2663
19504TIP3    H179927   4.756   4.793  16.769 -0.5679  1.2759  0.0671
19504TIP3    H279928   4.743   4.756  16.915  0.8444 -0.3960 -0.1946
19505TIP3   OH279929   1.341   4.417   1.713  0.1336  0.4319 -0.2272
19505TIP3    H179930   1.362   4.486   1.651 -0.4333  0.8362  0.0126
19505TIP3    H279931   1.402   4.346   1.694  1.7831  1.5933  0.5444
19506TIP3   OH279932   1.926   2.812  17.087  0.2481  0.0404 -0.1751
19506TIP3    H179933   1.965   2.875  17.148  0.4128 -1.2946  1.1673
19506TIP3    H279934   2.000   2.777  17.038  0.3930 -0.4156  0.3607
19507TIP3   OH279935   6.582   4.051   5.430 -0.2623  0.3791  0.0168
19507TIP3    H179936   6.612   3.968   5.394 -1.6015  0.2144 -0.7770
19507TIP3    H279937   6.614   4.051   5.520  0.7123 -0.4838 -0.3103
19508TIP3   OH279938   2.580   3.036   5.100 -0.2523 -0.1984 -0.6230
19508TIP3    H179939   2.492   3.054   5.133  1.5126  1.3828  3.9172
19508TIP3    H279940   2.613   3.122   5.072  0.7294 -0.2204  0.3820
19509TIP3   OH279941   6.038   0.657  12.680  0.3744  0.2427  0.4532
19509TIP3    H179942   6.133   0.655  12.686  0.6183  2.2684 -1.3854
19509TIP3    H279943   6.008   0.681  12.768  1.3807 -2.1906  1.5389
19510TIP3   OH279944   1.089   4.156   5.460  0.0959  0.0653  0.1521
19510TIP3    H179945   1.082   4.208   5.380  0.8440  1.3206  0.8574
19510TIP3    H279946   1.149   4.207   5.516  0.4966 -1.3526  1.0577
19511TIP3   OH279947   6.666   2.966  13.240  0.1690 -0.1101 -0.3073
19511TIP3    H179948   6.649   3.035  13.176  1.0658  0.1794 -0.2481
19511TIP3    H279949   6.620   2.889  13.206  0.9866 -0.0807 -1.5307
19512TIP3   OH279950   1.467   1.472   2.603  0.1054 -0.0900 -0.5547
19512TIP3    H179951   1.560   1.453   2.611  0.0486 -0.7440 -1.3628
19512TIP3    H279952   1.434   1.467   2.693  0.8405  0.1665 -0.2562
19513TIP3   OH279953   0.907   5.070   6.462 -0.0178 -0.1338 -0.4618
19513TIP3    H179954   0.901   4.993   6.405  0.0946  0.1308 -0.8340
19513TIP3    H279955   0.922   5.034   6.550  1.7922 -0.4854 -0.8871
19514TIP3   OH279956   5.571   2.666  11.622 -0.2327  0.5338 -0.7352
19514TIP3    H179957   5.481   2.678  11.652  0.6400  2.2307  1.3862
19514TIP3    H279958   5.599   2.753  11.593  1.3779  0.5142  0.6316
19515TIP3   OH279959   6.476   2.432   5.570  0.1975 -0.1216  0.3085
19515TIP3    H179960   6.528   2.487   5.629  0.2098  0.7386 -0.4841
19515TIP3    H279961   6.516   2.346   5.577  1.8927  0.5636 -0.4341
19516TIP3   OH279962   0.441   0.268  13.227  0.0073 -0.0097 -0.5080
19516TIP3    H179963   0.479   0.264  13.315  1.0194  1.8449 -0.7965
19516TIP3    H279964   0.451   0.180  13.192 -1.0521 -0.9708  1.4578
19517TIP3   OH279965   5.105   4.254  11.739 -0.8875  0.0497 -0.2017
19517TIP3    H179966   5.131   4.287  11.825  0.0468 -1.7014  0.2203
19517TIP3    H279967   5.009   4.258  11.740 -0.8748  0.3809  0.7685
19518TIP3   OH279968   0.935   6.225   0.408  0.2740  0.2910  0.9683
19518TIP3    H179969   0.954   6.212   0.315 -0.2726 -2.6167  1.1789
19518TIP3    H279970   0.981   6.154   0.452 -0.6641  0.7361  2.7517
19519TIP3   OH279971   2.879   2.214  16.019  0.6793 -0.2623  0.1785
19519TIP3    H179972   2.951   2.156  15.995  0.1460 -0.4677 -0.9920
19519TIP3    H279973   2.910   2.301  15.996  0.0329 -0.4861 -1.7776
19520TIP3   OH279974   2.369   2.012  11.608 -0.7026 -0.3750 -0.3193
19520TIP3    H179975   2.317   2.026  11.687 -1.9336  0.6652 -1.2797
19520TIP3    H279976   2.311   2.037  11.536 -0.0875 -2.5240 -1.6698
19521TIP3   OH279977   0.859   2.716   1.592  0.3376 -0.5516 -0.4361
19521TIP3    H179978   0.898   2.707   1.679 -1.0990  0.8636  0.4233
19521TIP3    H279979   0.918   2.775   1.545  0.9312 -1.0282 -0.3004
19522TIP3   OH279980   5.993   3.610  16.221  0.6606  0.1075 -0.3658
19522TIP3    H179981   6.052   3.537  16.243  1.0971  0.1997 -1.2037
19522TIP3    H279982   5.922   3.569  16.172  0.0546  0.0107  0.5664
19523TIP3   OH279983   5.446   5.954  16.778  0.1763 -0.6432  0.0914
19523TIP3    H179984   5.532   5.987  16.751 -0.0089  0.0888  0.3665
19523TIP3    H279985   5.440   5.975  16.871  0.8853 -3.3088  0.8115
19524TIP3   OH279986   4.753   5.939  15.015  0.2437  0.1524  0.2269
19524TIP3    H179987   4.725   6.019  14.970  0.3536 -0.3157 -0.6898
19524TIP3    H279988   4.848   5.937  15.005  0.0918 -0.9691 -1.2734
19525TIP3   OH279989   3.003   5.931  14.870 -0.3117 -0.1384  0.1335
19525TIP3    H179990   2.969   5.927  14.781 -1.0586  0.6992  0.3623
19525TIP3    H279991   3.044   6.018  14.876 -2.4587  0.8814  1.3222
19526TIP3   OH279992   1.847   3.815  11.004 -0.1567 -0.4166  0.0688
19526TIP3    H179993   1.893   3.737  10.974  1.3745  0.5987 -0.3433
19526TIP3    H279994   1.901   3.888  10.974 -2.4277  0.9124 -1.1252
19527TIP3   OH279995   0.816   4.611   2.622  0.0268  0.6912  0.5275
19527TIP3    H179996   0.897   4.561   2.612 -0.0033  0.6400  0.5400
19527TIP3    H279997   0.816   4.672   2.549  0.0245  0.6177  0.4656
19528TIP3   OH279998   6.098   1.989   0.037  0.3703  0.2181 -0.4476
19528TIP3    H179999   6.041   2.003   0.112  0.6813  0.8257 -0.3159
19528TIP3    H280000   6.157   2.065   0.037  1.0844 -0.3205 -0.6552
19529TIP3   OH280001   3.768   6.037   1.948  0.2488 -0.2514 -0.5896
19529TIP3    H180002   3.810   6.104   2.001  0.2260 -0.3659 -0.4256
19529TIP3    H280003   3.677   6.066   1.939  0.2034 -0.3336 -0.3966
19530TIP3   OH280004   3.504   4.099  11.536  0.0132 -0.1126 -0.3911
19530TIP3    H180005   3.538   4.122  11.449  0.2761 -0.9747 -0.5265
19530TIP3    H280006   3.548   4.017  11.558 -0.2626 -0.0445  0.4399
19531TIP3   OH280007   3.711   3.850  16.322  0.3197  0.5718 -0.3265
19531TIP3    H180008   3.790   3.810  16.285 -0.9155 -2.4600  0.0533
19531TIP3    H280009   3.641   3.825  16.263 -0.5435  2.3698 -0.1172
19532TIP3   OH280010   6.538   3.562  14.438 -0.0479  0.1364  0.0622
19532TIP3    H180011   6.538   3.551  14.533  0.9638  0.9107  0.1720
19532TIP3    H280012   6.616   3.614  14.420  1.1295 -2.0154 -1.4525
19533TIP3   OH280013   0.378   4.389  16.008  0.1506  0.3077  0.3129
19533TIP3    H180014   0.390   4.434  15.924 -0.9865  1.2335  0.6236
19533TIP3    H280015   0.331   4.452  16.063 -1.8084 -1.3408  0.6544
19534TIP3   OH280016   0.845   5.162   1.513  0.1632  0.2551 -0.4431
19534TIP3    H180017   0.776   5.176   1.448  1.3525  0.4437 -1.7068
19534TIP3    H280018   0.821   5.080   1.556 -1.2385  0.6975 -0.3103
19535TIP3   OH280019   4.277   1.844   6.579 -0.1871  0.0629  0.9213
19535TIP3    H180020   4.372   1.835   6.569  0.0254  0.0567  2.5683
19535TIP3    H280021   4.261   1.938   6.572 -0.1686  0.0020 -0.0574
19536TIP3   OH280022   1.336   4.286  14.494  0.0355  0.0795  0.0609
19536TIP3    H180023   1.391   4.228  14.441  0.2245  1.3639 -1.1926
19536TIP3    H280024   1.392   4.361  14.514 -1.0357  1.1498 -0.7709
19537TIP3   OH280025   4.875   1.946  12.589  0.7335  0.1590  0.1349
19537TIP3    H180026   4.962   1.977  12.613  1.6274 -0.2834 -2.2997
19537TIP3    H280027   4.844   1.899  12.667  1.3090  2.9288  2.1757
19538TIP3   OH280028   2.619   1.278   2.612 -0.3100  0.1265 -0.0790
19538TIP3    H180029   2.698   1.310   2.656  0.4910 -1.5912 -0.1798
19538TIP3    H280030   2.610   1.334   2.535  1.2126 -0.0812 -0.4361
19539TIP3   OH280031   0.986   5.086  15.389 -0.5620 -0.1844 -0.2860
19539TIP3    H180032   1.036   5.031  15.329 -1.0878 -0.3191 -0.6030
19539TIP3    H280033   1.052   5.139  15.434 -0.1858  0.1071 -1.1637
19540TIP3   OH280034   2.725   0.168  15.722 -0.2503 -0.2761 -0.1362
19540TIP3    H180035   2.758   0.255  15.746  1.1400 -0.5483 -0.9552
19540TIP3    H280036   2.669   0.184  15.646 -1.7184  0.1315  0.9788
19541TIP3   OH280037   1.869   2.687   0.828  0.0167  0.0972  0.4643
19541TIP3    H180038   1.822   2.604   0.826 -1.3920  0.8660  0.6575
19541TIP3    H280039   1.833   2.738   0.756  2.8359 -0.4259 -1.4603
19542TIP3   OH280040   3.644   4.542  17.181  0.5518  0.5683 -0.7320
19542TIP3    H180041   3.740   4.538  17.187  0.5373  0.4287 -0.5768
19542TIP3    H280042   3.620   4.619  17.233  0.4563 -0.4037  0.7483
19543TIP3   OH280043   0.786   5.327  12.779  0.9727 -0.9190 -0.0060
19543TIP3    H180044   0.701   5.368  12.791  0.2965 -2.2246 -0.1786
19543TIP3    H280045   0.782   5.286  12.693  2.1122 -0.2563 -0.4058
19544TIP3   OH280046   0.739   5.251  14.204 -0.2757 -0.8594 -0.7476
19544TIP3    H180047   0.646   5.267  14.215 -0.3343 -0.4324 -1.7774
19544TIP3    H280048   0.781   5.315  14.262 -0.6119 -0.5387 -0.8562
19545TIP3   OH280049   2.446   3.688   6.471 -0.1186 -0.0585 -0.0820
19545TIP3    H180050   2.378   3.719   6.412  0.0491  1.9894  0.7141
19545TIP3    H280051   2.516   3.658   6.413 -1.2969 -1.3516 -0.8974
19546TIP3   OH280052   6.466   4.646   3.358 -0.5446  0.3518  0.2303
19546TIP3    H180053   6.531   4.581   3.331 -0.6510  0.3050  0.0884
19546TIP3    H280054   6.512   4.730   3.352 -1.0987  0.5613 -1.9052
19547TIP3   OH280055   3.020   5.130   3.668 -0.0806 -0.5964 -0.1353
19547TIP3    H180056   3.031   5.170   3.582  1.5748  1.7557  1.0665
19547TIP3    H280057   3.036   5.201   3.730 -0.0350 -2.4718  2.1471
19548TIP3   OH280058   0.098   6.176  16.328  0.0774 -0.3976 -0.1322
19548TIP3    H180059   0.190   6.194  16.349  0.6205 -0.4841 -2.2276
19548TIP3    H280060   0.049   6.231  16.389  1.5005 -0.2721  0.9706
19549TIP3   OH280061   2.156   3.980   1.371  0.1059 -0.0405 -0.5526
19549TIP3    H180062   2.078   3.932   1.345 -0.0556  0.3554 -0.8156
19549TIP3    H280063   2.228   3.920   1.354 -0.3291 -1.7167  2.7693
19550TIP3   OH280064   2.985   6.325  12.144 -0.3030 -0.4559  0.0982
19550TIP3    H180065   2.937   6.408  12.142  0.1630 -0.1885 -0.3114
19550TIP3    H280066   2.951   6.275  12.070 -0.5626 -0.6255  0.3271
19551TIP3   OH280067   1.310   3.403  12.843  0.3172 -0.3180 -0.0061
19551TIP3    H180068   1.275   3.390  12.755  1.7579 -0.2926 -0.6037
19551TIP3    H280069   1.237   3.381  12.901 -0.8323  0.1694 -1.1964
19552TIP3   OH280070   4.741   3.229   1.632  0.0650 -0.1461  0.2450
19552TIP3    H180071   4.752   3.241   1.727  1.3689 -1.1835  0.2503
19552TIP3    H280072   4.657   3.183   1.624 -0.7162  1.1256  0.7806
19553TIP3   OH280073   0.413   5.815   2.218 -0.1989 -0.1174 -0.2208
19553TIP3    H180074   0.370   5.886   2.169 -2.0005  0.7823  2.4505
19553TIP3    H280075   0.365   5.736   2.190 -1.9952  0.5357  0.8225
19554TIP3   OH280076   2.557   1.661   3.466 -0.4372 -0.6395  0.3853
19554TIP3    H180077   2.652   1.654   3.479 -0.5614 -2.7703  0.3861
19554TIP3    H280078   2.519   1.645   3.552 -0.8390 -1.7634  0.0178
19555TIP3   OH280079   0.111   0.563  16.343 -0.0365  0.2073 -0.4079
19555TIP3    H180080   0.102   0.534  16.252  1.9375 -0.2029 -0.5247
19555TIP3    H280081   0.022   0.562  16.378 -0.8772  0.7275 -2.4302
19556TIP3   OH280082   5.284   4.811  13.813  0.5151  0.8209  0.5604
19556TIP3    H180083   5.369   4.778  13.783  0.4501  0.2433  0.9927
19556TIP3    H280084   5.245   4.852  13.736  0.1748 -0.9795 -0.2680
19557TIP3   OH280085   5.680   4.388   0.957 -0.0810 -0.0798  0.0289
19557TIP3    H180086   5.772   4.415   0.968  0.4383 -1.7802  0.0619
19557TIP3    H280087   5.684   4.306   0.908 -1.5424 -0.6074  0.7372
19558TIP3   OH280088   3.575   5.208   1.450 -0.5700 -0.0250 -0.4000
19558TIP3    H180089   3.560   5.153   1.527  1.6938  0.7958  0.7369
19558TIP3    H280090   3.553   5.297   1.480 -0.2607  0.2213 -0.8773
19559TIP3   OH280091   5.742   3.448  10.576  0.6702 -0.6696  0.2026
19559TIP3    H180092   5.723   3.461  10.483  0.2986  1.6536  0.5398
19559TIP3    H280093   5.795   3.368  10.579 -1.6047 -2.3680 -1.6649
19560TIP3   OH280094   1.708   1.655  16.192 -0.2292  0.4108 -0.5629
19560TIP3    H180095   1.799   1.682  16.189 -0.3742  0.8260 -1.4795
19560TIP3    H280096   1.659   1.731  16.162 -1.0548  0.8723  1.7236
19561TIP3   OH280097   3.364   6.176   2.204 -0.3645  0.0462  0.5234
19561TIP3    H180098   3.269   6.178   2.195 -0.3603 -1.0339  0.0462
19561TIP3    H280099   3.397   6.158   2.116  0.2116 -0.7240  0.8791
19562TIP3   OH280100   3.880   4.629   2.575 -0.2003 -0.3094  0.0701
19562TIP3    H180101   3.934   4.555   2.548  0.4421  0.1154  0.1686
19562TIP3    H280102   3.897   4.638   2.669  0.0484  0.2240 -0.0254
19563TIP3   OH280103   0.189   4.947  12.183 -0.6267 -0.5744  0.0813
19563TIP3    H180104   0.095   4.938  12.199 -0.6372 -0.3954  0.1237
19563TIP3    H280105   0.227   4.960  12.270 -0.5223 -0.9851  0.1007
19564TIP3   OH280106   5.381   6.554   2.437 -0.5023 -0.0659 -0.1673
19564TIP3    H180107   5.421   6.637   2.466 -0.3456 -0.7972  1.8656
19564TIP3    H280108   5.374   6.563   2.342  0.9536  1.6558 -0.1743
19565TIP3   OH280109   0.088   5.308  13.398 -0.5066 -0.2469 -0.4939
19565TIP3    H180110   0.153   5.354  13.345 -1.8451 -0.4213 -2.3731
19565TIP3    H280111   0.081   5.221  13.358 -0.8210 -0.7554  0.6112
19566TIP3   OH280112   3.553   1.656   0.955  0.4873 -0.1378 -0.0304
19566TIP3    H180113   3.501   1.730   0.987  1.2828  0.7303 -0.6651
19566TIP3    H280114   3.633   1.658   1.009  1.0167  0.1875 -0.8159
19567TIP3   OH280115   5.674   1.000   2.850 -0.0402 -0.2404 -0.2530
19567TIP3    H180116   5.582   0.979   2.835 -0.0233  0.4508 -1.4931
19567TIP3    H280117   5.721   0.950   2.783  0.2568  1.1881 -1.1740
19568TIP3   OH280118   4.814   1.779  14.877  0.0051 -0.6099 -0.0792
19568TIP3    H180119   4.731   1.765  14.923 -1.1280  1.5936 -1.2796
19568TIP3    H280120   4.812   1.719  14.803  0.2656 -1.7247  0.7959
19569TIP3   OH280121   6.283   1.032  16.128 -0.1720 -0.1259  0.6256
19569TIP3    H180122   6.265   1.009  16.037 -0.1532  0.0722  0.5700
19569TIP3    H280123   6.360   1.089  16.123 -0.6546  0.5390  0.6910
19570TIP3   OH280124   6.151   3.779  12.061  0.7665  0.5913 -0.6347
19570TIP3    H180125   6.172   3.866  12.093  1.0797  0.6556 -1.0090
19570TIP3    H280126   6.065   3.760  12.099  1.0433  0.7373  0.0804
19571TIP3   OH280127   4.587   6.235  12.674 -0.6261 -0.4719  0.6611
19571TIP3    H180128   4.555   6.318  12.711 -2.2705 -1.0373  0.5844
19571TIP3    H280129   4.649   6.203  12.739  2.0189  1.9863 -0.4271
19572TIP3   OH280130   1.576   4.580  14.865  0.2907 -0.1025 -0.4183
19572TIP3    H180131   1.571   4.484  14.861  0.6250 -0.0854 -1.5398
19572TIP3    H280132   1.656   4.601  14.817  0.9391  0.6784  0.9428
19573TIP3   OH280133   3.457   0.092   4.990 -0.2038 -0.0157  0.2053
19573TIP3    H180134   3.377   0.096   5.041 -0.4220  3.1899 -0.2028
19573TIP3    H280135   3.452   0.008   4.944 -2.3343 -0.7732  1.6804
19574TIP3   OH280136   5.868   5.910  11.297 -0.2046 -0.2904 -0.1137
19574TIP3    H180137   5.900   5.896  11.386  1.1360  0.4501 -0.4397
19574TIP3    H280138   5.866   6.005  11.287 -2.5379 -0.3043 -0.1421
19575TIP3   OH280139   6.677   4.134  16.066  0.2584  0.5989  0.2237
19575TIP3    H180140   6.605   4.174  16.115  1.0718 -0.8227  2.7903
19575TIP3    H280141   6.644   4.048  16.039  0.3799  0.6928 -0.2327
19576TIP3   OH280142   0.597   5.200   1.718 -0.2396 -0.4411  0.3765
19576TIP3    H180143   0.597   5.207   1.622  1.1185  0.5951  0.4326
19576TIP3    H280144   0.662   5.263   1.747 -1.7827  0.4567  2.0982
19577TIP3   OH280145   3.644   1.360   2.536  0.2923 -0.5426 -0.8319
19577TIP3    H180146   3.637   1.276   2.490 -0.6460  0.0830 -1.8906
19577TIP3    H280147   3.558   1.373   2.575  0.2164  0.2228 -1.2310
19578TIP3   OH280148   5.672   3.316  14.013  0.2447 -0.3982  0.7037
19578TIP3    H180149   5.649   3.399  13.973 -2.1677  0.0793  2.8443
19578TIP3    H280150   5.726   3.339  14.089  3.3335 -1.1868 -1.0580
19579TIP3   OH280151   0.713   4.436  16.475  0.6618  0.2632 -0.7999
19579TIP3    H180152   0.754   4.351  16.494  0.6882  0.4698  0.1360
19579TIP3    H280153   0.781   4.500  16.496  0.1288  0.5733  0.0418
19580TIP3   OH280154   4.733   3.493  16.527  0.2037 -0.1397 -0.3893
19580TIP3    H180155   4.758   3.410  16.486  1.2453  0.3642 -0.8071
19580TIP3    H280156   4.729   3.473  16.620  0.4406 -0.6652 -0.4864
19581TIP3   OH280157   5.551   6.332   2.492  0.2656 -0.4258  0.3121
19581TIP3    H180158   5.567   6.295   2.405 -0.6978 -1.7994  0.6751
19581TIP3    H280159   5.481   6.395   2.479 -0.8828 -1.6498  0.2613
19582TIP3   OH280160   2.816   6.606   5.476  0.3504 -0.3414 -0.1647
19582TIP3    H180161   2.796   6.695   5.447 -1.4516 -1.0158 -1.1311
19582TIP3    H280162   2.739   6.555   5.451  2.4109 -2.7345 -2.0160
19583TIP3   OH280163   0.734   3.787   1.703  0.7126  0.3253  0.0369
19583TIP3    H180164   0.647   3.808   1.736  0.3872 -1.9130  0.8146
19583TIP3    H280165   0.777   3.872   1.693 -1.1199  1.4183  0.8355
19584TIP3   OH280166   6.234   1.078  10.861  0.2557  0.1688  0.0643
19584TIP3    H180167   6.152   1.126  10.847  0.3349  0.5516  0.8571
19584TIP3    H280168   6.219   1.027  10.941  1.3219  1.5013  1.1736
19585TIP3   OH280169   0.788   6.617  14.201 -1.3191 -0.1550 -0.0765
19585TIP3    H180170   0.845   6.676  14.152 -1.7042  0.1721 -0.1282
19585TIP3    H280171   0.801   6.532  14.159 -1.4053  0.0588 -0.5394
19586TIP3   OH280172   3.660   4.504  14.408 -0.0770  0.5293  0.1637
19586TIP3    H180173   3.621   4.540  14.328 -1.2817 -2.0343 -0.5053
19586TIP3    H280174   3.721   4.438  14.377  0.5429  0.5213  1.3563
19587TIP3   OH280175   0.455   0.760  15.894  0.8905  0.9471  0.3339
19587TIP3    H180176   0.412   0.727  15.815 -0.1497 -1.7368  1.8794
19587TIP3    H280177   0.409   0.841  15.914 -0.8816  0.1292 -0.1987
19588TIP3   OH280178   6.001   5.939   4.604 -0.8575 -0.1560 -0.0816
19588TIP3    H180179   6.040   6.017   4.645 -1.0452  0.9021 -1.8418
19588TIP3    H280180   5.974   5.885   4.679 -1.7537  1.9663  1.2320
19589TIP3   OH280181   3.314   4.231   0.361  0.3734 -0.5382 -0.3310
19589TIP3    H180182   3.396   4.259   0.319  0.3489  1.2459  0.7205
19589TIP3    H280183   3.333   4.232   0.455 -1.1667  1.1540  0.0225
19590TIP3   OH280184   3.580   5.759   1.874  0.0027  0.5775 -0.3590
19590TIP3    H180185   3.667   5.796   1.863  0.2855 -0.2957 -1.2636
19590TIP3    H280186   3.535   5.781   1.792 -0.9429  1.7852  0.4509
19591TIP3   OH280187   0.017   1.828  11.090 -0.0119  0.3974 -0.3253
19591TIP3    H180188   0.032   1.889  11.018  3.3195  0.6163  0.4247
19591TIP3    H280189  -0.072   1.797  11.075 -0.6187  2.8081 -2.6950
19592TIP3   OH280190   2.472   1.257   4.796 -0.6548  0.7771  0.3945
19592TIP3    H180191   2.461   1.299   4.882  1.7990 -1.0762  1.7177
19592TIP3    H280192   2.553   1.294   4.761  0.5282 -1.3426  0.7445
19593TIP3   OH280193   3.822   1.282  12.313  0.7748 -0.2528  0.8934
19593TIP3    H180194   3.730   1.292  12.288  0.9517  0.8471  0.6383
19593TIP3    H280195   3.822   1.288  12.409  0.8226  2.2687  0.8050
19594TIP3   OH280196   2.111   0.070  14.865  0.0578  0.1701 -0.2715
19594TIP3    H180197   2.029   0.042  14.825 -1.1256  0.6059  1.6799
19594TIP3    H280198   2.170   0.086  14.792 -1.2830 -1.0839 -1.6955
19595TIP3   OH280199   4.636   1.263  13.616  0.1883 -0.0988 -0.2519
19595TIP3    H180200   4.550   1.269  13.657  0.1619 -0.8544 -0.1819
19595TIP3    H280201   4.619   1.221  13.531  0.1884  1.7881 -1.2278
19596TIP3   OH280202   2.622   6.623   4.195 -0.2248  0.3876 -0.1235
19596TIP3    H180203   2.618   6.704   4.246  1.8019  0.4627 -0.0172
19596TIP3    H280204   2.607   6.651   4.105  0.9847  0.9865 -0.1556
19597TIP3   OH280205   2.411   5.769  10.548  0.6988  0.0461  0.0247
19597TIP3    H180206   2.366   5.750  10.630  1.2174 -1.2877  0.0123
19597TIP3    H280207   2.502   5.787  10.574  0.7681  0.0476 -0.2177
19598TIP3   OH280208   2.536   6.125  14.429 -0.0413  0.2648 -0.6917
19598TIP3    H180209   2.563   6.035  14.414 -0.3696  0.3842 -2.1689
19598TIP3    H280210   2.589   6.177  14.368  0.1835  1.0918  0.1759
19599TIP3   OH280211   3.509   4.829   3.213 -0.5490 -0.2782 -0.0652
19599TIP3    H180212   3.429   4.780   3.230  1.2901 -2.8837  2.0045
19599TIP3    H280213   3.548   4.843   3.299  0.8183  1.6770 -0.9361
19600TIP3   OH280214   2.653   2.417   0.905  0.2063 -0.4525  0.1875
19600TIP3    H180215   2.655   2.321   0.915 -1.0735 -0.7402 -1.8294
19600TIP3    H280216   2.561   2.440   0.909  0.4180  0.5601 -0.4312
19601TIP3   OH280217   4.506   2.300   1.200 -0.2161  0.0177  0.9455
19601TIP3    H180218   4.514   2.210   1.169 -0.1583 -0.0432  1.1402
19601TIP3    H280219   4.412   2.315   1.205 -0.2436  0.3029 -0.0659
19602TIP3   OH280220   5.170   1.064   4.437  0.3563  0.1000 -1.1059
19602TIP3    H180221   5.110   0.992   4.418  0.9373 -0.3891 -1.0740
19602TIP3    H280222   5.171   1.115   4.356  0.4910 -0.3142 -1.3678
19603TIP3   OH280223   5.717   5.078  14.011 -0.1137 -0.1722  0.3050
19603TIP3    H180224   5.701   5.127  13.930 -0.1213 -1.0732 -0.2450
19603TIP3    H280225   5.807   5.099  14.035 -0.3084  0.5871  0.4156
19604TIP3   OH280226   1.969   5.812   5.111  0.5078 -1.2514  0.0886
19604TIP3    H180227   2.003   5.841   5.196  0.1486  0.3130 -0.2703
19604TIP3    H280228   1.952   5.719   5.123  0.5549 -1.0909  1.7106
19605TIP3   OH280229   3.327   4.828  17.008 -0.6636 -0.5000 -0.1166
19605TIP3    H180230   3.421   4.836  17.026 -1.0331  0.9561  1.4798
19605TIP3    H280231   3.306   4.737  17.027  0.2384 -0.5758  0.5669
19606TIP3   OH280232   0.425   5.550  14.176 -0.1460  0.3963 -0.1028
19606TIP3    H180233   0.490   5.605  14.220 -0.4307  0.7367 -0.0993
19606TIP3    H280234   0.342   5.596  14.189 -0.2755  0.3525 -0.7506
19607TIP3   OH280235   3.111   6.037   2.507  0.0003  0.3592 -0.9935
19607TIP3    H180236   3.136   6.096   2.578 -0.6550  0.6638 -1.0102
19607TIP3    H280237   3.194   6.000   2.476  0.1063 -3.0921  2.7179
19608TIP3   OH280238   1.736   0.912   0.293 -0.0385  0.3249  0.0473
19608TIP3    H180239   1.648   0.896   0.259  0.6401  1.6665 -2.5378
19608TIP3    H280240   1.744   1.007   0.295  1.3516  0.2179  0.2525
19609TIP3   OH280241   1.547   0.320   2.188  0.1239  0.2242  0.4013
19609TIP3    H180242   1.560   0.383   2.118  0.7993 -1.6694 -1.2617
19609TIP3    H280243   1.588   0.360   2.265 -0.0620  2.0639 -0.4130
19610TIP3   OH280244   5.462   0.870  12.842 -0.6004 -0.1549  0.2944
19610TIP3    H180245   5.460   0.804  12.773 -0.0322 -1.4930  1.5106
19610TIP3    H280246   5.439   0.952  12.798 -0.0289 -0.9301 -1.5067
19611TIP3   OH280247   4.380   2.023  12.438 -0.4013 -0.2625  0.0092
19611TIP3    H180248   4.452   2.056  12.491 -0.3980 -2.1715  1.2820
19611TIP3    H280249   4.351   2.099  12.387 -0.9606  1.9523  3.2955
19612TIP3   OH280250   3.471   2.726   3.069 -0.1119  1.0449  0.5490
19612TIP3    H180251   3.524   2.704   3.146 -0.8350  1.4592  1.1759
19612TIP3    H280252   3.387   2.683   3.085  0.0209  0.3782 -0.4478
19613TIP3   OH280253   2.270   4.079   3.072  1.0063  0.1233 -0.2800
19613TIP3    H180254   2.273   4.066   2.977  0.6764  0.1089 -0.2894
19613TIP3    H280255   2.339   4.022   3.106 -0.3069 -1.5949 -0.3290
19614TIP3   OH280256   5.021   4.526   3.239  0.6331 -0.3367 -0.1463
19614TIP3    H180257   4.989   4.441   3.271 -0.7371  0.1898 -0.0624
19614TIP3    H280258   5.095   4.546   3.296 -0.1901 -0.6210  1.0751
19615TIP3   OH280259   0.172   3.081   5.688 -0.2127  0.2984  0.2130
19615TIP3    H180260   0.255   3.099   5.644  0.2279 -1.5455  0.2132
19615TIP3    H280261   0.113   3.054   5.617  0.0074 -1.0437  0.5241
19616TIP3   OH280262   0.694   2.702  11.296  0.1631 -0.6026  0.3137
19616TIP3    H180263   0.678   2.614  11.331 -2.3077  0.0952  1.1722
19616TIP3    H280264   0.753   2.743  11.359  0.3998 -1.2629  0.5246
19617TIP3   OH280265   5.139   2.923   6.287  0.1680  0.4026 -0.5022
19617TIP3    H180266   5.125   2.849   6.346 -0.5167 -0.5581 -1.8202
19617TIP3    H280267   5.060   2.925   6.232  0.8256  1.1888 -1.4480
19618TIP3   OH280268   0.079   3.450   2.628  0.0860  0.3726 -0.3097
19618TIP3    H180269   0.017   3.383   2.600 -1.0355  1.6667 -1.0264
19618TIP3    H280270   0.163   3.404   2.634 -0.5905 -1.0189 -1.0610
19619TIP3   OH280271   6.311   5.046   0.557 -0.5648 -0.5731  0.6772
19619TIP3    H180272   6.264   4.963   0.546 -0.3272 -0.5334 -0.9111
19619TIP3    H280273   6.269   5.088   0.631 -1.3293 -1.6880  0.8989
19620TIP3   OH280274   5.029   1.864  11.489 -0.2063  0.6250  0.0000
19620TIP3    H180275   5.064   1.943  11.447 -4.2361  1.5827 -2.0871
19620TIP3    H280276   5.033   1.797  11.422 -0.3650  0.1599  0.4481
19621TIP3   OH280277   6.110   6.452  16.978 -0.3644 -0.2953 -0.3779
19621TIP3    H180278   6.066   6.535  16.993 -0.8483 -0.5763 -0.2214
19621TIP3    H280279   6.095   6.433  16.885 -2.2762 -1.3379  0.0852
19622TIP3   OH280280   4.370   3.332   4.156  0.0772  0.4372  1.1232
19622TIP3    H180281   4.308   3.353   4.086  2.4085  1.2442 -0.8601
19622TIP3    H280282   4.361   3.238   4.168  0.7504 -0.0762 -1.5857
19623TIP3   OH280283   5.074   0.163   5.802 -0.6812  0.2196  0.5772
19623TIP3    H180284   4.994   0.201   5.840 -1.2360 -0.6382  0.2897
19623TIP3    H280285   5.128   0.239   5.781 -1.7796  0.8858 -0.0016
19624TIP3   OH280286   0.655   2.223   2.416  0.7516 -0.0231 -0.4410
19624TIP3    H180287   0.663   2.316   2.435  1.1996 -0.1751  0.1522
19624TIP3    H280288   0.675   2.180   2.500 -2.0392 -0.5715  0.0487
19625TIP3   OH280289   0.485   2.777   2.177  0.1028  0.5753  0.3804
19625TIP3    H180290   0.394   2.754   2.158  0.5424 -0.5415 -0.4434
19625TIP3    H280291   0.498   2.860   2.131  0.0413 -0.2071 -1.0954
19626TIP3   OH280292   2.692   6.357  13.040  0.5126  0.0343 -0.4984
19626TIP3    H180293   2.696   6.293  12.969  2.2403 -1.6664  0.9939
19626TIP3    H280294   2.757   6.325  13.104 -1.4219  1.0453  2.1492
19627TIP3   OH280295   2.174   0.355   5.785 -0.3797 -0.3144 -0.0194
19627TIP3    H180296   2.228   0.396   5.852 -0.6703  1.4642 -0.8192
19627TIP3    H280297   2.236   0.304   5.732  0.0509 -0.6248  0.7699
19628TIP3   OH280298   4.378   5.951  12.858 -0.3388  0.5046 -0.1306
19628TIP3    H180299   4.444   5.887  12.885  0.2361  1.2431  0.2409
19628TIP3    H280300   4.354   5.925  12.769  0.2398  0.0579 -0.1613
19629TIP3   OH280301   0.818   0.537  11.535 -0.1783  0.4244  0.2107
19629TIP3    H180302   0.818   0.525  11.630 -1.0262  1.3658  0.3531
19629TIP3    H280303   0.806   0.632  11.523 -2.1257  0.1014 -0.8335
19630TIP3   OH280304   0.659   6.258   2.900  0.2232 -0.0170  0.2688
19630TIP3    H180305   0.620   6.229   2.982 -0.7177  0.4316 -0.0087
19630TIP3    H280306   0.752   6.233   2.907 -0.1946 -1.5498  0.7397
19631TIP3   OH280307   2.410   5.067   4.334 -0.3028  0.1805  0.6690
19631TIP3    H180308   2.395   5.157   4.362  0.9345  0.3074  0.9784
19631TIP3    H280309   2.439   5.074   4.243  2.1457  0.3491  1.3775
19632TIP3   OH280310   5.958   5.760   4.814 -0.2026 -0.0315 -0.6494
19632TIP3    H180311   5.938   5.666   4.816  0.1973 -0.1075  0.1800
19632TIP3    H280312   5.952   5.787   4.906  0.3526  0.6102 -0.7990
19633TIP3   OH280313   2.823   3.637  16.793 -0.0030  0.2743  0.7153
19633TIP3    H180314   2.862   3.724  16.779  0.3178 -0.0065 -0.1898
19633TIP3    H280315   2.894   3.586  16.833 -0.1393  0.3785  1.0928
19634TIP3   OH280316   5.350   5.306  17.166 -0.0124  0.5344  0.0739
19634TIP3    H180317   5.298   5.379  17.133  1.0116  0.7395 -1.1366
19634TIP3    H280318   5.309   5.284  17.250 -0.3260  2.5203  0.4884
19635TIP3   OH280319   3.015   4.587  11.309  0.4461 -0.4000 -0.3476
19635TIP3    H180320   2.926   4.574  11.341  0.7502  0.9611  1.1612
19635TIP3    H280321   3.054   4.500  11.310 -0.1190 -0.6595  1.3541
19636TIP3   OH280322   1.116   2.534   4.370 -0.1599 -0.2838 -0.3263
19636TIP3    H180323   1.087   2.472   4.302 -0.4345 -0.6126  0.0799
19636TIP3    H280324   1.207   2.553   4.348  0.2807 -1.6764  0.1304
19637TIP3   OH280325   2.128   2.580   1.285  0.0412  0.0972  0.2196
19637TIP3    H180326   2.088   2.519   1.222  0.0923  1.5305 -1.2518
19637TIP3    H280327   2.054   2.621   1.329 -0.0054 -1.5789  1.8879
19638TIP3   OH280328   4.178   3.692  13.534 -0.2025 -0.3449 -0.3023
19638TIP3    H180329   4.255   3.701  13.591 -0.6187 -0.6914  0.3315
19638TIP3    H280330   4.214   3.678  13.447  0.4525 -0.1354 -0.0738
19639TIP3   OH280331   5.555   3.663  16.161 -0.1116 -0.2934 -0.5549
19639TIP3    H180332   5.529   3.677  16.070 -0.1922 -2.3485 -0.8932
19639TIP3    H280333   5.556   3.751  16.199 -1.0480  0.5177 -2.2643
19640TIP3   OH280334   2.184   0.092   5.920  0.5654 -0.0481 -0.7445
19640TIP3    H180335   2.120   0.030   5.955 -0.4955  0.7678 -1.1688
19640TIP3    H280336   2.140   0.177   5.926  2.1871  0.7602  0.3320
19641TIP3   OH280337   1.995   0.427  16.421 -0.5862 -0.1753  0.1874
19641TIP3    H180338   2.077   0.411  16.467  1.1845 -0.0488 -2.7182
19641TIP3    H280339   1.973   0.344  16.380 -1.1693  0.1477 -0.1783
19642TIP3   OH280340   1.931   1.237   5.751 -0.7545 -0.1515 -0.3829
19642TIP3    H180341   1.888   1.323   5.748 -1.5375 -0.5196  0.0381
19642TIP3    H280342   1.956   1.227   5.843 -0.6902 -0.3922 -0.4259
19643TIP3   OH280343   3.665   3.226  15.217  0.0485  0.0949  0.3181
19643TIP3    H180344   3.759   3.245  15.221  0.3903 -1.1268 -0.8784
19643TIP3    H280345   3.624   3.311  15.201  0.9911  0.5961  0.4814
19644TIP3   OH280346   4.896   1.202  10.693  0.1001 -0.9440  0.3224
19644TIP3    H180347   4.917   1.286  10.733 -0.9289 -0.5349  0.0380
19644TIP3    H280348   4.969   1.145  10.717  1.0618  0.1617  0.0962
19645TIP3   OH280349   5.607   2.515   3.709  0.0806  0.7049 -0.5455
19645TIP3    H180350   5.528   2.492   3.661 -0.4073  2.5818 -0.7223
19645TIP3    H280351   5.577   2.569   3.782  1.1168  0.6783 -0.0732
19646TIP3   OH280352   1.087   6.714   3.064 -0.3954  0.3877  0.3028
19646TIP3    H180353   1.164   6.661   3.044  0.5561  1.9831 -0.5446
19646TIP3    H280354   1.013   6.655   3.052  0.5790 -0.6236 -1.0767
19647TIP3   OH280355   3.619   3.564  12.316  0.3176  0.0264 -0.4122
19647TIP3    H180356   3.669   3.552  12.235  3.6745  0.7660  1.3746
19647TIP3    H280357   3.577   3.479  12.331  0.3777 -0.4079 -2.3995
19648TIP3   OH280358   6.488   4.505  17.281  0.4083  0.2810 -0.1937
19648TIP3    H180359   6.531   4.570  17.225 -0.1448 -0.1967 -1.2113
19648TIP3    H280360   6.448   4.556  17.352 -0.7002  1.1655 -1.3941
19649TIP3   OH280361   2.533   3.191  12.092 -0.9222 -0.4040 -0.3298
19649TIP3    H180362   2.539   3.123  12.159  3.0493 -1.2440 -1.2841
19649TIP3    H280363   2.531   3.142  12.009 -0.8863  0.6274 -0.9588
19650TIP3   OH280364   0.149   6.498  17.177  0.0348 -0.1081  0.3483
19650TIP3    H180365   0.145   6.587  17.212  1.8438  0.1828 -0.0952
19650TIP3    H280366   0.158   6.509  17.083  0.4177 -0.7573  0.3022
19651TIP3   OH280367   6.657   0.357  13.212 -0.4789  0.2913  0.4054
19651TIP3    H180368   6.746   0.371  13.244 -0.0284  0.8339 -1.0492
19651TIP3    H280369   6.602   0.413  13.267  0.1472  0.4687  0.8546
19652TIP3   OH280370   2.713   6.664  12.670 -0.4474 -0.7026  0.4600
19652TIP3    H180371   2.630   6.682  12.625 -0.5472 -1.0884  0.4910
19652TIP3    H280372   2.771   6.632  12.601  0.4143  1.7117 -0.0515
19653TIP3   OH280373   5.618   3.604  14.038 -0.1371 -1.4096 -0.0379
19653TIP3    H180374   5.534   3.626  14.077 -0.4886 -1.9546 -0.4861
19653TIP3    H280375   5.604   3.609  13.944  0.5548 -0.6925 -0.1138
19654TIP3   OH280376   6.153   0.087  12.427 -0.4803 -0.3943  0.4566
19654TIP3    H180377   6.195   0.160  12.472 -1.5871  0.1036  0.6975
19654TIP3    H280378   6.141   0.118  12.337 -1.2766 -0.1364  0.6482
19655TIP3   OH280379   1.892   4.527  11.484 -0.1251  0.6819 -0.6964
19655TIP3    H180380   1.898   4.551  11.391  0.9034 -0.5535 -0.9779
19655TIP3    H280381   1.853   4.440  11.483  1.4393 -0.0479 -0.0879
19656TIP3   OH280382   3.251   6.092   3.256 -0.1064  0.1250  0.0580
19656TIP3    H180383   3.319   6.048   3.205 -0.9955  0.4327 -1.4543
19656TIP3    H280384   3.283   6.090   3.346  2.8098  1.9090 -0.8126
19657TIP3   OH280385   5.473   0.486   6.297 -0.3185  0.0118  0.1137
19657TIP3    H180386   5.403   0.533   6.341 -0.4424 -0.6777  0.6582
19657TIP3    H280387   5.519   0.439   6.367  0.8919  0.6959 -0.1823
19658TIP3   OH280388   1.421   0.107  16.921 -0.1894  0.0778 -0.2553
19658TIP3    H180389   1.467   0.024  16.931 -2.9731 -1.2598  4.2426
19658TIP3    H280390   1.342   0.085  16.872  0.2086  0.7319 -1.2417
19659TIP3   OH280391   5.659   1.526   3.082 -0.3958 -0.0753  0.7600
19659TIP3    H180392   5.705   1.589   3.027  0.5366 -0.1145  1.4845
19659TIP3    H280393   5.570   1.524   3.046  0.2465 -0.2898 -0.9215
19660TIP3   OH280394   3.780   1.357   1.819 -0.2594  0.1146 -0.3603
19660TIP3    H180395   3.826   1.412   1.882  0.0031  0.0001 -0.4459
19660TIP3    H280396   3.742   1.418   1.756 -1.9183  0.3250  0.8014
19661TIP3   OH280397   2.247   3.994  15.085 -1.1144 -0.1610 -0.1992
19661TIP3    H180398   2.342   3.995  15.099 -0.7855 -1.2772 -2.0453
19661TIP3    H280399   2.213   4.051  15.154  0.8756  0.1841  0.5871
19662TIP3   OH280400   4.771   6.043  15.299 -0.3049 -0.0321  0.3343
19662TIP3    H180401   4.754   5.957  15.261  0.0256  0.5705 -1.2600
19662TIP3    H280402   4.686   6.073  15.330 -0.4250 -0.9090  0.8875
19663TIP3   OH280403   0.245   0.515  12.639 -0.3477 -0.0696  0.8047
19663TIP3    H180404   0.189   0.505  12.562  0.4812 -1.9148  0.3797
19663TIP3    H280405   0.332   0.532  12.603 -0.2715  0.8771  1.4079
19664TIP3   OH280406   3.248   5.712  16.874  0.0821 -0.4043  0.4869
19664TIP3    H180407   3.258   5.644  16.808  1.2707  1.4676 -1.3904
19664TIP3    H280408   3.157   5.740  16.867  0.5463  0.7789 -1.4927
19665TIP3   OH280409   4.477   3.312  11.648  0.1189 -0.0007 -0.0029
19665TIP3    H180410   4.427   3.261  11.585 -0.7338  1.2143 -0.3626
19665TIP3    H280411   4.439   3.288  11.733 -0.5769  0.3249 -0.2069
19666TIP3   OH280412   6.079   0.201  15.750 -1.7653  0.2432 -0.9022
19666TIP3    H180413   6.137   0.276  15.737 -1.9577  0.5747  0.0960
19666TIP3    H280414   6.138   0.131  15.777 -1.6435  0.1402 -1.4107
19667TIP3   OH280415   6.125   2.421  14.782  1.2104  0.7176 -0.0052
19667TIP3    H180416   6.059   2.357  14.757 -0.0528  1.6088  0.9425
19667TIP3    H280417   6.135   2.476  14.704  1.1925  0.2833 -0.3175
19668TIP3   OH280418   5.027   2.687  16.620  0.1523  0.2448  0.2016
19668TIP3    H180419   5.121   2.709  16.622  0.4737 -1.0430 -0.0405
19668TIP3    H280420   5.007   2.680  16.527 -0.1801  0.4503  0.2568
19669TIP3   OH280421   2.565   5.107  15.879  0.1985  0.4194  0.0892
19669TIP3    H180422   2.562   5.184  15.936  0.3568 -0.1244  0.8530
19669TIP3    H280423   2.658   5.096  15.860  0.2432  0.0538  0.5004
19670TIP3   OH280424   2.305   6.599   0.942  0.0837  0.1580 -0.1228
19670TIP3    H180425   2.383   6.655   0.941  0.6639 -0.3269  3.4323
19670TIP3    H280426   2.231   6.659   0.938  0.6463  0.7995 -1.1532
19671TIP3   OH280427   1.145   0.409  15.494  0.0888  0.1329 -0.6564
19671TIP3    H180428   1.139   0.317  15.519  0.5188  0.1904 -0.3369
19671TIP3    H280429   1.226   0.416  15.444 -0.6631  0.0584 -1.9377
19672TIP3   OH280430   0.742   1.602  15.980  0.2559 -0.1553 -0.4402
19672TIP3    H180431   0.797   1.669  15.940  0.7034  0.3430  0.9317
19672TIP3    H280432   0.784   1.519  15.956 -0.9033 -0.0567 -3.0395
19673TIP3   OH280433   2.295   3.681  13.054 -0.1557  0.1041 -0.1505
19673TIP3    H180434   2.327   3.723  12.975 -0.7015 -1.2317 -1.1200
19673TIP3    H280435   2.372   3.673  13.111 -0.0613  2.4957  0.1618
19674TIP3   OH280436   0.338   2.284  12.381  0.7643  0.4803  0.1556
19674TIP3    H180437   0.297   2.199  12.369 -0.2680  0.8941  0.6399
19674TIP3    H280438   0.429   2.271  12.354  0.4219 -0.5629 -0.5396
19675TIP3   OH280439   3.234   1.178  16.649  0.1351 -0.5927 -0.0497
19675TIP3    H180440   3.226   1.198  16.742  1.5220 -0.8389  0.1477
19675TIP3    H280441   3.251   1.263  16.607  0.7406 -0.6439  0.0880
19676TIP3   OH280442   4.918   5.549  17.103  0.8516  0.3743  0.0781
19676TIP3    H180443   5.014   5.550  17.102  0.9024 -1.3430 -0.9826
19676TIP3    H280444   4.895   5.457  17.090 -0.9580  0.7410  0.4034
19677TIP3   OH280445   0.755   6.054   1.022 -0.6450  0.4406  0.0502
19677TIP3    H180446   0.663   6.048   1.050 -0.7805  0.5904 -0.3555
19677TIP3    H280447   0.764   5.987   0.955 -0.4034  0.2923  0.2308
19678TIP3   OH280448   6.521   5.175   4.263 -0.1379  0.3246  0.0667
19678TIP3    H180449   6.552   5.241   4.200 -1.7882  0.7027 -0.3948
19678TIP3    H280450   6.532   5.217   4.348 -0.3497  0.8666 -0.1648
19679TIP3   OH280451   2.724   2.217   5.227 -0.1922  0.6207 -0.5683
19679TIP3    H180452   2.776   2.298   5.230  0.7545  0.0426  2.7899
19679TIP3    H280453   2.789   2.148   5.213 -0.1173  0.0153  2.2839
19680TIP3   OH280454   5.609   2.576  15.047  0.8583 -0.6959  0.2202
19680TIP3    H180455   5.603   2.651  14.988 -1.1088 -0.4916  0.6250
19680TIP3    H280456   5.648   2.506  14.994  1.2147  0.1348 -0.6315
19681TIP3   OH280457   5.528   0.480  12.372 -0.1479  0.6982  0.4203
19681TIP3    H180458   5.529   0.469  12.277 -0.9579  0.3459  0.4391
19681TIP3    H280459   5.471   0.409  12.403 -0.9438  1.5871  1.0504
19682TIP3   OH280460   5.270   2.384  13.433 -0.4723  0.1309 -0.5906
19682TIP3    H180461   5.347   2.338  13.400  0.5086  0.7578  0.7143
19682TIP3    H280462   5.275   2.375  13.528 -1.1115  1.5668 -0.3890
19683TIP3   OH280463   1.695   6.416  15.684  0.0736  0.2071 -0.1272
19683TIP3    H180464   1.765   6.444  15.626  1.2798 -0.9800  0.6890
19683TIP3    H280465   1.732   6.422  15.772 -0.7206 -0.7315  0.3010
19684TIP3   OH280466   5.282   5.679   3.309  0.4156  0.2121 -0.3209
19684TIP3    H180467   5.265   5.585   3.313  1.9801 -0.0667  0.2933
19684TIP3    H280468   5.372   5.686   3.279  1.1479  1.4201  1.9877
19685TIP3   OH280469   2.493   1.798  15.369 -0.7004  0.5458 -0.4443
19685TIP3    H180470   2.428   1.784  15.438  0.3775 -2.4686  0.1214
19685TIP3    H280471   2.577   1.801  15.415 -0.0126 -1.0352 -1.5005
19686TIP3   OH280472   6.469   2.552  12.101 -0.1215 -0.3630  0.0679
19686TIP3    H180473   6.505   2.488  12.161  1.6605 -0.1399 -0.7177
19686TIP3    H280474   6.491   2.637  12.140 -0.2756 -0.2159 -0.1598
19687TIP3   OH280475   6.377   1.558  12.616 -0.1934 -0.8555 -0.1881
19687TIP3    H180476   6.391   1.541  12.523 -1.1183 -0.7588 -0.3542
19687TIP3    H280477   6.459   1.596  12.646 -0.3233  0.3435 -1.2692
19688TIP3   OH280478   5.162   4.002  10.527 -0.1072  0.3582  0.7384
19688TIP3    H180479   5.184   3.917  10.565  1.4046 -0.1870 -1.1667
19688TIP3    H280480   5.105   3.981  10.453  1.5874  0.7491 -0.7707
19689TIP3   OH280481   2.802   5.300   1.058 -0.7291 -0.1309  0.4042
19689TIP3    H180482   2.749   5.229   1.094 -1.7091 -0.1354 -0.9355
19689TIP3    H280483   2.773   5.306   0.967  1.3504  0.1044 -0.2953
19690TIP3   OH280484   3.362   2.949  13.724 -0.6644  0.0518  0.5722
19690TIP3    H180485   3.283   2.988  13.761  0.5551  2.2532  1.0427
19690TIP3    H280486   3.426   3.020  13.724 -0.0639 -0.0861 -4.3691
19691TIP3   OH280487   4.955   1.032  13.878 -0.0522  0.0293 -0.3415
19691TIP3    H180488   5.006   1.108  13.850  4.1197 -1.9006  1.2665
19691TIP3    H280489   4.943   1.045  13.972  0.1507 -1.0247 -0.1664
19692TIP3   OH280490   0.734   0.411  13.971 -1.3835  0.2890  0.2519
19692TIP3    H180491   0.747   0.416  13.876  0.7823 -1.2810  0.3880
19692TIP3    H280492   0.753   0.500  14.002  0.8450  0.1436 -0.5457
19693TIP3   OH280493   2.644   5.725   0.610  0.0907 -0.3564 -0.2845
19693TIP3    H180494   2.621   5.725   0.703  0.1311 -3.1075 -0.2118
19693TIP3    H280495   2.561   5.741   0.565 -0.3660 -1.3292  0.1879
19694TIP3   OH280496   6.151   0.015   6.046 -0.1994 -0.0461 -0.3096
19694TIP3    H180497   6.213  -0.010   5.977 -0.4218  0.9951 -0.9196
19694TIP3    H280498   6.158   0.111   6.050 -0.7270 -0.0400  0.6126
19695TIP3   OH280499   0.629   1.522  15.148  0.3721  0.1319 -0.2566
19695TIP3    H180500   0.628   1.513  15.243 -1.6368  0.5963 -0.1908
19695TIP3    H280501   0.638   1.432  15.116 -0.5030 -0.1965  0.3829
19696TIP3   OH280502   2.369   4.744   2.966 -0.1790  0.4834  0.2514
19696TIP3    H180503   2.314   4.705   3.034  0.4595 -0.1440  0.4267
19696TIP3    H280504   2.447   4.689   2.965 -0.3408  0.2469 -1.2727
19697TIP3   OH280505   6.629   6.491   0.189 -0.2072 -0.1516  0.1938
19697TIP3    H180506   6.616   6.562   0.127  0.6446  1.7843  2.1090
19697TIP3    H280507   6.713   6.453   0.166  0.9130  1.6581  1.1109
19698TIP3   OH280508   1.263   2.879   0.334  0.6045  0.2899 -0.2222
19698TIP3    H180509   1.263   2.822   0.411 -0.1618 -2.2607 -1.9694
19698TIP3    H280510   1.355   2.888   0.311  0.6776 -1.8290 -0.9342
19699TIP3   OH280511   4.525   3.193   1.012 -0.1310 -1.1354  0.0089
19699TIP3    H180512   4.479   3.248   0.947 -1.1129  1.6698  2.8196
19699TIP3    H280513   4.606   3.167   0.968 -1.2005 -0.3058 -2.6910
19700TIP3   OH280514   3.891   1.319  13.058 -0.1354  0.6392 -0.1206
19700TIP3    H180515   3.900   1.338  13.151  0.3251 -1.5833  0.3482
19700TIP3    H280516   3.816   1.260  13.053 -0.5077  1.1791 -1.2408
19701TIP3   OH280517   2.789   5.205   1.984  0.0785 -0.1461  0.3201
19701TIP3    H180518   2.722   5.140   2.006 -1.7709  0.8498 -1.9222
19701TIP3    H280519   2.793   5.263   2.061 -1.6420 -0.2576  0.5257
19702TIP3   OH280520   0.396   1.108  15.703  0.1776  0.2994  0.3205
19702TIP3    H180521   0.360   1.110  15.792 -0.7527 -3.9349  0.2303
19702TIP3    H280522   0.322   1.085  15.648  1.2060  0.6793 -1.2847
19703TIP3   OH280523   0.989   6.463   2.996  0.2916  0.1542  0.0761
19703TIP3    H180524   0.970   6.382   2.950  0.6001 -0.8054  1.5858
19703TIP3    H280525   0.913   6.476   3.053  0.1999  0.9948 -0.2200
19704TIP3   OH280526   1.078   3.990   0.845  0.5331 -0.0643  0.1992
19704TIP3    H180527   1.141   4.001   0.774  0.1799  1.2522  0.0584
19704TIP3    H280528   1.006   4.049   0.822 -0.7022 -1.4284  0.4186
19705TIP3   OH280529   0.601   2.799   0.291  0.1063  0.2774 -0.3696
19705TIP3    H180530   0.623   2.891   0.277 -1.0362  0.8184  1.1425
19705TIP3    H280531   0.685   2.755   0.301  0.6722  1.1071 -1.3132
19706TIP3   OH280532   3.974   5.818  16.402  0.2387 -0.2549  0.2191
19706TIP3    H180533   3.965   5.903  16.360 -0.5624 -0.1221  0.6393
19706TIP3    H280534   3.930   5.828  16.486  1.1602 -0.7371  0.7806
19707TIP3   OH280535   2.387   2.112   5.547  0.1669 -0.4505 -0.3266
19707TIP3    H180536   2.343   2.031   5.576 -1.4573  0.3286 -0.4789
19707TIP3    H280537   2.315   2.174   5.536  1.3630  0.9223 -0.5350
19708TIP3   OH280538   1.021   5.744  12.455 -0.0914 -0.0565  0.4940
19708TIP3    H180539   1.071   5.810  12.503 -0.7880  0.4225  0.5760
19708TIP3    H280540   1.079   5.669  12.451  1.1026  0.8818 -0.4601
19709TIP3   OH280541   5.824   0.357  16.810 -0.2544  0.5473  0.0475
19709TIP3    H180542   5.751   0.350  16.872 -0.5233  2.3498 -0.0204
19709TIP3    H280543   5.782   0.370  16.725  0.1029 -2.2139 -0.6399
19710TIP3   OH280544   1.301   4.574  17.351 -0.1176  0.5447 -0.5259
19710TIP3    H180545   1.370   4.517  17.316  0.8025  0.4334  1.3494
19710TIP3    H280546   1.347   4.654  17.377 -0.2299 -0.2830  2.6234
19711TIP3   OH280547   2.242   6.237   1.284 -0.0478 -0.2269 -0.0560
19711TIP3    H180548   2.227   6.325   1.251  0.8927 -0.0467 -0.0229
19711TIP3    H280549   2.320   6.206   1.237  0.8457 -0.2655  1.3813
19712TIP3   OH280550   2.938   1.709  14.395  0.0778  0.4387  0.1686
19712TIP3    H180551   2.969   1.660  14.471 -2.3442  1.8323  2.2412
19712TIP3    H280552   2.905   1.642  14.335  2.6053 -0.7296 -0.0454
19713TIP3   OH280553   2.062   6.439  11.128  0.1460  0.2620 -0.3255
19713TIP3    H180554   2.149   6.423  11.093 -0.6597 -0.9817 -1.9388
19713TIP3    H280555   2.033   6.520  11.085 -0.4061 -0.6623 -1.7842
19714TIP3   OH280556   1.090   1.278  11.686 -0.1237 -0.7652 -0.1641
19714TIP3    H180557   1.048   1.230  11.615  2.8198 -0.8862 -1.9518
19714TIP3    H280558   1.143   1.345  11.642  0.8501 -0.0452  1.9756
19715TIP3   OH280559   4.953   2.701  12.448  0.1629 -0.3578  0.3523
19715TIP3    H180560   4.858   2.699  12.452 -0.1016  1.4377 -2.4140
19715TIP3    H280561   4.976   2.647  12.372  1.1092  1.2302 -0.5444
19716TIP3   OH280562   0.187   6.509  16.908  0.2083  0.2715  0.4028
19716TIP3    H180563   0.136   6.544  16.835  0.4428 -0.0177  0.0957
19716TIP3    H280564   0.277   6.504  16.875 -0.2230 -3.3950 -0.6744
19717TIP3   OH280565   4.368   2.609  15.249  0.0383 -0.5865 -0.5013
19717TIP3    H180566   4.316   2.616  15.169 -0.1026 -1.0052 -0.4501
19717TIP3    H280567   4.303   2.609  15.320  0.2291  1.4348 -0.2676
19718TIP3   OH280568   4.297   0.533   3.960  0.3423 -0.9652  0.0055
19718TIP3    H180569   4.207   0.507   3.940  0.5750 -0.6351 -1.6021
19718TIP3    H280570   4.322   0.592   3.889  1.7473 -0.8326  0.5636
19719TIP3   OH280571   2.318   0.699  13.991  0.2993  0.3429 -0.2133
19719TIP3    H180572   2.386   0.633  14.006  1.3708  1.4535 -0.0892
19719TIP3    H280573   2.303   0.696  13.896 -0.5658 -0.9206 -0.0686
19720TIP3   OH280574   4.586   3.674  12.130 -0.1572  0.2695 -0.5285
19720TIP3    H180575   4.502   3.650  12.169  0.6000 -0.6187  0.6063
19720TIP3    H280576   4.567   3.681  12.036 -1.4053 -0.2991 -0.3398
19721TIP3   OH280577   2.201   6.556  15.240 -0.1988  0.0340 -0.1020
19721TIP3    H180578   2.255   6.625  15.201 -1.7645  1.6881  0.5451
19721TIP3    H280579   2.263   6.485  15.259  1.3102  0.8840 -1.5911
19722TIP3   OH280580   2.169   3.325  12.561  0.1874 -0.3216  0.1844
19722TIP3    H180581   2.181   3.321  12.466 -1.1383  0.2109 -0.0307
19722TIP3    H280582   2.255   3.351  12.595  0.4015  0.5337 -0.9585
19723TIP3   OH280583   0.998   1.779   4.078  0.6474  0.2108 -0.0156
19723TIP3    H180584   1.003   1.875   4.082 -1.0492  0.4238 -1.5118
19723TIP3    H280585   1.031   1.757   3.991  0.3881 -0.4840  0.0526
19724TIP3   OH280586   4.367   3.218  15.094 -0.1603 -0.0408  0.2684
19724TIP3    H180587   4.276   3.248  15.091  0.4278  1.8913 -0.0015
19724TIP3    H280588   4.372   3.165  15.174 -1.3980  0.2765  0.5757
19725TIP3   OH280589   4.351   0.275   0.220  0.7211 -0.4137 -0.1179
19725TIP3    H180590   4.304   0.244   0.297  3.0394 -1.0032  1.1565
19725TIP3    H280591   4.433   0.311   0.254  0.8820  1.3679 -2.1320
19726TIP3   OH280592   2.935   6.136   1.210  0.3120  0.5663  0.2447
19726TIP3    H180593   2.997   6.117   1.280 -0.1622 -0.4798  0.3980
19726TIP3    H280594   2.850   6.111   1.245 -0.1773  1.6495 -0.0940
19727TIP3   OH280595   1.890   5.291  15.262  0.1448  0.4742  0.2586
19727TIP3    H180596   1.961   5.303  15.198  0.3675  0.7076  0.5437
19727TIP3    H280597   1.813   5.328  15.220  0.8500  3.2596  1.1896
19728TIP3   OH280598   1.178   3.872  16.274  0.1135  0.3000 -0.2873
19728TIP3    H180599   1.203   3.921  16.353 -0.0322 -0.1751  0.0541
19728TIP3    H280600   1.136   3.793  16.307  0.9343 -0.3806 -0.8186
19729TIP3   OH280601   2.097   3.773   5.512  0.5267  0.0476 -0.1162
19729TIP3    H180602   2.101   3.727   5.428  0.1647 -0.2639  0.0354
19729TIP3    H280603   2.169   3.737   5.563  0.1137 -0.5040  0.0791
19730TIP3   OH280604   2.705   0.666   1.335 -0.0626  0.4701 -0.0090
19730TIP3    H180605   2.666   0.752   1.355 -1.0825  0.3709 -1.4625
19730TIP3    H280606   2.723   0.669   1.241 -3.0089 -1.9685 -0.7981
19731TIP3   OH280607   1.548   5.734  14.952 -0.2845 -0.4787  0.3406
19731TIP3    H180608   1.452   5.734  14.950 -0.3322 -1.7316  1.2409
19731TIP3    H280609   1.574   5.661  14.896  0.0110 -1.9649  2.3106
19732TIP3   OH280610   3.698   5.038   4.592 -0.5905 -0.1852 -0.1564
19732TIP3    H180611   3.667   5.057   4.681 -0.8929  0.8799 -0.4642
19732TIP3    H280612   3.738   4.952   4.598  0.4982  0.3806  1.2940
19733TIP3   OH280613   6.161   0.379  11.706  0.0490  0.4316  0.1007
19733TIP3    H180614   6.092   0.368  11.641  0.6898  0.3695 -0.5810
19733TIP3    H280615   6.114   0.395  11.788 -0.7761 -0.0446 -0.2643
19734TIP3   OH280616   2.084   6.023   2.928 -0.5951 -0.2812 -0.4794
19734TIP3    H180617   2.123   6.055   2.847  0.9902 -0.1619  0.3019
19734TIP3    H280618   2.053   5.935   2.907  1.4628 -0.9791 -0.7460
19735TIP3   OH280619   4.129   4.185   5.239  0.1644  0.7731  0.0667
19735TIP3    H180620   4.168   4.219   5.158 -1.2856  1.7389 -0.2493
19735TIP3    H280621   4.036   4.206   5.232 -0.4835 -1.5780  0.7482
19736TIP3   OH280622   0.411   3.612  14.037  0.1547  0.2560  0.3287
19736TIP3    H180623   0.493   3.574  14.004 -0.1735 -0.0536 -0.1553
19736TIP3    H280624   0.435   3.654  14.119  0.7081 -0.2504  0.4344
19737TIP3   OH280625   3.621   4.248  13.347  0.8747  0.5615 -0.1738
19737TIP3    H180626   3.538   4.206  13.369  1.2282  0.5354  1.1548
19737TIP3    H280627   3.661   4.189  13.282  0.1375  0.2695 -0.3726
19738TIP3   OH280628   6.346   4.266  11.217  0.2057 -0.0825 -0.2600
19738TIP3    H180629   6.285   4.289  11.287  0.5685  1.4065 -0.3880
19738TIP3    H280630   6.427   4.242  11.263 -0.1052 -0.8925 -0.1263
19739TIP3   OH280631   1.430   4.907   3.716  0.3819 -0.6393 -0.3476
19739TIP3    H180632   1.430   4.940   3.806 -2.2468 -0.6386 -0.2725
19739TIP3    H280633   1.519   4.877   3.702  1.2407  0.6642  1.7622
19740TIP3   OH280634   6.729   3.781  14.423 -0.2854  0.0774  0.3422
19740TIP3    H180635   6.808   3.832  14.438 -0.5866  0.3462  1.0335
19740TIP3    H280636   6.702   3.805  14.334  0.5572 -0.2344 -0.0070
19741TIP3   OH280637   6.689   2.455   0.762 -0.2326 -0.5092 -0.5594
19741TIP3    H180638   6.651   2.517   0.824  0.5960 -0.5551  0.0034
19741TIP3    H280639   6.783   2.461   0.775 -0.1168 -1.6214 -0.7473
19742TIP3   OH280640   2.123   1.298   2.799  0.1952  0.0142  0.4696
19742TIP3    H180641   2.153   1.237   2.867 -0.8245 -1.3328 -0.2265
19742TIP3    H280642   2.182   1.283   2.726 -0.0049 -0.0943  0.3281
19743TIP3   OH280643   4.919   3.798   5.986  0.0703  0.3181 -0.0114
19743TIP3    H180644   4.951   3.709   5.999 -0.6601  0.0112 -0.2742
19743TIP3    H280645   4.990   3.854   6.019  0.4407 -0.3572  0.3590
19744TIP3   OH280646   1.519   4.001  14.462  0.2641 -0.5270  0.1478
19744TIP3    H180647   1.594   4.024  14.408  0.3140 -1.5953 -0.2596
19744TIP3    H280648   1.548   4.021  14.551  0.5761  0.2140 -0.1045
19745TIP3   OH280649   0.460   5.048   4.944 -0.2669  0.3562  0.0882
19745TIP3    H180650   0.544   5.094   4.948  0.9956 -1.2984 -3.4240
19745TIP3    H280651   0.396   5.117   4.925  0.7596  1.3040 -0.0347
19746TIP3   OH280652   0.360   3.707   5.523  0.5030  0.2209 -0.0859
19746TIP3    H180653   0.284   3.765   5.534  0.4961  0.3337 -0.6958
19746TIP3    H280654   0.335   3.626   5.569  0.1928  0.4195  0.0971
19747TIP3   OH280655   3.255   2.196   2.045  0.4659 -0.5380 -0.1389
19747TIP3    H180656   3.346   2.215   2.020  0.3447  0.8972  0.4059
19747TIP3    H280657   3.257   2.196   2.141 -0.0094 -1.0904 -0.1265
19748TIP3   OH280658   4.055   1.910   6.039 -0.0763  0.2080  0.3253
19748TIP3    H180659   3.977   1.854   6.037  0.3317 -0.4339  1.3763
19748TIP3    H280660   4.079   1.914   6.132  0.3893  1.4617  0.1655
19749TIP3   OH280661   1.740   0.847  16.557  0.1146  0.0668  0.2435
19749TIP3    H180662   1.684   0.852  16.634 -1.3159  0.3889 -0.7726
19749TIP3    H280663   1.792   0.768  16.570 -1.6663 -1.1197  0.5536
19750TIP3   OH280664   5.735   3.037   6.147  0.1847 -0.2576 -0.3993
19750TIP3    H180665   5.663   2.995   6.194  0.4114 -0.7834 -0.5216
19750TIP3    H280666   5.694   3.074   6.069 -0.0701  0.0206 -0.1354
19751TIP3   OH280667   1.748   6.596  15.907  0.3503 -0.1434  0.0485
19751TIP3    H180668   1.653   6.594  15.896  0.1923  0.7924  1.0405
19751TIP3    H280669   1.773   6.505  15.922 -0.3920 -0.3909 -0.1891
19752TIP3   OH280670   1.699   5.933   4.687 -0.4136 -0.5097  0.6523
19752TIP3    H180671   1.682   5.860   4.627 -1.6059 -0.2790  0.6897
19752TIP3    H280672   1.613   5.966   4.710  0.0966  0.7961  0.7919
19753TIP3   OH280673   6.101   5.695   2.579  0.3072  0.1252  0.1597
19753TIP3    H180674   6.090   5.768   2.641  0.9525 -0.6073  1.1666
19753TIP3    H280675   6.017   5.689   2.535  0.4217  1.8826 -0.4064
19754TIP3   OH280676   1.263   4.963   3.372  0.3322 -0.1877  0.1168
19754TIP3    H180677   1.217   4.881   3.393  0.5644 -0.9126 -1.9714
19754TIP3    H280678   1.197   5.031   3.383 -0.5960 -0.9546 -0.5200
19755TIP3   OH280679   1.891   0.691  14.371 -0.0129  0.3910 -0.1066
19755TIP3    H180680   1.848   0.621  14.421  0.8327  2.1006  3.2976
19755TIP3    H280681   1.957   0.646  14.319 -0.1429 -1.4489  1.2220
19756TIP3   OH280682   0.999   3.542  12.822 -0.0100  0.0264 -0.1110
19756TIP3    H180683   1.024   3.459  12.864 -1.3015  0.4359  1.5961
19756TIP3    H280684   1.069   3.559  12.760  2.2750 -0.5173  2.1208
19757TIP3   OH280685   1.605   2.488  13.906  0.1598  0.3208  0.2922
19757TIP3    H180686   1.608   2.573  13.950 -0.9320  1.3655 -1.5242
19757TIP3    H280687   1.530   2.494  13.847  0.9281 -1.3711 -0.9465
19758TIP3   OH280688   5.700   6.482  14.279 -0.1573  0.2106 -0.2659
19758TIP3    H180689   5.645   6.426  14.333  0.2995  0.7077  0.7348
19758TIP3    H280690   5.777   6.429  14.260  0.6299  0.7378  1.3298
19759TIP3   OH280691   6.251   1.429   2.170  0.0430 -0.0833 -0.0283
19759TIP3    H180692   6.277   1.404   2.081 -1.7017  1.0256 -0.9216
19759TIP3    H280693   6.169   1.477   2.157 -1.4382 -1.7837  2.3827
19760TIP3   OH280694   6.680   0.809  13.725 -0.4540 -0.2204 -0.4504
19760TIP3    H180695   6.620   0.792  13.798  0.7673 -1.0455  0.4151
19760TIP3    H280696   6.709   0.722  13.698  1.0888  0.1849 -0.1905
19761TIP3   OH280697   6.595   5.311   1.058  0.3806 -0.4279 -0.0712
19761TIP3    H180698   6.645   5.383   1.095 -1.3135  0.0234  1.4325
19761TIP3    H280699   6.503   5.338   1.065 -0.2172 -2.1160 -0.7930
19762TIP3   OH280700   2.003   3.022  16.166  0.2099  0.3434  0.0431
19762TIP3    H180701   2.084   3.058  16.130  0.8435  1.3557  2.3177
19762TIP3    H280702   2.030   2.973  16.243 -1.3423  0.7895  0.9172
19763TIP3   OH280703   1.408   1.563   1.318  0.2136 -0.1579 -0.1868
19763TIP3    H180704   1.416   1.562   1.223  1.2871  0.4395 -0.1284
19763TIP3    H280705   1.372   1.477   1.341 -0.7888 -0.0081 -1.1746
19764TIP3   OH280706   4.912   4.863  12.103  0.0974 -0.0003  0.4102
19764TIP3    H180707   4.854   4.922  12.152 -0.7343  0.6172 -1.2474
19764TIP3    H280708   4.898   4.777  12.143 -0.4114  0.5027  1.3626
19765TIP3   OH280709   6.679   1.512   2.049 -0.0061  0.2229  0.5276
19765TIP3    H180710   6.750   1.568   2.082  0.0345 -0.0207  0.8612
19765TIP3    H280711   6.622   1.499   2.124 -0.6561  0.7877  0.1435
19766TIP3   OH280712   3.573   0.097   3.511 -0.2374 -0.3346  0.2764
19766TIP3    H180713   3.654   0.054   3.539  0.7767  0.2400 -1.5582
19766TIP3    H280714   3.506   0.029   3.516  0.4191 -0.9404  1.4273
19767TIP3   OH280715   2.009   5.813  11.764  0.1586 -0.0379  0.1151
19767TIP3    H180716   2.057   5.790  11.685 -1.0913  0.9920 -0.9860
19767TIP3    H280717   1.949   5.740  11.779 -1.5051  0.9176 -1.4971
19768TIP3   OH280718   3.852   4.845  12.250 -0.1009  0.0524 -0.4655
19768TIP3    H180719   3.942   4.864  12.226 -0.1894  1.8374  0.4811
19768TIP3    H280720   3.801   4.918  12.215 -0.8110  0.4076  1.1936
19769TIP3   OH280721   0.025   6.353  13.316 -0.1434  0.3098  0.4038
19769TIP3    H180722  -0.041   6.423  13.311  0.4530  0.8909  0.5197
19769TIP3    H280723  -0.025   6.274  13.337 -0.9427  0.5309 -0.5552
19770TIP3   OH280724   2.151   0.530   3.201  0.6311 -0.1265 -0.6439
19770TIP3    H180725   2.191   0.459   3.252 -1.0940 -2.5337 -2.4119
19770TIP3    H280726   2.199   0.529   3.118 -1.4900 -1.5853 -1.9466
19771TIP3   OH280727   5.536   3.710  17.337  0.5203 -0.1932 -0.3319
19771TIP3    H180728   5.448   3.675  17.324  0.1799  0.4663  0.1239
19771TIP3    H280729   5.579   3.649  17.396  0.4856 -0.6971 -0.8227
19772TIP3   OH280730   1.527   4.235   1.956  0.2493 -0.1587 -0.1024
19772TIP3    H180731   1.516   4.155   1.905 -0.6921  0.5937 -1.1321
19772TIP3    H280732   1.448   4.240   2.010  0.2918  0.0980 -0.0649
19773TIP3   OH280733   4.889   2.662  15.800 -0.8178 -0.3173  0.3005
19773TIP3    H180734   4.916   2.615  15.879  0.8650  0.8657  0.4878
19773TIP3    H280735   4.858   2.747  15.832 -0.4029  0.0594 -0.2684
19774TIP3   OH280736   2.085   1.348   3.763  0.1026 -0.2805 -0.4045
19774TIP3    H180737   2.010   1.288   3.770  0.1805 -0.2631  0.7629
19774TIP3    H280738   2.137   1.313   3.690 -0.8201 -0.5350 -0.9561
19775TIP3   OH280739   1.535   3.205  11.487  0.3606  0.2499  0.2778
19775TIP3    H180740   1.441   3.194  11.498  0.5553 -1.8594  0.2334
19775TIP3    H280741   1.545   3.231  11.395 -0.0804 -1.8489 -0.4126
19776TIP3   OH280742   5.906   2.509  13.858 -0.5904 -0.3207 -0.2714
19776TIP3    H180743   5.913   2.452  13.782  1.1056 -0.0784 -0.3407
19776TIP3    H280744   5.972   2.475  13.920 -2.6771 -1.2150  1.5907
19777TIP3   OH280745   5.318   4.087  15.608 -0.1651 -0.1179  0.1287
19777TIP3    H180746   5.289   4.096  15.698 -0.9739 -1.4071  0.0118
19777TIP3    H280747   5.413   4.103  15.611  0.0971 -1.6963  1.4696
19778TIP3   OH280748   6.091   3.956  15.873  0.5986  0.3880  0.0804
19778TIP3    H180749   6.146   3.908  15.936  1.5603  1.7531  0.3274
19778TIP3    H280750   6.080   3.894  15.801  2.0917 -0.1111  0.2321
19779TIP3   OH280751   6.059   4.789   1.435 -0.6549  0.3642 -0.2731
19779TIP3    H180752   5.970   4.812   1.408 -0.6818 -1.5435 -2.0478
19779TIP3    H280753   6.115   4.835   1.373 -0.1494  3.1668  1.9917
19780TIP3   OH280754   4.024   6.175   0.704 -0.1381 -0.1522 -0.1754
19780TIP3    H180755   4.010   6.231   0.781 -1.3626  2.1921 -1.9804
19780TIP3    H280756   4.112   6.197   0.674  0.0225 -0.4557  0.0666
19781TIP3   OH280757   4.691   5.709   2.716 -0.3542 -0.1438 -0.5881
19781TIP3    H180758   4.695   5.753   2.802  0.0430  0.7298 -1.0396
19781TIP3    H280759   4.639   5.630   2.732 -0.1910 -0.0528  0.4853
19782TIP3   OH280760   6.500   6.078   1.602  0.1865 -0.2523 -0.0589
19782TIP3    H180761   6.576   6.094   1.657  0.4732 -1.7532  0.0222
19782TIP3    H280762   6.446   6.017   1.653  0.5195 -1.7746 -1.4419
19783TIP3   OH280763   0.277   6.386   6.580  0.1511 -0.0399  0.8103
19783TIP3    H180764   0.218   6.320   6.617 -1.2908 -0.2149 -1.6351
19783TIP3    H280765   0.219   6.452   6.542  1.3892 -0.7281 -2.6049
19784TIP3   OH280766   4.921   2.349  14.996  0.2190  0.8763  0.3675
19784TIP3    H180767   4.909   2.421  14.935 -0.5225  1.9464  1.7035
19784TIP3    H280768   4.870   2.277  14.959  0.6684  1.1418 -0.8019
19785TIP3   OH280769   3.273   0.445   0.074 -0.2538  0.5162  0.4221
19785TIP3    H180770   3.236   0.454   0.162  0.3468  0.0023  0.7290
19785TIP3    H280771   3.226   0.371   0.036 -1.5913  1.6628 -0.2627
19786TIP3   OH280772   4.942   6.151   0.339  0.5504  0.5175  0.1895
19786TIP3    H180773   4.978   6.240   0.339 -0.3892  1.0104  3.1275
19786TIP3    H280774   4.914   6.137   0.429  1.8764 -3.3038  0.1803
19787TIP3   OH280775   3.229   3.618   4.803 -0.1549  0.0667 -0.4605
19787TIP3    H180776   3.318   3.599   4.834 -0.1108 -0.7370 -1.0314
19787TIP3    H280777   3.209   3.705   4.837  0.5593 -0.0633  0.3173
19788TIP3   OH280778   0.158   3.874  12.305  0.1871  0.5250  0.8466
19788TIP3    H180779   0.153   3.835  12.217  1.3130  0.4203  0.8233
19788TIP3    H280780   0.099   3.949  12.300 -0.5580 -0.0804  0.3203
19789TIP3   OH280781   5.140   5.032   1.795 -0.6919  0.1128  0.3568
19789TIP3    H180782   5.119   4.940   1.786 -1.2907  0.1979  0.7680
19789TIP3    H280783   5.155   5.063   1.706 -1.5741 -0.1404  0.1099
19790TIP3   OH280784   3.737   2.812   3.552  0.0799 -0.6552  0.4628
19790TIP3    H180785   3.830   2.818   3.573  0.9896  0.7480 -3.1388
19790TIP3    H280786   3.715   2.720   3.567  2.0395 -1.0333  1.3572
19791TIP3   OH280787   5.918   6.026  13.569 -0.1667 -0.1920  0.6962
19791TIP3    H180788   5.946   5.935  13.558 -1.3548 -0.4788 -0.1779
19791TIP3    H280789   5.942   6.048  13.659  2.8653 -0.3550  0.0502
19792TIP3   OH280790   4.279   2.684   5.754 -0.5425 -0.1025 -0.0679
19792TIP3    H180791   4.234   2.764   5.779 -0.7534 -0.3852  0.5017
19792TIP3    H280792   4.285   2.634   5.836  2.5694  0.7500  0.3658
19793TIP3   OH280793   5.066   0.445   5.055 -0.0014 -0.2159  0.6274
19793TIP3    H180794   5.040   0.486   5.138 -1.1470  0.4519 -0.0542
19793TIP3    H280795   5.161   0.456   5.053 -0.2147  2.0842  0.6536
19794TIP3   OH280796   1.472   6.451  16.270  0.3840 -0.2956 -0.1025
19794TIP3    H180797   1.554   6.419  16.306  0.6795 -0.0434 -0.5416
19794TIP3    H280798   1.496   6.491  16.186  0.2026  1.8608  0.7960
19795TIP3   OH280799   3.081   3.907  14.204 -0.6366 -0.0852 -0.4051
19795TIP3    H180800   3.151   3.862  14.250 -0.1436 -0.6536 -1.6498
19795TIP3    H280801   3.024   3.942  14.273 -0.2721 -1.4242  0.6064
19796TIP3   OH280802   2.314   0.323  16.986  0.2849 -0.3285 -0.1881
19796TIP3    H180803   2.246   0.320  17.052  1.1530  0.0789  0.7524
19796TIP3    H280804   2.374   0.391  17.016  1.7093 -1.4459 -0.4014
19797TIP3   OH280805   3.523   3.583   5.650  0.0986  0.7255 -0.6417
19797TIP3    H180806   3.468   3.512   5.683  0.3446 -0.0155 -1.7787
19797TIP3    H280807   3.573   3.612   5.726 -1.0994  0.7150  0.1828
19798TIP3   OH280808   3.218   2.332  12.382  0.4575 -0.1597  0.1124
19798TIP3    H180809   3.235   2.422  12.410 -0.3270  0.4860 -1.3310
19798TIP3    H280810   3.292   2.309  12.327 -0.0406  0.1745 -0.7216
19799TIP3   OH280811   2.906   0.262   2.651 -0.5296 -0.4634 -0.0143
19799TIP3    H180812   2.943   0.335   2.700  1.0587 -0.3413 -1.2867
19799TIP3    H280813   2.872   0.302   2.571 -1.3166 -0.8944  0.0954
19800TIP3   OH280814   5.702   1.501   5.048 -0.4893 -0.3475  0.3187
19800TIP3    H180815   5.740   1.585   5.023  1.7009 -0.5098  2.5924
19800TIP3    H280816   5.631   1.524   5.109 -0.0436 -0.1104  0.7604
19801TIP3   OH280817   1.995   1.345  12.727  0.4794 -0.5645  0.2988
19801TIP3    H180818   1.960   1.313  12.810  0.4685  0.4518  0.7060
19801TIP3    H280819   1.969   1.437  12.724  3.1185  0.2966  0.6755
19802TIP3   OH280820   1.168   6.214  11.239  0.4593  0.8771 -0.4826
19802TIP3    H180821   1.141   6.301  11.211 -0.0597  0.5986 -0.8537
19802TIP3    H280822   1.256   6.203  11.204 -0.1747  0.5321 -2.0300
19803TIP3   OH280823   3.355   3.535   5.338  0.3421  0.3245 -0.7499
19803TIP3    H180824   3.392   3.455   5.374 -1.1644 -0.0558  0.0216
19803TIP3    H280825   3.430   3.580   5.299  1.8845  0.2215  1.8420
19804TIP3   OH280826   1.185   1.721  11.320 -0.1620  0.1908  0.3303
19804TIP3    H180827   1.108   1.727  11.263  1.4047  1.2240 -1.7715
19804TIP3    H280828   1.243   1.791  11.291  1.3366 -0.1563  2.2811
19805TIP3   OH280829   1.234   3.309   5.364  0.6388 -0.1552 -0.3388
19805TIP3    H180830   1.255   3.302   5.457  1.2221  0.0789 -0.4421
19805TIP3    H280831   1.173   3.383   5.358  2.3489  1.3474 -0.3652
19806TIP3   OH280832   1.760   2.419  15.654 -0.0231  0.2403 -0.2585
19806TIP3    H180833   1.847   2.389  15.683 -0.1283  0.9427  0.8715
19806TIP3    H280834   1.764   2.416  15.559  0.5078 -1.7667 -0.2260
19807TIP3   OH280835   0.458   0.844  12.299  0.0751  0.3205  0.4009
19807TIP3    H180836   0.395   0.800  12.242  1.6830 -1.3876 -0.1452
19807TIP3    H280837   0.449   0.937  12.277 -0.0454 -0.1888 -1.9532
19808TIP3   OH280838   0.564   1.071  15.191 -0.4965  0.5649  0.4610
19808TIP3    H180839   0.618   1.106  15.121  0.5137 -0.1202  0.8691
19808TIP3    H280840   0.563   1.140  15.257 -2.0515  1.5081 -0.4932
19809TIP3   OH280841   6.394   0.680  12.442  0.2897 -0.1625  0.0904
19809TIP3    H180842   6.380   0.726  12.525 -1.8851 -0.0911 -0.2454
19809TIP3    H280843   6.387   0.748  12.375  0.2811 -0.4888 -0.2455
19810TIP3   OH280844   0.498   1.779   6.679  0.1244 -0.6611 -0.2767
19810TIP3    H180845   0.464   1.692   6.660 -0.1166 -1.0802  1.8404
19810TIP3    H280846   0.421   1.835   6.679  0.0643 -0.7417 -0.1418
19811TIP3   OH280847   6.523   4.823   4.787 -0.3320  0.1669  0.0221
19811TIP3    H180848   6.510   4.907   4.831  0.3943 -0.0177  0.6090
19811TIP3    H280849   6.553   4.764   4.856  1.6204  0.0811 -0.8368
19812TIP3   OH280850   1.469   5.929  11.221  0.1913  0.3651 -0.4649
19812TIP3    H180851   1.448   5.912  11.129 -0.0601  0.9333 -0.5125
19812TIP3    H280852   1.461   6.023  11.231 -1.0181  0.1845  0.4398
19813TIP3   OH280853   5.241   6.203   4.595 -0.6134  0.0056 -0.1576
19813TIP3    H180854   5.299   6.143   4.548 -0.0744 -0.2379  0.7824
19813TIP3    H280855   5.153   6.182   4.564 -0.4189 -1.2106  0.0890
19814TIP3   OH280856   1.428   3.723   4.645  0.1058  0.0675  0.6300
19814TIP3    H180857   1.488   3.781   4.599  0.1664  1.2817  2.1635
19814TIP3    H280858   1.368   3.692   4.577  1.4621  0.0935 -0.6321
19815TIP3   OH280859   3.408   6.402   2.643  0.0296  0.2499  0.1285
19815TIP3    H180860   3.317   6.376   2.659 -0.3177  1.7140  0.6321
19815TIP3    H280861   3.427   6.369   2.555 -1.4362  1.0789 -0.5378
19816TIP3   OH280862   3.004   6.500   2.397  0.4017  0.2539 -0.1388
19816TIP3    H180863   3.027   6.590   2.420 -0.6414  0.4453  0.2321
19816TIP3    H280864   3.039   6.487   2.309  0.9156  0.8843 -0.0283
19817TIP3   OH280865   6.329   1.192  14.962 -0.4034  0.2632  0.5289
19817TIP3    H180866   6.287   1.163  15.043 -1.8306 -0.7948 -0.5244
19817TIP3    H280867   6.256   1.214  14.904  0.5695  0.4904 -0.6424
19818TIP3   OH280868   4.087   4.015   5.903 -0.1604  0.2416 -0.2683
19818TIP3    H180869   4.086   3.920   5.894 -1.4260 -0.0356  2.0481
19818TIP3    H280870   4.180   4.039   5.898  0.0967 -0.9363 -1.9975
19819TIP3   OH280871   5.816   0.599   1.573 -0.5531 -0.2608  0.5394
19819TIP3    H180872   5.814   0.638   1.661 -1.8138 -1.1197  0.9256
19819TIP3    H280873   5.736   0.631   1.531 -0.0091  0.0625 -0.2729
19820TIP3   OH280874   3.420   0.666   5.697  0.1138  0.1347  0.5251
19820TIP3    H180875   3.372   0.623   5.768  1.0968  0.4312  1.4003
19820TIP3    H280876   3.498   0.612   5.684  0.8232  1.0332  0.9052
19821TIP3   OH280877   2.691   5.835  12.407  0.2697  0.1663  0.1293
19821TIP3    H180878   2.624   5.836  12.339 -0.2429 -0.2987  0.6262
19821TIP3    H280879   2.698   5.744  12.434 -0.0303  0.4380  1.1827
19822TIP3   OH280880   3.852   5.541   1.782  0.2403  0.7070  0.2356
19822TIP3    H180881   3.924   5.480   1.802 -0.7148 -0.1513  1.2008
19822TIP3    H280882   3.781   5.512   1.839 -1.2662  0.8206 -1.5363
19823TIP3   OH280883   3.445   2.967  10.750 -0.0140 -0.1454  0.0570
19823TIP3    H180884   3.520   2.934  10.701 -0.2637  0.0433 -0.4635
19823TIP3    H280885   3.483   3.006  10.829  0.6750  1.8393 -1.1685
19824TIP3   OH280886   6.182   3.311  16.574  0.1104 -0.0313  0.0714
19824TIP3    H180887   6.119   3.334  16.641  1.9903 -0.2724  2.0191
19824TIP3    H280888   6.236   3.243  16.614  2.2519  0.8742 -1.0996
19825TIP3   OH280889   6.414   6.749   3.843 -0.2030 -0.4609 -0.5071
19825TIP3    H180890   6.381   6.682   3.783 -2.8665  1.9687 -2.0080
19825TIP3    H280891   6.506   6.762   3.817  0.9855 -4.5244  0.9810
19826TIP3   OH280892   0.705   3.518  11.119  0.7295 -0.5799  0.0015
19826TIP3    H180893   0.687   3.559  11.035  1.2971 -0.9195 -0.2911
19826TIP3    H280894   0.619   3.488  11.150  0.3735  0.4117  0.0149
19827TIP3   OH280895   2.093   6.526   5.193 -0.1006  0.2115 -0.0093
19827TIP3    H180896   2.118   6.435   5.212 -0.6543 -0.1741 -1.0496
19827TIP3    H280897   2.113   6.537   5.100  1.7019  1.7516  0.4874
19828TIP3   OH280898   0.553   3.480   1.642  0.5340 -0.0693 -0.7476
19828TIP3    H180899   0.603   3.560   1.658 -0.4546  0.4662 -0.2393
19828TIP3    H280900   0.475   3.490   1.697  0.4726 -1.4518 -0.5680
19829TIP3   OH280901   4.650   2.122   3.935 -0.0980 -0.1420 -0.3764
19829TIP3    H180902   4.685   2.194   3.883 -2.1627  0.4924 -0.9597
19829TIP3    H280903   4.728   2.079   3.972  1.2611  1.1804 -1.5876
19830TIP3   OH280904   2.255   5.716  14.526  0.3210  0.2346 -0.0584
19830TIP3    H180905   2.216   5.677  14.604 -0.8231 -0.5858 -1.0045
19830TIP3    H280906   2.182   5.730  14.467  0.9743  2.0684 -0.5147
19831TIP3   OH280907   4.908   1.196   3.282 -0.9146  0.6397  0.6947
19831TIP3    H180908   4.845   1.123   3.278 -1.4074  1.0907  0.0022
19831TIP3    H280909   4.920   1.212   3.376 -2.0938  0.7620  0.8431
19832TIP3   OH280910   4.309   2.984  17.154 -0.2012 -0.3501 -0.5621
19832TIP3    H180911   4.372   2.912  17.148  1.4713  0.6798  2.4186
19832TIP3    H280912   4.243   2.953  17.215 -1.4592 -0.6014 -2.0017
19833TIP3   OH280913   3.750   2.637  11.637  0.3795 -0.4576  0.5406
19833TIP3    H180914   3.664   2.655  11.675  0.2346  2.2632 -0.7878
19833TIP3    H280915   3.737   2.557  11.586 -1.8271  0.6452 -0.7904
19834TIP3   OH280916   5.486   3.668  12.727  0.1969 -0.4802 -0.1826
19834TIP3    H180917   5.552   3.737  12.730  0.4546 -0.7508  0.7113
19834TIP3    H280918   5.476   3.641  12.818 -0.8340 -0.7450 -0.3641
19835TIP3   OH280919   2.979   0.010  12.321  0.5864 -0.8017  0.6150
19835TIP3    H180920   2.925   0.048  12.390 -0.7961  0.7417 -1.2201
19835TIP3    H280921   3.063   0.054  12.329  0.3347 -0.4022  1.1072
19836TIP3   OH280922   3.268   3.560  13.912  0.3733  0.3213  0.5843
19836TIP3    H180923   3.179   3.593  13.930  0.4886  1.3225 -0.5824
19836TIP3    H280924   3.308   3.551  13.999  0.3381  3.3377  1.0140
19837TIP3   OH280925   4.176   1.123  15.426 -0.8203 -0.0259 -0.2084
19837TIP3    H180926   4.263   1.101  15.393 -0.9803 -0.4460 -0.3518
19837TIP3    H280927   4.164   1.215  15.403 -0.5658 -0.0708 -0.5224
19838TIP3   OH280928   3.028   4.015  17.385 -0.3782  0.1745 -0.6678
19838TIP3    H180929   3.047   4.079  17.317 -0.1962  0.5397 -0.2749
19838TIP3    H280930   3.075   4.046  17.462 -3.4219  1.7946  0.7244
19839TIP3   OH280931   0.816   3.356  14.705  0.4232 -0.1907 -0.1502
19839TIP3    H180932   0.840   3.444  14.677 -0.4043  0.6784  1.6966
19839TIP3    H280933   0.788   3.311  14.625  0.4152  1.3661 -1.0498
19840TIP3   OH280934   5.968   5.797  16.245  0.4349 -0.2957 -0.3710
19840TIP3    H180935   5.985   5.889  16.226 -1.8003  0.2320 -0.0393
19840TIP3    H280936   6.014   5.749  16.176  1.6813  1.0332 -0.5062
19841TIP3   OH280937   0.200   4.562   5.957  0.2785 -0.0586  0.0595
19841TIP3    H180938   0.138   4.494   5.933  0.8607 -1.0466  1.2798
19841TIP3    H280939   0.208   4.616   5.878 -2.2105  0.2004 -0.1003
19842TIP3   OH280940   3.612   4.256  16.055 -0.0830 -0.0174  0.0173
19842TIP3    H180941   3.550   4.183  16.045 -1.4025  1.0741 -0.1624
19842TIP3    H280942   3.591   4.294  16.140 -1.4223  1.8810 -1.0850
19843TIP3   OH280943   0.916   0.786  14.272  0.3512 -0.3115 -0.2666
19843TIP3    H180944   0.912   0.717  14.339 -0.9051  1.6339  1.7997
19843TIP3    H280945   1.007   0.817  14.276  0.4029 -0.5095  0.2325
19844TIP3   OH280946   0.548   0.901   5.745  0.4842  0.3427  0.4243
19844TIP3    H180947   0.537   0.917   5.839  0.5331 -0.4620  0.5768
19844TIP3    H280948   0.516   0.812   5.732 -0.1921  0.6948 -0.4571
19845TIP3   OH280949   3.347   2.408   4.244 -0.0972 -0.1165  0.1680
19845TIP3    H180950   3.287   2.470   4.202 -1.7294 -1.3576  0.5834
19845TIP3    H280951   3.385   2.358   4.171  0.3461  0.5847 -0.0894
19846TIP3   OH280952   2.938   0.927   0.085  0.2686  0.0585 -0.5986
19846TIP3    H180953   2.866   0.949   0.144  0.3705  1.2210 -0.8828
19846TIP3    H280954   2.895   0.888   0.009  0.1030 -1.0088  0.0190
19847TIP3   OH280955   4.141   3.342   2.475  0.0911 -0.0908 -0.3979
19847TIP3    H180956   4.095   3.395   2.409  0.6886  0.3045 -0.5042
19847TIP3    H280957   4.226   3.323   2.436  1.1773  1.6790  0.9359
19848TIP3   OH280958   0.672   2.149   4.236 -0.5644  0.3894  0.3625
19848TIP3    H180959   0.683   2.227   4.182 -0.6205  0.1887  0.0599
19848TIP3    H280960   0.662   2.183   4.325  1.1883  0.6564  0.4958
19849TIP3   OH280961   2.517   6.028  13.214 -0.1070  0.2443 -0.8319
19849TIP3    H180962   2.558   5.963  13.156  0.7121  0.7106 -0.7907
19849TIP3    H280963   2.587   6.052  13.275  0.1146  2.3738 -1.8504
19850TIP3   OH280964   4.554   3.464   2.482  0.6660  0.1485  0.1329
19850TIP3    H180965   4.611   3.508   2.545 -0.0930  0.9735  0.2559
19850TIP3    H280966   4.609   3.395   2.444  1.6572  0.7548  0.4348
19851TIP3   OH280967   3.672   1.170  13.061  0.3699  0.0728  0.5831
19851TIP3    H180968   3.583   1.198  13.037  0.3582 -0.1211  0.4017
19851TIP3    H280969   3.662   1.081  13.092  0.7407 -0.5984 -1.1009
19852TIP3   OH280970   3.248   5.255   5.942  0.4721 -0.1101  0.1516
19852TIP3    H180971   3.292   5.175   5.970  0.1037 -0.3826 -0.0310
19852TIP3    H280972   3.289   5.325   5.992  1.5581 -0.2736 -0.4863
19853TIP3   OH280973   4.035   5.309  12.068 -0.2799 -0.0376 -0.1919
19853TIP3    H180974   3.999   5.398  12.072  0.4400  0.2159  0.7713
19853TIP3    H280975   4.033   5.278  12.158  1.7625 -0.0672 -0.1250
19854TIP3   OH280976   1.646   2.811   4.880 -0.5865  0.0958 -0.3393
19854TIP3    H180977   1.579   2.843   4.941  1.6566 -0.4969  2.6234
19854TIP3    H280978   1.712   2.880   4.879  1.1905 -1.5029  0.9729
19855TIP3   OH280979   6.189   2.792   0.825 -0.1025 -0.3090 -0.4756
19855TIP3    H180980   6.146   2.711   0.798  0.6063 -0.6255 -0.6748
19855TIP3    H280981   6.155   2.858   0.765 -2.3534  0.0185  1.0256
19856TIP3   OH280982   5.313   3.587  16.959  0.1881  0.2911  0.5759
19856TIP3    H180983   5.327   3.506  17.009 -0.7253 -0.5978 -0.5554
19856TIP3    H280984   5.273   3.646  17.022 -0.9418 -0.8075  0.9407
19857TIP3   OH280985   5.765   6.030  12.026 -0.1232 -0.1903 -0.4961
19857TIP3    H180986   5.824   5.967  11.986 -1.8161 -0.8148 -2.1681
19857TIP3    H280987   5.725   6.076  11.952 -1.8281  0.0933  0.5478
19858TIP3   OH280988   2.965   3.372  15.347 -0.0357 -0.2173 -0.2469
19858TIP3    H180989   3.039   3.348  15.291  0.9224  0.5677  0.6399
19858TIP3    H280990   2.952   3.295  15.403  2.3704  0.7985  1.9027
19859TIP3   OH280991   6.587   4.126  11.907 -0.1239  0.2647 -0.7693
19859TIP3    H180992   6.673   4.086  11.923 -0.7693 -1.2850 -1.0696
19859TIP3    H280993   6.596   4.215  11.942  0.4105 -1.0485  2.8999
19860TIP3   OH280994   3.243   4.338  14.935 -0.0615  0.0815  0.7431
19860TIP3    H180995   3.307   4.321  14.866  1.8775  0.7693  2.2748
19860TIP3    H280996   3.161   4.300  14.902  0.9640 -0.2979 -1.5556
19861TIP3   OH280997   4.837   0.066   3.623 -0.0367 -0.3541 -0.4863
19861TIP3    H180998   4.921   0.103   3.647  0.0494 -1.0202  0.2822
19861TIP3    H280999   4.857  -0.024   3.598 -0.6819 -0.9791  1.1043
19862TIP3   OH281000   4.661   3.626  15.073 -0.0673  0.3992  0.1505
19862TIP3    H181001   4.666   3.556  15.138  2.7913  0.5838  0.2870
19862TIP3    H281002   4.618   3.698  15.118 -2.3497 -0.9540  0.2607
19863TIP3   OH281003   4.401   3.480  16.150 -0.5516  0.0482  0.5213
19863TIP3    H181004   4.454   3.467  16.071 -0.1168  1.2764  0.5895
19863TIP3    H281005   4.446   3.428  16.217 -0.7358 -0.7340  0.0521
19864TIP3   OH281006   2.741   5.478   4.277 -0.6769  0.1155 -0.2557
19864TIP3    H181007   2.666   5.536   4.268 -1.3054 -0.4552  1.0780
19864TIP3    H281008   2.711   5.394   4.242 -0.4979  0.0044 -0.1436
19865TIP3   OH281009   2.403   1.151  14.963  0.9316 -0.0651 -0.8745
19865TIP3    H181010   2.449   1.108  14.891  0.2869  0.8102 -1.8417
19865TIP3    H281011   2.435   1.242  14.961 -0.0427  0.2928 -0.9005
19866TIP3   OH281012   6.303   3.267   2.872 -0.1301 -0.2367 -0.1002
19866TIP3    H181013   6.207   3.268   2.870 -0.1583 -1.9261 -0.9102
19866TIP3    H281014   6.329   3.302   2.787  0.1096  3.4529  1.3041
19867TIP3   OH281015   1.337   5.180   0.098 -0.2613  0.1965 -0.2496
19867TIP3    H181016   1.266   5.127   0.134  0.0920  0.3773  0.7404
19867TIP3    H281017   1.407   5.175   0.164 -0.2044  1.8484 -0.1397
19868TIP3   OH281018   3.444   5.612  15.332 -0.1677 -0.8318 -0.2337
19868TIP3    H181019   3.501   5.659  15.271  0.7291 -0.1396  1.0884
19868TIP3    H281020   3.494   5.534  15.356  0.0874 -0.4155  0.6351
19869TIP3   OH281021   3.509   2.187   0.482 -0.3608  0.1418 -0.2272
19869TIP3    H181022   3.484   2.110   0.431  0.3641 -0.9377  0.9796
19869TIP3    H281023   3.542   2.250   0.418 -0.7618 -0.6301 -1.2053
19870TIP3   OH281024   2.123   4.195  15.250 -0.1165  0.2044  0.1350
19870TIP3    H181025   2.069   4.170  15.326 -1.4356 -0.7940 -1.0559
19870TIP3    H281026   2.137   4.289  15.260 -0.2726  0.0958  1.6029
19871TIP3   OH281027   6.091   3.431   5.985  0.1400 -0.5321 -0.3099
19871TIP3    H181028   6.008   3.418   5.940 -0.3406  1.3197 -0.0245
19871TIP3    H281029   6.066   3.457   6.074  1.0567 -1.8660  0.3760
19872TIP3   OH281030   3.503   0.431   4.471  0.0969 -0.0203 -0.0047
19872TIP3    H181031   3.489   0.448   4.378 -1.5855 -2.6412 -0.3391
19872TIP3    H281032   3.417   0.404   4.504  0.9854 -0.7062  1.9241
19873TIP3   OH281033   1.802   4.237  12.709  0.2665  0.4099 -0.0984
19873TIP3    H181034   1.828   4.311  12.654 -1.3139 -0.6474 -2.3993
19873TIP3    H281035   1.848   4.162  12.672 -0.1369 -0.1842  0.5752
19874TIP3   OH281036   3.291   3.064  16.220  0.1979 -0.2197 -0.3161
19874TIP3    H181037   3.345   3.080  16.298 -0.8795 -1.4332  0.7253
19874TIP3    H281038   3.303   3.142  16.166  0.0607  1.1910  1.5922
19875TIP3   OH281039   1.913   5.186  15.001  0.1899 -0.2963  0.0250
19875TIP3    H181040   1.932   5.133  14.923 -0.7792  1.7576 -1.6781
19875TIP3    H281041   1.836   5.144  15.039 -0.5376 -0.1891 -1.2647
19876TIP3   OH281042   6.323   0.328  14.047 -0.2337 -0.0216  0.2382
19876TIP3    H181043   6.331   0.420  14.071 -0.7954 -0.5547  2.8541
19876TIP3    H281044   6.229   0.310  14.054 -0.3539 -0.4377 -1.8972
19877TIP3   OH281045   1.699   0.348  12.737  0.1211 -0.0017  0.2241
19877TIP3    H181046   1.687   0.432  12.781 -0.3710  0.6313 -1.0404
19877TIP3    H281047   1.674   0.283  12.801  1.7106  0.7241  1.6617
19878TIP3   OH281048   4.081   2.914   5.298 -0.0855  0.2529  0.0057
19878TIP3    H181049   4.155   2.971   5.278 -0.4820  0.0268 -2.3648
19878TIP3    H281050   4.073   2.918   5.393  1.5925  1.9927  0.1364
19879TIP3   OH281051   6.219   1.706  13.487  0.0812 -0.0857  0.2117
19879TIP3    H181052   6.279   1.693  13.561 -0.1738 -1.1540  0.2427
19879TIP3    H281053   6.272   1.752  13.421  0.7432 -0.4119  0.5059
19880TIP3   OH281054   6.273   3.171   3.432  0.5464 -0.4457  0.5877
19880TIP3    H181055   6.291   3.135   3.345 -0.4110 -0.1051  0.2328
19880TIP3    H281056   6.304   3.261   3.427  0.7040 -0.4953  0.6765
19881TIP3   OH281057   5.647   5.674  15.295 -0.1018  0.0351  0.2663
19881TIP3    H181058   5.566   5.675  15.245  0.0550  0.4520  0.0212
19881TIP3    H281059   5.657   5.583  15.323 -1.3972  0.2503  1.5124
19882TIP3   OH281060   1.834   1.089  11.064  0.2473  0.5342 -0.1104
19882TIP3    H181061   1.848   1.130  11.149 -1.3928  0.8040  0.0459
19882TIP3    H281062   1.873   1.150  11.001 -0.5402  1.4594  0.2733
19883TIP3   OH281063   6.467   2.608   2.936 -0.3473 -0.2590  0.8454
19883TIP3    H181064   6.465   2.517   2.966 -0.0395  0.2928  2.6467
19883TIP3    H281065   6.556   2.621   2.903 -0.6261 -0.8146 -0.1684
19884TIP3   OH281066   2.100   5.189   2.038  0.1284 -0.9402 -0.4482
19884TIP3    H181067   2.172   5.234   1.993  1.7631 -3.2788 -0.3541
19884TIP3    H281068   2.118   5.096   2.025 -0.8309 -1.6963  2.7604
19885TIP3   OH281069   2.049   2.092   2.812 -0.0824  0.0753 -0.3615
19885TIP3    H181070   1.959   2.063   2.799  0.1833 -0.5925 -0.8012
19885TIP3    H281071   2.101   2.011   2.803  0.3861  0.0431  1.9913
19886TIP3   OH281072   4.446   2.495   0.283 -0.0615  0.0288 -0.3976
19886TIP3    H181073   4.516   2.533   0.231  1.0120  0.2684  1.1599
19886TIP3    H281074   4.423   2.414   0.238  0.3387  0.5736 -1.6124
19887TIP3   OH281075   4.418   4.908   1.034 -0.1407 -0.1020 -0.1831
19887TIP3    H181076   4.326   4.884   1.028 -0.1500 -0.0502 -0.2388
19887TIP3    H281077   4.458   4.835   1.082 -0.7408  1.2052  2.4759
19888TIP3   OH281078   5.397   0.442  16.960  0.2413  0.0129  0.3911
19888TIP3    H181079   5.408   0.508  17.029  1.6708 -0.0771  0.2716
19888TIP3    H281080   5.464   0.377  16.978 -1.5824 -1.8297  0.9108
19889TIP3   OH281081   5.298   4.314   0.597  0.1851  0.0339 -0.1698
19889TIP3    H181082   5.304   4.321   0.692 -0.4288  0.9311 -0.1859
19889TIP3    H281083   5.270   4.401   0.568  0.8966 -0.0666 -1.2201
19890TIP3   OH281084   6.196   0.260   5.076 -0.0603  0.0551 -0.0873
19890TIP3    H181085   6.271   0.320   5.085 -0.0333  0.1214 -0.6688
19890TIP3    H281086   6.169   0.242   5.165 -0.4942  1.4751  0.1026
19891TIP3   OH281087   4.857   6.632  12.554  0.1092 -0.3706  0.2170
19891TIP3    H181088   4.936   6.649  12.503  0.2842 -0.2647  0.5222
19891TIP3    H281089   4.860   6.696  12.625  0.5573 -1.4015  1.1512
19892TIP3   OH281090   2.732   4.158   2.722  0.1840  0.2106  0.5416
19892TIP3    H181091   2.707   4.209   2.645  1.5246  1.4988  0.9238
19892TIP3    H281092   2.670   4.185   2.790  0.8604  1.3296  0.7314
19893TIP3   OH281093   3.781   5.148   0.196 -0.2166  0.2500  0.3132
19893TIP3    H181094   3.749   5.105   0.275  0.9448  0.3448  0.8571
19893TIP3    H281095   3.774   5.242   0.216  0.8119  0.2733  0.6344
19894TIP3   OH281096   2.781   1.133   4.316 -0.5177 -0.8639  0.4377
19894TIP3    H181097   2.741   1.080   4.385 -0.2555 -1.7687 -0.1007
19894TIP3    H281098   2.851   1.079   4.281  0.4578  0.2606  0.6020
19895TIP3   OH281099   6.166   4.106   4.086 -0.3813 -0.1335  0.1765
19895TIP3    H181100   6.231   4.099   4.157  2.0181 -0.9324 -1.9323
19895TIP3    H281101   6.162   4.199   4.065 -1.4607  0.1690  1.6099
19896TIP3   OH281102   1.052   3.935  13.436 -0.1174 -0.8717 -0.1314
19896TIP3    H181103   1.093   3.857  13.475  1.3157  0.2731  0.7378
19896TIP3    H281104   1.095   3.945  13.352  1.6783  0.4665  0.8803
19897TIP3   OH281105   0.489   4.333   3.645 -0.7538  0.6455 -0.5347
19897TIP3    H181106   0.437   4.267   3.599 -0.8547  0.7997 -0.6427
19897TIP3    H281107   0.544   4.282   3.705 -0.1569  0.3951 -1.2798
19898TIP3   OH281108   3.412   4.770   5.114  0.4654  0.0527  0.0513
19898TIP3    H181109   3.472   4.703   5.082  0.0776 -0.6695  0.8214
19898TIP3    H281110   3.457   4.811   5.188 -0.1403 -0.7608  0.8847
19899TIP3   OH281111   4.379   3.602  11.644 -0.1910 -0.3310 -0.3114
19899TIP3    H181112   4.429   3.527  11.612 -1.7201 -0.1650 -3.4206
19899TIP3    H281113   4.309   3.614  11.580 -2.9737  0.7820  2.6458
19900TIP3   OH281114   5.146   0.190   1.650 -0.0838 -0.2837 -0.1385
19900TIP3    H181115   5.107   0.118   1.700  1.3639 -0.7851  0.3248
19900TIP3    H281116   5.145   0.264   1.711  0.4870 -0.5367  0.1823
19901TIP3   OH281117   0.233   0.780   4.661 -0.1657  0.2623  0.6103
19901TIP3    H181118   0.281   0.721   4.604 -1.1730  0.1819 -0.1806
19901TIP3    H281119   0.163   0.816   4.606 -0.5090  1.0025  1.4982
19902TIP3   OH281120   4.001   1.978  11.975  0.0944 -0.1485  0.4989
19902TIP3    H181121   4.068   2.046  11.964  0.9187 -1.0137  0.0255
19902TIP3    H281122   3.918   2.025  11.968  0.6449  0.7570 -0.1827
19903TIP3   OH281123   0.569   1.733   5.697 -0.1239 -0.5568  0.2398
19903TIP3    H181124   0.579   1.740   5.602  2.0396 -1.2579  0.3594
19903TIP3    H281125   0.493   1.787   5.717  1.2372  2.2858 -1.5498
19904TIP3   OH281126   3.371   4.898   1.015 -0.3474  0.5704 -0.7744
19904TIP3    H181127   3.300   4.868   1.072  0.3027 -0.3489 -0.4176
19904TIP3    H281128   3.327   4.928   0.936 -1.0440 -3.3377 -2.0920
19905TIP3   OH281129   1.323   0.941   0.859 -0.7289  0.0875 -0.1267
19905TIP3    H181130   1.278   0.914   0.778  1.2550 -0.3900 -1.1223
19905TIP3    H281131   1.405   0.892   0.859 -1.0824 -0.6744  2.7167
19906TIP3   OH281132   3.867   4.758  12.891 -0.2632  0.0212  0.2913
19906TIP3    H181133   3.960   4.768  12.872  0.2043 -0.5246  2.1098
19906TIP3    H281134   3.847   4.827  12.954 -1.1931  0.3785 -0.3786
19907TIP3   OH281135   4.740   4.969   0.297  0.1240 -0.3001  0.0331
19907TIP3    H181136   4.828   4.932   0.300 -0.3368 -1.5253 -0.8459
19907TIP3    H281137   4.741   5.028   0.221  0.1509 -0.3965 -0.0415
19908TIP3   OH281138   4.789   3.959   5.435  0.2730  0.5299  0.3700
19908TIP3    H181139   4.739   4.033   5.401 -0.9377  0.3942  1.7638
19908TIP3    H281140   4.873   3.997   5.461 -1.8336  2.5852  5.3877
19909TIP3   OH281141   3.867   0.462  16.014  0.0777 -0.2219  0.6754
19909TIP3    H181142   3.913   0.545  15.998 -3.0472  1.3656 -0.8860
19909TIP3    H281143   3.845   0.464  16.107  1.3768 -0.0924  1.0014
19910TIP3   OH281144   1.523   3.264   1.237  0.4915  0.0140 -0.1399
19910TIP3    H181145   1.589   3.197   1.223  1.1855  0.4701  0.8316
19910TIP3    H281146   1.538   3.295   1.326 -0.2845  0.9443 -0.3075
19911TIP3   OH281147   5.675   3.466   3.966  0.1640 -0.2097  0.2990
19911TIP3    H181148   5.622   3.407   4.019  1.2704  0.0571  1.7619
19911TIP3    H281149   5.756   3.417   3.949 -0.0954 -0.2126 -1.0020
19912TIP3   OH281150   6.681   4.162  11.548  0.5074 -0.1361  0.0618
19912TIP3    H181151   6.600   4.163  11.598  0.0108  0.6021 -0.7371
19912TIP3    H281152   6.746   4.201  11.607 -0.0213  0.5168  0.2253
19913TIP3   OH281153   5.123   0.383   3.049  0.6618  0.6137  0.1714
19913TIP3    H181154   5.174   0.350   3.124  1.6116  1.6011 -0.0291
19913TIP3    H281155   5.187   0.393   2.979 -0.2568 -0.4822 -0.8640
19914TIP3   OH281156   0.871   6.220  11.719  0.1719 -0.3618  0.6913
19914TIP3    H181157   0.809   6.264  11.661  0.5015 -1.8253 -0.8730
19914TIP3    H281158   0.920   6.291  11.760  1.2113  0.8244 -2.2912
19915TIP3   OH281159   3.855   4.294  13.974 -0.0836  0.2377 -0.1097
19915TIP3    H181160   3.904   4.314  13.894 -0.5973  0.5366 -0.3504
19915TIP3    H281161   3.764   4.287  13.946 -0.1073 -1.0307  0.2128
19916TIP3   OH281162   0.337   5.099  16.032  0.4371 -0.2194  0.1673
19916TIP3    H181163   0.362   5.186  16.063  0.5635 -0.9303  2.2691
19916TIP3    H281164   0.307   5.113  15.942  0.5848  1.9570  0.3939
19917TIP3   OH281165   2.989   5.954   4.523  0.2924  0.1268  0.3636
19917TIP3    H181166   2.912   5.898   4.525  0.8773 -0.6714  1.2380
19917TIP3    H281167   2.953   6.043   4.521 -0.6353 -0.2567 -1.6007
19918TIP3   OH281168   4.957   4.617   0.383 -0.0154 -0.1596  0.2317
19918TIP3    H181169   4.956   4.708   0.354 -2.3159  0.6066  2.3179
19918TIP3    H281170   4.864   4.593   0.391  0.4787 -1.7673  2.2295
19919TIP3   OH281171   4.597   5.307   1.154 -1.4065 -0.0537 -0.4555
19919TIP3    H181172   4.633   5.224   1.184 -0.7262 -0.0484 -1.2315
19919TIP3    H281173   4.520   5.321   1.210  0.0807  0.2213  1.6306
19920TIP3   OH281174   0.265   1.186   2.571 -0.0081  0.1117  0.2497
19920TIP3    H181175   0.308   1.122   2.515  0.5607  1.4910 -0.9460
19920TIP3    H281176   0.171   1.175   2.553  0.0955 -0.2817 -0.0546
19921TIP3   OH281177   6.487   5.863  12.496 -0.0067 -0.0815 -0.2187
19921TIP3    H181178   6.540   5.941  12.514  0.2592 -0.7739  2.3537
19921TIP3    H281179   6.464   5.829  12.582  0.8900 -3.5447 -1.1892
19922TIP3   OH281180   5.696   0.413   3.738  0.2613  0.4789 -0.2507
19922TIP3    H181181   5.678   0.363   3.659  1.4146  0.0247 -0.2471
19922TIP3    H281182   5.725   0.348   3.802 -0.5294  0.8558  0.5131
19923TIP3   OH281183   5.888   6.609  14.089 -0.0112  0.1215  0.4763
19923TIP3    H181184   5.818   6.638  14.146 -0.3599  0.2529 -0.0123
19923TIP3    H281185   5.846   6.547  14.028  0.3941 -0.1791  0.4946
19924TIP3   OH281186   0.753   1.242  16.727  0.1731 -0.1567 -0.1766
19924TIP3    H181187   0.660   1.231  16.743  0.0857 -1.2566 -1.2744
19924TIP3    H281188   0.773   1.331  16.757 -1.7551  1.0596 -2.1812
19925TIP3   OH281189   6.511   6.601   5.260 -0.5273  0.0283 -0.0107
19925TIP3    H181190   6.528   6.673   5.320 -0.9124 -1.4787  1.9892
19925TIP3    H281191   6.434   6.557   5.295  0.2108 -1.8835 -0.6288
19926TIP3   OH281192   2.613   1.002   5.552  0.4838 -0.3177 -0.0894
19926TIP3    H181193   2.615   0.960   5.638  2.1808  0.5035  0.3196
19926TIP3    H281194   2.668   0.946   5.497  0.1255 -0.3624 -0.4014
19927TIP3   OH281195   4.950   3.153   2.238  0.0439  0.2069  0.2816
19927TIP3    H181196   4.862   3.190   2.247  0.3868  0.6541  2.4535
19927TIP3    H281197   4.950   3.076   2.294  1.0738  0.2889  0.4215
19928TIP3   OH281198   6.378   5.736   2.539  0.0776  0.3423  0.4448
19928TIP3    H181199   6.285   5.717   2.534 -0.1585  1.1654  1.3716
19928TIP3    H281200   6.395   5.795   2.466 -0.0722  0.0031  0.1349
19929TIP3   OH281201   4.273   2.416  16.283  0.2072  0.3711  0.0292
19929TIP3    H181202   4.309   2.407  16.371  0.7344 -2.5849 -0.4116
19929TIP3    H281203   4.197   2.358  16.282 -0.0959  0.7587 -1.3471
19930TIP3   OH281204   4.385   4.171  16.011 -0.5375 -0.5045 -0.5095
19930TIP3    H181205   4.374   4.266  16.009  0.0343 -0.4403 -0.8279
19930TIP3    H281206   4.359   4.142  15.924 -0.4722 -0.6131 -0.4928
19931TIP3   OH281207   1.416   4.761   4.213  0.0491 -0.2010 -0.1098
19931TIP3    H181208   1.440   4.724   4.129  3.1576  0.8363  0.2057
19931TIP3    H281209   1.405   4.685   4.271  0.4743 -0.8185 -0.8308
19932TIP3   OH281210   0.636   2.850   5.984 -0.1268 -0.0660 -0.5741
19932TIP3    H181211   0.672   2.772   6.024  1.1564  1.9180  2.5558
19932TIP3    H281212   0.562   2.874   6.040 -1.5982  0.0868 -2.4761
19933TIP3   OH281213   6.273   5.118  15.765 -0.3859 -0.0009 -0.5602
19933TIP3    H181214   6.182   5.103  15.788 -0.0228  0.0080  0.9818
19933TIP3    H281215   6.275   5.207  15.729 -1.0844 -0.2782 -1.3132
19934TIP3   OH281216   4.476   4.685  15.657 -0.2887  0.2112  0.2807
19934TIP3    H181217   4.457   4.770  15.616 -0.0458  0.1083 -0.0466
19934TIP3    H281218   4.444   4.620  15.595 -0.3497  0.0563  0.4713
19935TIP3   OH281219   4.535   3.795  15.748  0.1684  0.5150  0.5928
19935TIP3    H181220   4.546   3.849  15.670  0.0825  2.7241  2.0230
19935TIP3    H281221   4.448   3.757  15.739  0.3244  0.4023 -0.5682
19936TIP3   OH281222   6.496   2.263   1.826  0.5128 -0.4202 -0.1681
19936TIP3    H181223   6.557   2.295   1.892  0.2086  0.9394 -0.5018
19936TIP3    H281224   6.552   2.226   1.757  0.8937 -0.4199  0.1404
19937TIP3   OH281225   0.592   0.918  11.719 -0.4329  0.5174 -0.1811
19937TIP3    H181226   0.677   0.878  11.736 -0.5861 -0.2710 -1.1839
19937TIP3    H281227   0.598   1.005  11.759  0.2778 -0.1034  1.1321
19938TIP3   OH281228   4.225   1.605  12.133  0.3437  0.1916  0.1564
19938TIP3    H181229   4.226   1.524  12.082  0.5770  0.0802  0.3354
19938TIP3    H281230   4.318   1.623  12.151  0.2856  0.4299  0.2255
19939TIP3   OH281231   2.497   4.251  11.012 -0.8433  0.0462  0.0859
19939TIP3    H181232   2.515   4.336  11.052  2.3906 -0.3750 -0.2020
19939TIP3    H281233   2.578   4.200  11.025 -1.7812 -2.1420 -1.8227
19940TIP3   OH281234   3.466   1.162  17.198 -0.1151 -0.2020 -0.1116
19940TIP3    H181235   3.517   1.207  17.131  0.6680  0.2933  0.7870
19940TIP3    H281236   3.403   1.109  17.149 -0.8382  1.6000 -1.2045
19941TIP3   OH281237   5.778   5.068   4.844 -0.1637  0.1793  0.0542
19941TIP3    H181238   5.797   5.161   4.854  0.9839 -0.0854  0.4619
19941TIP3    H281239   5.863   5.027   4.830 -0.6663 -0.7988 -0.2717
19942TIP3   OH281240   1.433   5.285   5.428  0.1792  0.1558  0.0638
19942TIP3    H181241   1.470   5.319   5.509  0.8797 -0.3219 -0.0464
19942TIP3    H281242   1.351   5.334   5.417  0.6146  1.0002  0.4749
19943TIP3   OH281243   2.924   1.522   2.660 -0.1958  0.1151 -0.4842
19943TIP3    H181244   3.007   1.560   2.631  1.1087 -2.5926 -0.6471
19943TIP3    H281245   2.862   1.546   2.592  0.3818  2.2738 -0.3192
19944TIP3   OH281246   4.571   6.180   0.449 -0.6257 -0.0077  0.1279
19944TIP3    H181247   4.516   6.102   0.453  0.0573 -0.6503 -1.7276
19944TIP3    H281248   4.514   6.248   0.414 -0.9445  0.0553  0.7585
19945TIP3   OH281249   2.650   2.843  14.812  0.2031 -0.1986  0.4463
19945TIP3    H181250   2.556   2.852  14.822  0.2161 -0.1548  0.5297
19945TIP3    H281251   2.683   2.933  14.817  0.1508 -0.1027 -0.5859
19946TIP3   OH281252   5.833   0.673  15.993 -0.2953  0.0102 -0.2052
19946TIP3    H181253   5.751   0.629  16.016 -0.6892  0.3839 -0.8696
19946TIP3    H281254   5.881   0.680  16.076 -1.1472  0.2318  0.2744
19947TIP3   OH281255   1.178   2.064   0.397  0.1828 -0.0224  0.1200
19947TIP3    H181256   1.254   2.121   0.407  1.6443 -1.4672 -2.0454
19947TIP3    H281257   1.205   1.980   0.433  0.1212 -0.8826 -1.6892
19948TIP3   OH281258   5.173   1.226  14.675  0.0432  0.2007  0.4676
19948TIP3    H181259   5.142   1.146  14.633  1.8437  0.4574 -1.4892
19948TIP3    H281260   5.170   1.207  14.769  1.2616 -2.5210  0.0379
19949TIP3   OH281261   3.856   3.496  13.264  0.2300  0.1028 -0.6401
19949TIP3    H181262   3.865   3.407  13.231  0.5063  0.2596 -0.9861
19949TIP3    H281263   3.874   3.488  13.358  1.9497  0.0572 -0.9459
19950TIP3   OH281264   2.397   2.494   4.591  0.3797 -0.1656 -0.0396
19950TIP3    H181265   2.444   2.444   4.524 -0.2019  0.9070 -1.2784
19950TIP3    H281266   2.314   2.447   4.602  0.5498 -0.4456  0.0645
19951TIP3   OH281267   3.491   4.644   3.917 -0.1888 -0.7562 -0.2944
19951TIP3    H181268   3.500   4.562   3.869 -1.7131 -1.5044  0.5924
19951TIP3    H281269   3.401   4.672   3.899  0.8838  1.8368 -2.1952
19952TIP3   OH281270   1.723   4.026  11.265  0.5003  1.4018  0.2227
19952TIP3    H181271   1.712   4.051  11.173  0.5716 -1.1462 -0.5765
19952TIP3    H281272   1.794   3.962  11.264 -0.1327  0.6076  1.8952
19953TIP3   OH281273   2.171   5.383  14.627  0.3905  0.0747  0.4631
19953TIP3    H181274   2.096   5.403  14.572  1.0282  0.3726 -0.3304
19953TIP3    H281275   2.244   5.376  14.566  1.2155  0.9086  1.3039
19954TIP3   OH281276   2.406   0.142   2.177 -0.6680 -0.3662 -0.4964
19954TIP3    H181277   2.468   0.072   2.158  0.7023  0.9300 -0.9980
19954TIP3    H281278   2.383   0.178   2.092 -1.5087 -0.3213 -0.2606
19955TIP3   OH281279   5.875   3.773  12.434  0.1178  0.6505  0.0477
19955TIP3    H181280   5.896   3.680  12.427  0.9951  0.8815 -0.6248
19955TIP3    H281281   5.948   3.810  12.484  0.6259  1.2441 -1.1083
19956LIG      S81282   3.483   3.603  16.230 -0.1952  0.0800  0.5063
19956LIG     N181283   3.393   3.521  16.495  0.4506  0.3389  0.0437
19956LIG     N281284   3.133   3.008  16.774 -0.3745 -0.1451 -0.1332
19956LIG     C181285   3.272   3.305  16.560  0.3534 -0.1152 -0.3445
19956LIG     C281286   3.233   3.222  16.690 -0.0682 -0.0825 -0.1601
19956LIG     C381287   3.315   3.446  16.597 -0.4254 -0.6124 -0.2858
19956LIG     C481288   3.210   3.074  16.663  0.0173  0.6483  0.0588
19956LIG     C581289   3.148   3.309  16.468  0.4756  0.6965  1.0051
19956LIG     C681290   3.531   3.479  16.476 -0.1268 -0.2968 -0.6306
19956LIG     C781291   3.366   3.662  16.468 -0.0555  0.4999  0.9486
19956LIG     C881292   3.165   2.868  16.803 -1.0380  0.0237  0.5346
19956LIG     C981293   2.990   3.045  16.770 -0.1295 -0.0101 -0.3885
19956LIG    C1081294   3.581   3.508  16.345 -0.3745 -0.2294 -0.4988
19956LIG    C1181295   3.400   3.714  16.339  0.5235 -0.2831 -0.4228
19956LIG    C1281296   3.609   3.402  16.566  0.2494 -0.1993 -0.7226
19956LIG    C1381297   3.311   3.752  16.560  0.5550  0.9369 -0.0932
19956LIG    C1481298   3.171   2.777  16.675 -0.3343 -0.5418 -0.1707
19956LIG    C1581299   2.894   2.978  16.668  0.4344 -0.2160  0.3734
19956LIG    C1681300   3.723   3.490  16.323  0.8750 -0.1534  0.2874
19956LIG    C1781301   3.374   3.855  16.311  0.2680 -0.3592 -0.3270
19956LIG    C1881302   3.740   3.377  16.539  0.2989  0.8567 -0.2952
19956LIG    C1981303   3.294   3.884  16.525  0.4835 -0.0665  0.3122
19956LIG    C2081304   3.798   3.424  16.419 -0.4938 -0.0425  0.6320
19956LIG    C2181305   3.324   3.941  16.405  0.0939  0.4547 -0.3575
19956LIG     H181306   3.357   3.254  16.510  1.0481 -0.4860  1.1552
19956LIG     H281307   3.145   3.272  16.736 -0.5636 -1.3503  0.3005
19956LIG     H381308   3.317   3.238  16.761 -1.4270  0.4914  1.3826
19956LIG     H481309   3.230   3.515  16.617  1.1914  0.9381  1.6453
19956LIG     H581310   3.375   3.437  16.690 -0.6854 -0.2890 -0.0875
19956LIG     H681311   3.146   3.058  16.574 -1.2654 -1.6638  1.3007
19956LIG     H781312   3.304   3.028  16.626 -1.3177 -3.2824  1.0562
19956LIG     H881313   3.060   3.341  16.527  0.9572  0.9929  1.5739
19956LIG     H981314   3.126   3.206  16.431 -0.7518  1.5167 -0.6907
19956LIG    H1081315   3.158   3.381  16.384 -2.3946  2.6658  2.2256
19956LIG    H1181316   3.105   2.827  16.887 -0.7079  0.8442  1.1843
19956LIG    H1281317   3.268   2.873  16.844 -0.0252  0.0178 -1.8437
19956LIG    H1381318   2.973   3.155  16.767 -2.3975 -0.2725  0.6266
19956LIG    H1481319   2.960   3.016  16.873  0.2677 -0.7006 -0.4620
19956LIG    H1581320   3.573   3.380  16.665  0.5124  1.8052 -0.1454
19956LIG    H1681321   3.285   3.718  16.659  0.9926  0.1411 -0.2431
19956LIG    H1781322   3.215   2.679  16.705  1.4864  0.0251 -0.8457
19956LIG    H1881323   3.234   2.821  16.594  1.8738  0.1495  1.8020
19956LIG    H1981324   3.070   2.748  16.637 -0.3610 -2.5502  1.2898
19956LIG    H2081325   2.894   2.867  16.662  1.4292 -0.1413 -1.5283
19956LIG    H2181326   2.920   3.013  16.566  1.0099  0.7267  0.8237
19956LIG    H2281327   2.791   3.018  16.675  0.0602 -1.0919  0.0371
19956LIG    H2381328   3.760   3.530  16.230  0.8120  1.9934  1.1082
19956LIG    H2481329   3.397   3.896  16.214  0.6375 -0.2482 -0.1944
19956LIG    H2581330   3.810   3.323  16.602  0.6086 -0.2807 -1.5595
19956LIG    H2681331   3.243   3.949  16.594 -1.3920 -0.9321 -0.1785
19956LIG    H2781332   3.904   3.411  16.403 -0.5874  1.0923 -1.1038
19956LIG    H2881333   3.313   4.048  16.393 -1.6713  0.1199 -2.5968
   6.75036   6.75036  17.39354
